Title
81383
    1CHL1    C3    1   0.583   0.912   9.947 -0.2253 -0.8938  0.4515
    1CHL1    H3    2   0.598   1.022   9.957 -1.2469 -0.2456 -3.3938
    1CHL1    O3    3   0.560   0.856  10.075 -0.2423  0.4974  0.5805
    1CHL1   H3'    4   0.582   0.762  10.070  0.1889  0.6340 -0.5786
    1CHL1    C4    5   0.462   0.900   9.859  0.1486  0.3447  0.9236
    1CHL1   H4A    6   0.417   0.799   9.875  0.7564  0.1354  1.3584
    1CHL1   H4B    7   0.389   0.972   9.901 -0.6912 -0.3679  0.7327
    1CHL1    C5    8   0.489   0.934   9.714  0.8758  0.2115  0.2317
    1CHL1    C6    9   0.412   1.017   9.652 -0.3488 -0.0213  0.0833
    1CHL1    H6   10   0.323   1.056   9.705 -1.2705 -1.5017 -0.2946
    1CHL1    C7   11   0.423   1.065   9.508  0.3160  0.5097 -0.5829
    1CHL1   H7A   12   0.320   1.051   9.471 -0.0324 -0.4508  0.6761
    1CHL1   H7B   13   0.469   1.166   9.503  1.5105 -0.0539 -1.2764
    1CHL1    C8   14   0.517   0.963   9.441 -0.0111 -0.9326  0.1441
    1CHL1    H8   15   0.460   0.869   9.426  0.2807 -1.1850  0.6179
    1CHL1   C14   16   0.563   1.018   9.306  0.3992  0.2034 -0.2429
    1CHL1   H14   17   0.631   1.101   9.335  0.0268 -0.0748  1.5209
    1CHL1   C15   18   0.461   1.077   9.198  0.4802  0.0206 -0.2088
    1CHL1  H15A   19   0.375   1.010   9.176 -1.3214  2.1031  0.1595
    1CHL1  H15B   20   0.429   1.173   9.243  2.3159 -0.1833  1.7271
    1CHL1   C16   21   0.546   1.095   9.071  0.1014  0.4242 -0.1606
    1CHL1  H16A   22   0.484   1.054   8.989 -1.1966 -2.2284  2.0115
    1CHL1  H16B   23   0.577   1.200   9.048  1.8843  0.2305  1.1298
    1CHL1   C17   24   0.682   1.023   9.099 -0.8704  0.2928  0.9435
    1CHL1   H17   25   0.755   1.098   9.137 -1.8182  1.1163  1.1948
    1CHL1   C13   26   0.652   0.927   9.215  0.4694  0.2715 -0.1784
    1CHL1   C18   27   0.576   0.806   9.163 -0.1999  0.0613 -0.1651
    1CHL1  H18A   28   0.537   0.761   9.257 -0.6899  2.4465  0.8542
    1CHL1  H18B   29   0.491   0.834   9.098 -2.3500  0.5406  2.6289
    1CHL1  H18C   30   0.643   0.734   9.112  0.7510 -2.1121  3.6981
    1CHL1   C12   31   0.773   0.871   9.290 -0.3431  0.5454  0.3896
    1CHL1  H12A   32   0.837   0.799   9.234 -1.8667 -1.4725  1.1406
    1CHL1  H12B   33   0.828   0.963   9.319  1.5309 -0.4614  0.2081
    1CHL1   C11   34   0.736   0.810   9.427  0.0614 -0.2548  0.2225
    1CHL1  H11A   35   0.677   0.718   9.405 -1.9329  0.8687  0.5578
    1CHL1  H11B   36   0.824   0.793   9.491 -0.6323  1.0586  1.5773
    1CHL1    C9   37   0.647   0.912   9.510  0.4622  0.5861  0.1866
    1CHL1    H9   38   0.712   1.001   9.526  2.9668 -1.2764  1.0750
    1CHL1   C10   39   0.613   0.858   9.651  0.9293 -0.5131  0.3566
    1CHL1   C19   40   0.572   0.703   9.646  0.6581 -0.7265 -0.0586
    1CHL1  H19A   41   0.489   0.697   9.573  0.2521 -0.4255  0.3656
    1CHL1  H19B   42   0.653   0.640   9.603 -0.1695  0.0910 -3.0388
    1CHL1  H19C   43   0.527   0.671   9.743 -1.3279 -0.3215 -0.8080
    1CHL1    C1   44   0.735   0.882   9.741  0.1336 -0.0152  0.2643
    1CHL1   H1A   45   0.825   0.824   9.709 -0.7301 -2.4822  1.9555
    1CHL1   H1B   46   0.755   0.991   9.735 -2.1183  0.4579  0.3473
    1CHL1    C2   47   0.704   0.850   9.892 -0.3713  0.5016  0.1870
    1CHL1   H2A   48   0.793   0.873   9.955  1.2095 -0.9440 -1.4126
    1CHL1   H2B   49   0.677   0.742   9.892  1.1746  0.0702 -1.4337
    1CHL1   C20   50   0.747   0.974   8.969  0.6512 -0.4035  0.3381
    1CHL1   H20   51   0.685   0.887   8.939 -1.9032  1.1219  0.9168
    1CHL1   C21   52   0.892   0.934   8.988  0.2915  0.2598  0.5959
    1CHL1  H21A   53   0.918   0.879   9.081  0.8630 -1.2422 -0.4210
    1CHL1  H21B   54   0.959   1.021   8.975 -0.6708  1.1868  1.6006
    1CHL1  H21C   55   0.935   0.861   8.917  0.4464 -0.2873  1.2416
    1CHL1   C22   56   0.724   1.079   8.846  0.0895 -0.1266 -0.0862
    1CHL1  H22A   57   0.617   1.092   8.821  0.2320 -1.4482 -1.5277
    1CHL1  H22B   58   0.762   1.180   8.871  0.2820  0.4654 -2.5133
    1CHL1   C23   59   0.790   1.042   8.712  0.1498  0.2802 -0.7316
    1CHL1  H23A   60   0.899   1.045   8.735 -0.2620  0.9060  1.3815
    1CHL1  H23B   61   0.753   0.942   8.681 -0.6840  0.0534  0.8882
    1CHL1   C24   62   0.767   1.140   8.600 -0.8074 -0.3021  0.7356
    1CHL1  H24A   63   0.658   1.160   8.597 -0.6983  0.2190 -0.0811
    1CHL1  H24B   64   0.815   1.233   8.639  0.2626 -0.5764  0.1320
    1CHL1   C25   65   0.824   1.105   8.460  0.0263  0.3305 -0.1493
    1CHL1   H25   66   0.832   1.208   8.420 -1.2734  1.3648  2.0605
    1CHL1   C26   67   0.965   1.043   8.467 -0.4770 -0.6364 -0.7703
    1CHL1  H26A   68   0.971   0.943   8.515 -1.3157  0.6093  2.1600
    1CHL1  H26B   69   1.007   1.041   8.364 -1.2593  0.2727 -1.1287
    1CHL1  H26C   70   1.022   1.119   8.525 -0.9574 -1.0235  0.2391
    1CHL1   C27   71   0.719   1.020   8.373  0.6935  0.1956  0.2543
    1CHL1  H27A   72   0.639   1.096   8.361  2.3490  2.1066  0.7949
    1CHL1  H27B   73   0.750   0.994   8.270 -1.3132  0.2050 -0.3801
    1CHL1  H27C   74   0.680   0.930   8.425 -2.1929  0.4557 -1.2638
    2CHL1    C3   75   2.469   5.305   9.771  0.0112 -0.6103 -0.1543
    2CHL1    H3   76   2.478   5.411   9.739  1.1166 -1.2265 -2.0401
    2CHL1    O3   77   2.484   5.293   9.914  0.0851  0.1600 -0.3124
    2CHL1   H3'   78   2.506   5.200   9.922  0.8795  0.1942 -1.7062
    2CHL1    C4   79   2.323   5.265   9.730 -0.4478  0.0455  0.0812
    2CHL1   H4A   80   2.311   5.158   9.759 -2.4735  0.2208  0.0475
    2CHL1   H4B   81   2.251   5.327   9.788 -0.4022 -1.9566  2.4931
    2CHL1    C5   82   2.306   5.282   9.584 -0.7513 -0.6088 -0.2148
    2CHL1    C6   83   2.210   5.357   9.540  0.2896 -0.3007  0.3490
    2CHL1    H6   84   2.141   5.394   9.616 -0.6498  0.9322 -1.0518
    2CHL1    C7   85   2.173   5.373   9.397  0.2349 -0.0068  0.1275
    2CHL1   H7A   86   2.063   5.365   9.386  0.3449 -0.3315 -0.8291
    2CHL1   H7B   87   2.199   5.479   9.376 -0.7621  0.6969  2.1700
    2CHL1    C8   88   2.256   5.277   9.315  0.1220  0.4688 -0.1575
    2CHL1    H8   89   2.213   5.176   9.331 -0.7801  0.6737 -1.1785
    2CHL1   C14   90   2.241   5.313   9.171 -0.1272  0.7623  0.9230
    2CHL1   H14   91   2.283   5.415   9.158  1.0803  0.0989 -0.7812
    2CHL1   C15   92   2.096   5.330   9.118 -0.2228  0.3975  0.0871
    2CHL1  H15A   93   2.031   5.245   9.146  0.5692 -0.7657 -1.4901
    2CHL1  H15B   94   2.057   5.427   9.156  0.7604  2.2537 -3.1770
    2CHL1   C16   95   2.113   5.328   8.966  0.0856 -0.1850  0.2291
    2CHL1  H16A   96   2.051   5.250   8.919  0.9711 -1.1617  0.6280
    2CHL1  H16B   97   2.082   5.422   8.916  1.4811  0.5340  0.6511
    2CHL1   C17   98   2.264   5.285   8.941 -0.5609 -0.2135  0.3244
    2CHL1   H17   99   2.326   5.377   8.925 -0.2263 -0.3511  0.7941
    2CHL1   C13  100   2.313   5.224   9.071  0.3049 -0.3017 -0.0467
    2CHL1   C18  101   2.260   5.079   9.081  0.0159  0.1272 -0.2449
    2CHL1  H18A  102   2.157   5.067   9.042  0.0936 -0.0163 -0.4104
    2CHL1  H18B  103   2.319   5.007   9.020 -0.0159  0.6764 -0.9395
    2CHL1  H18C  104   2.267   5.045   9.186  1.0962  1.8955  0.3074
    2CHL1   C12  105   2.462   5.231   9.100  0.1970 -0.4234 -0.1064
    2CHL1  H12A  106   2.527   5.169   9.036 -0.7126 -0.7909 -0.6856
    2CHL1  H12B  107   2.498   5.337   9.096 -1.5616  0.1902 -0.6107
    2CHL1   C11  108   2.488   5.193   9.252  0.0323 -0.1969  0.2221
    2CHL1  H11A  109   2.488   5.083   9.269  0.9728 -0.2831 -0.2487
    2CHL1  H11B  110   2.594   5.216   9.278 -0.2382 -1.3407  2.6235
    2CHL1    C9  111   2.410   5.270   9.354  0.6285  0.0324  0.8519
    2CHL1    H9  112   2.439   5.377   9.350  1.3551 -0.1440  1.4025
    2CHL1   C10  113   2.423   5.219   9.496  0.1245  0.3376  0.4298
    2CHL1   C19  114   2.397   5.063   9.492  0.0332 -0.2670  0.0643
    2CHL1  H19A  115   2.295   5.037   9.456 -1.0310  1.3149  1.7182
    2CHL1  H19B  116   2.477   5.011   9.436  1.1619  1.3186  0.1638
    2CHL1  H19C  117   2.410   5.022   9.595 -3.1788 -0.1690  0.6082
    2CHL1    C1  118   2.565   5.249   9.548 -0.7938  0.0025  0.6544
    2CHL1   H1A  119   2.643   5.187   9.499 -2.3241 -0.0732 -1.8884
    2CHL1   H1B  120   2.588   5.352   9.513 -1.9257  0.6841  1.8340
    2CHL1    C2  121   2.577   5.225   9.698  0.0363  0.3384 -0.3485
    2CHL1   H2A  122   2.674   5.271   9.725 -0.1649  2.3217 -2.6299
    2CHL1   H2B  123   2.570   5.119   9.731  1.2388  0.9424  2.0442
    2CHL1   C20  124   2.286   5.206   8.808 -0.2089  0.0019 -0.0207
    2CHL1   H20  125   2.282   5.097   8.831  1.0432  0.0526  0.5148
    2CHL1   C21  126   2.436   5.227   8.769 -0.3223  0.4371  0.4399
    2CHL1  H21A  127   2.442   5.210   8.659  0.4934  2.8791  0.0280
    2CHL1  H21B  128   2.505   5.155   8.817 -1.3781  0.2227  1.6674
    2CHL1  H21C  129   2.469   5.333   8.769  1.1351  0.0059  0.7780
    2CHL1   C22  130   2.195   5.247   8.695  0.0731  0.9018  0.4610
    2CHL1  H22A  131   2.202   5.175   8.611 -0.0625  1.4851 -0.0575
    2CHL1  H22B  132   2.089   5.226   8.720 -0.6418 -0.9739 -3.3450
    2CHL1   C23  133   2.202   5.399   8.655  0.9136 -0.2546  0.2709
    2CHL1  H23A  134   2.202   5.461   8.748  1.5293  0.1499  0.0149
    2CHL1  H23B  135   2.300   5.409   8.603  0.9911 -1.3904  0.1761
    2CHL1   C24  136   2.084   5.450   8.570 -0.8160  0.3249  0.3817
    2CHL1  H24A  137   2.081   5.375   8.488 -1.4970  0.2957  0.4266
    2CHL1  H24B  138   1.987   5.427   8.619  0.2443 -1.4713  1.7772
    2CHL1   C25  139   2.093   5.593   8.519 -0.2380 -0.3746 -0.4349
    2CHL1   H25  140   1.997   5.615   8.468 -0.1305  0.0103 -0.4730
    2CHL1   C26  141   2.105   5.699   8.624 -0.3139 -0.2567 -0.0625
    2CHL1  H26A  142   2.106   5.804   8.587 -0.5692  0.0924  0.9011
    2CHL1  H26B  143   2.026   5.688   8.701 -1.1512 -1.2558 -1.0305
    2CHL1  H26C  144   2.209   5.682   8.658  0.4640 -1.8485 -2.8549
    2CHL1   C27  145   2.197   5.630   8.415 -0.2025  0.0100 -0.0435
    2CHL1  H27A  146   2.184   5.557   8.333  0.6685 -0.7652  0.4852
    2CHL1  H27B  147   2.177   5.733   8.380 -2.2724 -0.9421 -1.8562
    2CHL1  H27C  148   2.302   5.628   8.451  0.0050  1.3038 -0.5062
    3CHL1    C3  149   0.329   4.315   9.995  0.6672  0.6012 -0.4551
    3CHL1    H3  150   0.280   4.224   9.954 -0.0607  1.2044 -0.9480
    3CHL1    O3  151   0.329   4.318  10.140  0.5901  0.0358  0.4416
    3CHL1   H3'  152   0.271   4.244  10.161 -1.0566 -0.1915 -3.9965
    3CHL1    C4  153   0.469   4.337   9.932  0.5086 -0.3687 -0.2839
    3CHL1   H4A  154   0.507   4.442   9.938 -0.6147  0.0799 -0.8257
    3CHL1   H4B  155   0.547   4.273   9.979 -0.4584 -0.9144  0.6095
    3CHL1    C5  156   0.450   4.330   9.783 -0.5142  0.3619  0.1772
    3CHL1    C6  157   0.521   4.246   9.708  0.0153 -0.1711 -0.5099
    3CHL1    H6  158   0.588   4.173   9.756  2.4493  0.3893 -2.8023
    3CHL1    C7  159   0.518   4.239   9.560  0.2759  0.1964  0.1769
    3CHL1   H7A  160   0.619   4.236   9.516 -0.3966 -2.1731 -1.3736
    3CHL1   H7B  161   0.481   4.138   9.534  0.7225 -0.1699  0.9154
    3CHL1    C8  162   0.435   4.353   9.488 -0.0461  0.4622 -0.6844
    3CHL1    H8  163   0.505   4.439   9.485  0.0235  0.6844  3.2382
    3CHL1   C14  164   0.394   4.297   9.352  0.0221 -0.0379 -0.1339
    3CHL1   H14  165   0.319   4.218   9.376 -0.9342  0.6778 -0.6782
    3CHL1   C15  166   0.493   4.232   9.249 -0.1351 -0.2826 -0.6174
    3CHL1  H15A  167   0.587   4.291   9.249 -0.2028  0.1746  3.5993
    3CHL1  H15B  168   0.511   4.129   9.289  1.8430  0.8650  1.7419
    3CHL1   C16  169   0.422   4.229   9.116 -0.2859 -0.7397 -0.1021
    3CHL1  H16A  170   0.495   4.289   9.058  0.1264  0.5387  1.6583
    3CHL1  H16B  171   0.419   4.135   9.057 -2.1481 -1.1841  0.6409
    3CHL1   C17  172   0.287   4.303   9.124 -0.1194 -0.2400  0.0001
    3CHL1   H17  173   0.204   4.232   9.141 -0.3082  0.0592  0.3566
    3CHL1   C13  174   0.304   4.387   9.263  0.0757 -0.2860  0.4924
    3CHL1   C18  175   0.384   4.521   9.232 -0.0618  0.4405  0.1318
    3CHL1  H18A  176   0.475   4.506   9.171 -0.3568 -0.1370 -0.1701
    3CHL1  H18B  177   0.326   4.591   9.168  0.9794 -1.3264 -2.9295
    3CHL1  H18C  178   0.395   4.580   9.325  0.3535 -0.2661  0.5387
    3CHL1   C12  179   0.177   4.425   9.342  0.2866 -0.6419  0.4243
    3CHL1  H12A  180   0.130   4.514   9.295 -0.8635 -1.7204 -0.5252
    3CHL1  H12B  181   0.099   4.346   9.342 -2.4690  1.8964  0.5371
    3CHL1   C11  182   0.211   4.471   9.488 -0.4177  0.0510  0.1881
    3CHL1  H11A  183   0.242   4.578   9.487  1.1648 -0.3576  1.7107
    3CHL1  H11B  184   0.119   4.465   9.551 -0.5395 -0.5587 -0.0447
    3CHL1    C9  185   0.312   4.383   9.562  0.2510  0.1905 -0.6790
    3CHL1    H9  186   0.271   4.281   9.568  2.6154 -0.7749  0.3209
    3CHL1   C10  187   0.351   4.427   9.713  0.0822  0.0696  0.8863
    3CHL1   C19  188   0.412   4.569   9.713 -0.1017  0.6965  0.1589
    3CHL1  H19A  189   0.348   4.642   9.659 -2.0885  0.1417  1.6245
    3CHL1  H19B  190   0.410   4.621   9.812  0.7811 -0.6105  0.8932
    3CHL1  H19C  191   0.514   4.568   9.670 -0.3153 -1.9604 -0.4516
    3CHL1    C1  192   0.217   4.416   9.796  0.2309 -0.3029 -0.1949
    3CHL1   H1A  193   0.145   4.491   9.755 -0.6011 -1.4136 -0.8396
    3CHL1   H1B  194   0.180   4.315   9.769  1.7777 -1.1399  0.6739
    3CHL1    C2  195   0.230   4.425   9.945 -0.2178 -0.2691  0.0678
    3CHL1   H2A  196   0.130   4.412   9.992 -0.5395  0.5802 -0.3626
    3CHL1   H2B  197   0.263   4.529   9.965  1.4651 -0.5733 -0.9170
    3CHL1   C20  198   0.260   4.383   9.005  0.4686  0.7144 -0.5780
    3CHL1   H20  199   0.338   4.461   8.995 -0.2251  1.8835  2.1023
    3CHL1   C21  200   0.123   4.446   9.024 -0.1237  0.1746  0.3027
    3CHL1  H21A  201   0.125   4.544   9.076  3.6351  0.9006 -0.8861
    3CHL1  H21B  202   0.056   4.384   9.088  0.7794  1.1115  2.2401
    3CHL1  H21C  203   0.078   4.452   8.923  0.9934 -0.4192 -0.2549
    3CHL1   C22  204   0.268   4.309   8.869 -0.4181 -0.1812  0.3398
    3CHL1  H22A  205   0.255   4.380   8.785  0.3075  0.5870  0.8659
    3CHL1  H22B  206   0.369   4.265   8.855  0.6289  1.4708  2.1616
    3CHL1   C23  207   0.169   4.195   8.852  0.1966 -0.2311  0.4798
    3CHL1  H23A  208   0.164   4.130   8.942  0.0773 -1.5551 -0.4474
    3CHL1  H23B  209   0.069   4.238   8.830 -0.0660 -1.2751 -0.4805
    3CHL1   C24  210   0.193   4.110   8.721 -0.4706  0.0634 -0.0470
    3CHL1  H24A  211   0.286   4.049   8.726 -1.2925 -1.2163 -0.0274
    3CHL1  H24B  212   0.106   4.042   8.716 -1.0741  0.6071  2.0584
    3CHL1   C25  213   0.199   4.181   8.581 -0.2536  0.6611 -0.0095
    3CHL1   H25  214   0.265   4.268   8.598  0.1142  0.3758  0.0553
    3CHL1   C26  215   0.236   4.094   8.464  0.0876  0.2837  0.5736
    3CHL1  H26A  216   0.221   4.154   8.371 -0.3630 -1.7886 -0.7558
    3CHL1  H26B  217   0.343   4.067   8.446  0.2537  1.8900 -1.3123
    3CHL1  H26C  218   0.171   4.004   8.456  1.4648 -0.7062  0.1092
    3CHL1   C27  219   0.054   4.228   8.563 -0.2540  0.4177  0.2911
    3CHL1  H27A  220   0.028   4.314   8.628 -2.2750  0.5634 -0.6362
    3CHL1  H27B  221   0.047   4.261   8.457  1.3145 -1.4100 -0.4426
    3CHL1  H27C  222  -0.031   4.157   8.574 -0.1205  0.2345  0.1435
    4CHL1    C3  223   2.069   6.656   9.937  0.0614 -0.0597  0.4798
    4CHL1    H3  224   2.096   6.764   9.934  3.1454 -0.7658 -1.2621
    4CHL1    O3  225   2.141   6.603  10.039 -0.4837 -0.4192 -0.1254
    4CHL1   H3'  226   2.121   6.510  10.030 -1.7681 -0.2650  0.8261
    4CHL1    C4  227   1.913   6.660   9.963 -0.4999  0.2990  0.0842
    4CHL1   H4A  228   1.861   6.563   9.975  0.0467 -0.1181 -0.7913
    4CHL1   H4B  229   1.903   6.706  10.063  0.4281  2.8943 -0.9387
    4CHL1    C5  230   1.846   6.731   9.849  0.0204  0.0415 -0.2811
    4CHL1    C6  231   1.773   6.843   9.871  0.2894 -0.0722 -0.4041
    4CHL1    H6  232   1.772   6.892   9.970 -0.3892 -1.7962  0.4892
    4CHL1    C7  233   1.696   6.913   9.758  0.4054  0.0834 -0.3101
    4CHL1   H7A  234   1.594   6.952   9.780 -1.8357 -4.6702 -0.8051
    4CHL1   H7B  235   1.757   6.993   9.710 -0.9074  0.0706 -2.1288
    4CHL1    C8  236   1.667   6.821   9.636  0.0900  0.5643  0.2141
    4CHL1    H8  237   1.588   6.747   9.660 -0.7022  1.0759 -0.7387
    4CHL1   C14  238   1.626   6.910   9.516 -0.0045 -0.1342 -0.3732
    4CHL1   H14  239   1.720   6.966   9.496 -0.3127  1.0905  1.3843
    4CHL1   C15  240   1.519   7.019   9.534  1.1158 -0.5045  0.8486
    4CHL1  H15A  241   1.438   6.981   9.599  0.3553  1.6184  1.2081
    4CHL1  H15B  242   1.558   7.110   9.585 -1.4320  0.8229  0.5858
    4CHL1   C16  243   1.468   7.039   9.389  0.2129 -0.5029 -0.7803
    4CHL1  H16A  244   1.366   6.997   9.399  0.3765 -0.6676  0.3992
    4CHL1  H16B  245   1.469   7.144   9.354 -0.4430 -0.8780 -1.9537
    4CHL1   C17  246   1.554   6.952   9.297  0.4724  0.2652  0.3449
    4CHL1   H17  247   1.644   7.015   9.279 -0.1554  0.6347 -1.7238
    4CHL1   C13  248   1.599   6.836   9.389  0.2284 -0.0556  0.4797
    4CHL1   C18  249   1.485   6.726   9.402 -0.9163  0.4748  0.5744
    4CHL1  H18A  250   1.516   6.637   9.460  1.6960 -0.2382 -1.6906
    4CHL1  H18B  251   1.395   6.769   9.451 -0.5815  1.5765  0.2614
    4CHL1  H18C  252   1.464   6.678   9.304  0.2428  2.4360 -0.7042
    4CHL1   C12  253   1.732   6.773   9.343 -0.5036 -0.0926  0.2674
    4CHL1  H12A  254   1.734   6.716   9.247  2.6650  0.5969 -0.1975
    4CHL1  H12B  255   1.801   6.857   9.320  1.0444 -0.8699  1.8585
    4CHL1   C11  256   1.788   6.681   9.456  0.6583  0.2098  0.3174
    4CHL1  H11A  257   1.718   6.595   9.463  1.7234 -0.5445  2.3290
    4CHL1  H11B  258   1.884   6.639   9.420 -0.1231 -0.4757 -1.0793
    4CHL1    C9  259   1.794   6.748   9.595 -0.7480  0.3639  0.1873
    4CHL1    H9  260   1.871   6.827   9.579  0.5833 -0.6521  1.3925
    4CHL1   C10  261   1.867   6.664   9.713 -0.1127 -0.7506  0.2313
    4CHL1   C19  262   1.786   6.528   9.715 -0.0190  0.1525 -0.0619
    4CHL1  H19A  263   1.844   6.461   9.784  1.5289 -0.0570 -1.5019
    4CHL1  H19B  264   1.681   6.543   9.749  0.0340  1.3690 -0.4062
    4CHL1  H19C  265   1.783   6.481   9.615 -2.4827 -0.0430  0.0643
    4CHL1    C1  266   2.022   6.643   9.690  0.0958  0.3984  0.8174
    4CHL1   H1A  267   2.031   6.566   9.610  5.6611  1.9739 -0.5173
    4CHL1   H1B  268   2.073   6.728   9.641 -0.4726 -0.1414 -0.7478
    4CHL1    C2  269   2.101   6.578   9.798  0.2321 -0.1180  0.2610
    4CHL1   H2A  270   2.212   6.567   9.798  0.6663  2.8897  2.2488
    4CHL1   H2B  271   2.050   6.480   9.807 -0.2543  0.0857 -0.2186
    4CHL1   C20  272   1.488   6.907   9.159 -0.7376 -0.7114  0.2057
    4CHL1   H20  273   1.533   6.806   9.150  1.4636 -0.0149  2.2754
    4CHL1   C21  274   1.538   6.999   9.042  0.2968  0.0755  0.2537
    4CHL1  H21A  275   1.483   7.095   9.031 -1.2103 -1.0692 -4.4116
    4CHL1  H21B  276   1.510   6.950   8.946  0.2355  0.3164  0.1491
    4CHL1  H21C  277   1.646   7.021   9.050 -0.0701  2.2677 -0.3284
    4CHL1   C22  278   1.335   6.882   9.153  0.2560 -0.4175  0.3850
    4CHL1  H22A  279   1.305   6.805   9.227  2.5034 -2.4848 -0.6995
    4CHL1  H22B  280   1.282   6.978   9.172 -0.5440 -0.6422 -0.6373
    4CHL1   C23  281   1.301   6.830   9.010  0.5144 -1.0895 -0.4251
    4CHL1  H23A  282   1.274   6.908   8.936 -1.1517 -2.2006 -1.0464
    4CHL1  H23B  283   1.376   6.763   8.964  0.4616 -1.3454 -0.1422
    4CHL1   C24  284   1.162   6.758   9.020 -0.8287  0.8564 -0.2308
    4CHL1  H24A  285   1.176   6.666   9.081  1.0053  1.7229  0.7254
    4CHL1  H24B  286   1.101   6.826   9.083 -1.0946 -0.9870  1.6390
    4CHL1   C25  287   1.099   6.725   8.882  0.8774 -0.2715  0.7291
    4CHL1   H25  288   1.167   6.682   8.806  0.0073  1.6877 -1.2522
    4CHL1   C26  289   0.981   6.629   8.900 -0.7624  0.0617  0.7062
    4CHL1  H26A  290   0.913   6.670   8.977  2.1959  1.4349  2.7901
    4CHL1  H26B  291   0.918   6.628   8.809  2.1261  0.1377 -1.4396
    4CHL1  H26C  292   1.026   6.529   8.922 -0.2760  0.3560  1.0681
    4CHL1   C27  293   1.045   6.855   8.814 -0.2605 -0.0821 -0.2800
    4CHL1  H27A  294   1.128   6.920   8.780  0.1537 -0.4186  0.0693
    4CHL1  H27B  295   0.979   6.834   8.728 -0.6749  0.6018 -0.1303
    4CHL1  H27C  296   0.984   6.911   8.887 -0.3423 -0.3014 -0.1793
    5CHL1    C3  297   0.450   3.712  10.152 -0.1863  0.2406 -0.9833
    5CHL1    H3  298   0.498   3.613  10.141 -0.4982 -0.3683  2.1113
    5CHL1    O3  299   0.457   3.737  10.295 -0.3655  0.6064 -0.1980
    5CHL1   H3'  300   0.550   3.723  10.315 -0.8558  0.8536  2.8283
    5CHL1    C4  301   0.507   3.826  10.078 -0.5993  0.1137  0.3150
    5CHL1   H4A  302   0.470   3.921  10.122 -1.7370  0.6042 -1.5824
    5CHL1   H4B  303   0.616   3.811  10.095 -0.4563 -0.3650 -0.8789
    5CHL1    C5  304   0.479   3.822   9.932 -0.2569 -0.9567  0.4256
    5CHL1    C6  305   0.586   3.819   9.841  0.4807 -1.0072 -0.1412
    5CHL1    H6  306   0.692   3.813   9.867  1.4138 -0.4313 -3.3544
    5CHL1    C7  307   0.555   3.830   9.693 -0.5217  0.4843 -0.1349
    5CHL1   H7A  308   0.622   3.903   9.642  1.9876 -1.1382  0.6778
    5CHL1   H7B  309   0.588   3.735   9.645  1.5195  1.3038 -0.4882
    5CHL1    C8  310   0.411   3.851   9.647  0.1729  0.4855  0.5178
    5CHL1    H8  311   0.384   3.959   9.655 -0.9498  0.2864 -0.2962
    5CHL1   C14  312   0.390   3.805   9.510  0.0024 -0.5820 -1.0164
    5CHL1   H14  313   0.426   3.700   9.521  0.2449 -0.2248  2.9146
    5CHL1   C15  314   0.474   3.874   9.401 -0.4534  0.7064  0.8005
    5CHL1  H15A  315   0.458   3.983   9.411 -0.8272  1.0747 -2.6037
    5CHL1  H15B  316   0.581   3.847   9.412 -0.1192  2.4371  2.2942
    5CHL1   C16  317   0.410   3.820   9.271  1.0490 -0.0907  0.0333
    5CHL1  H16A  318   0.398   3.895   9.190  2.9841 -2.6243 -2.8519
    5CHL1  H16B  319   0.478   3.740   9.235  0.2897 -0.0951 -1.4537
    5CHL1   C17  320   0.276   3.742   9.314 -0.3406 -0.6793  0.0045
    5CHL1   H17  321   0.311   3.637   9.321  0.0062 -0.9597 -3.8378
    5CHL1   C13  322   0.243   3.799   9.457 -0.0081  0.4989 -0.3785
    5CHL1   C18  323   0.177   3.932   9.449 -0.8890 -0.4129  0.1272
    5CHL1  H18A  324   0.168   3.985   9.546  1.5515  0.4158 -0.0078
    5CHL1  H18B  325   0.226   4.001   9.377 -1.8282  0.0006 -0.1219
    5CHL1  H18C  326   0.077   3.928   9.402 -1.3979  1.6493  0.9531
    5CHL1   C12  327   0.169   3.701   9.553  0.5935 -0.1398  0.0875
    5CHL1  H12A  328   0.070   3.685   9.505  0.2834 -3.4062  1.5091
    5CHL1  H12B  329   0.219   3.603   9.540 -0.6386 -0.5115 -2.6082
    5CHL1   C11  330   0.173   3.752   9.693 -0.1035 -0.4018  0.0787
    5CHL1  H11A  331   0.117   3.848   9.696 -1.4740 -1.1477 -0.8088
    5CHL1  H11B  332   0.119   3.681   9.759  1.5894 -0.5218  1.4156
    5CHL1    C9  333   0.320   3.768   9.746 -0.8347  0.0304  0.2560
    5CHL1    H9  334   0.365   3.666   9.742 -1.6363 -0.5046  2.9330
    5CHL1   C10  335   0.327   3.814   9.889 -0.4420 -0.0223 -0.5258
    5CHL1   C19  336   0.248   3.946   9.910 -0.4411  0.0662 -0.5571
    5CHL1  H19A  337   0.138   3.939   9.900 -0.4581 -2.0939  0.5733
    5CHL1  H19B  338   0.255   3.978  10.016  0.6044 -0.0082 -0.5941
    5CHL1  H19C  339   0.285   4.023   9.839  1.4526  0.0737  0.3794
    5CHL1    C1  340   0.271   3.697   9.978 -0.2380 -0.0755 -0.2754
    5CHL1   H1A  341   0.161   3.685   9.968 -0.5169  0.5238  1.6766
    5CHL1   H1B  342   0.312   3.598   9.950 -2.2299 -0.4946 -1.9689
    5CHL1    C2  343   0.302   3.697  10.132  0.3663 -0.3617  0.0478
    5CHL1   H2A  344   0.261   3.607  10.182 -0.6025  1.4906  2.8252
    5CHL1   H2B  345   0.243   3.780  10.177 -1.7363 -0.5704 -2.1281
    5CHL1   C20  346   0.162   3.734   9.208  0.5495 -0.0645  0.1282
    5CHL1   H20  347   0.071   3.695   9.257  0.0708 -0.5983 -1.1288
    5CHL1   C21  348   0.215   3.635   9.101  0.0455  0.2247 -0.4593
    5CHL1  H21A  349   0.165   3.640   9.002 -1.3703 -0.6590  0.1738
    5CHL1  H21B  350   0.207   3.528   9.130 -2.2548  0.4672  0.0478
    5CHL1  H21C  351   0.323   3.656   9.089 -0.0399 -0.1032 -2.1679
    5CHL1   C22  352   0.122   3.869   9.147  0.3723  0.9199 -0.5883
    5CHL1  H22A  353   0.099   3.950   9.220  1.1774  0.1167  0.5843
    5CHL1  H22B  354   0.206   3.918   9.091  0.3511  2.4615  0.6575
    5CHL1   C23  355  -0.009   3.873   9.075 -0.4199 -0.8065  0.6998
    5CHL1  H23A  356  -0.097   3.836   9.132 -0.3534 -0.5003  0.9956
    5CHL1  H23B  357  -0.025   3.981   9.058 -0.1579 -0.8372  0.2173
    5CHL1   C24  358  -0.013   3.814   8.936 -0.9720  0.1206  0.8071
    5CHL1  H24A  359   0.068   3.849   8.869 -0.5387 -0.2834  1.1159
    5CHL1  H24B  360  -0.003   3.705   8.953  0.9238  0.0216 -0.5624
    5CHL1   C25  361  -0.151   3.827   8.867 -0.0754  1.3815  0.2025
    5CHL1   H25  362  -0.228   3.839   8.947 -1.2856 -3.3357  0.0204
    5CHL1   C26  363  -0.160   3.949   8.778 -0.1786  0.6326  0.2419
    5CHL1  H26A  364  -0.111   3.918   8.683  1.2573  1.7495  0.5884
    5CHL1  H26B  365  -0.267   3.970   8.757 -0.6979 -0.1120  1.9317
    5CHL1  H26C  366  -0.113   4.038   8.825 -0.3600  0.5661  0.5483
    5CHL1   C27  367  -0.191   3.690   8.804 -0.1843 -0.2578  0.5839
    5CHL1  H27A  368  -0.181   3.611   8.880  1.4461 -2.2074 -1.5174
    5CHL1  H27B  369  -0.296   3.686   8.766 -0.1235 -0.5436  0.4394
    5CHL1  H27C  370  -0.129   3.680   8.712 -1.0958 -1.9202  0.1146
    6CHL1    C3  371   6.559   1.472  10.173 -0.2994  0.4149  0.5022
    6CHL1    H3  372   6.610   1.379  10.138 -0.6601  0.8297 -1.2505
    6CHL1    O3  373   6.545   1.465  10.311  0.1834 -1.2768  0.2657
    6CHL1   H3'  374   6.526   1.555  10.338 -2.9176 -1.6349 -0.3787
    6CHL1    C4  375   6.644   1.595  10.131  0.0456  0.0558  0.7653
    6CHL1   H4A  376   6.604   1.682  10.188  0.9547 -1.3907  3.8276
    6CHL1   H4B  377   6.743   1.577  10.178  1.6181 -0.6740 -2.5695
    6CHL1    C5  378   6.648   1.626   9.984 -0.3828  0.1761  0.9083
    6CHL1    C6  379   6.770   1.652   9.926  0.4325  0.0240 -0.4116
    6CHL1    H6  380   6.865   1.639   9.979  0.7463 -0.3253 -1.0426
    6CHL1    C7  381   6.790   1.670   9.775 -0.0558  0.2581 -0.3200
    6CHL1   H7A  382   6.863   1.754   9.765  1.6767 -0.9477  1.4650
    6CHL1   H7B  383   6.833   1.579   9.728  0.2377  1.2638 -2.0992
    6CHL1    C8  384   6.657   1.696   9.707  1.0005  0.3703  0.3451
    6CHL1    H8  385   6.624   1.797   9.739 -0.8072  0.0678 -0.4274
    6CHL1   C14  386   6.667   1.680   9.551  0.1552 -0.1769  0.5917
    6CHL1   H14  387   6.695   1.574   9.532  0.9687  0.3729 -1.4140
    6CHL1   C15  388   6.773   1.761   9.473 -0.7680  0.0717 -0.2880
    6CHL1  H15A  389   6.769   1.866   9.508  0.9100  0.3696 -0.8919
    6CHL1  H15B  390   6.876   1.718   9.473 -0.3048  1.0994 -1.9420
    6CHL1   C16  391   6.718   1.746   9.332 -0.2245 -0.5018  0.1343
    6CHL1  H16A  392   6.716   1.848   9.288 -2.2900 -0.4304  0.2663
    6CHL1  H16B  393   6.787   1.692   9.264  0.5140  0.2230  0.2886
    6CHL1   C17  394   6.577   1.676   9.322 -0.2400 -0.3858  0.0458
    6CHL1   H17  395   6.601   1.569   9.305 -2.3897 -1.1150  1.1922
    6CHL1   C13  396   6.531   1.691   9.472  1.1865 -0.0536 -0.2787
    6CHL1   C18  397   6.469   1.831   9.468 -0.0379 -0.3511 -0.3853
    6CHL1  H18A  398   6.464   1.868   9.573 -0.0235  0.1257 -0.5528
    6CHL1  H18B  399   6.534   1.907   9.419  0.8879 -0.1963  1.0129
    6CHL1  H18C  400   6.369   1.839   9.421 -0.3099 -2.2595 -0.2054
    6CHL1   C12  401   6.429   1.587   9.517  0.6683 -0.0184 -0.9525
    6CHL1  H12A  402   6.333   1.589   9.461 -1.5346  0.3631  2.5450
    6CHL1  H12B  403   6.486   1.493   9.499  3.2181  1.3100 -0.2838
    6CHL1   C11  404   6.416   1.599   9.664  0.5093  0.2508  0.3300
    6CHL1  H11A  405   6.351   1.687   9.682 -0.2196 -0.0550 -0.6915
    6CHL1  H11B  406   6.359   1.511   9.701  0.0998 -0.5513 -2.0694
    6CHL1    C9  407   6.542   1.598   9.756  0.7937  0.8616  0.0354
    6CHL1    H9  408   6.582   1.495   9.749  0.8794  1.0385 -3.4330
    6CHL1   C10  409   6.517   1.610   9.904 -0.7699 -0.6271  0.0377
    6CHL1   C19  410   6.419   1.737   9.927  0.2323  0.1625 -0.0974
    6CHL1  H19A  411   6.317   1.723   9.887 -0.3378  0.1104  1.3274
    6CHL1  H19B  412   6.401   1.749  10.036  0.4277 -0.3279 -0.0073
    6CHL1  H19C  413   6.464   1.833   9.895  1.3613 -0.2306  0.2224
    6CHL1    C1  414   6.444   1.486   9.954 -0.5430  0.0265 -0.3761
    6CHL1   H1A  415   6.338   1.473   9.923 -0.9291 -2.0766  1.6255
    6CHL1   H1B  416   6.498   1.393   9.927 -1.2763 -0.8648  1.0869
    6CHL1    C2  417   6.423   1.479  10.111  0.4902 -0.1722  0.5080
    6CHL1   H2A  418   6.355   1.396  10.140  1.4789 -0.4790  2.1025
    6CHL1   H2B  419   6.381   1.577  10.141  1.9792  0.5627  0.3325
    6CHL1   C20  420   6.488   1.712   9.199  0.3578  0.0243 -0.1829
    6CHL1   H20  421   6.475   1.823   9.197 -0.9747 -0.1219 -0.2711
    6CHL1   C21  422   6.350   1.644   9.201  0.3331  0.2849 -0.0328
    6CHL1  H21A  423   6.295   1.674   9.292  2.3689 -0.8941  1.6865
    6CHL1  H21B  424   6.366   1.534   9.201 -5.3846 -0.8599 -0.2404
    6CHL1  H21C  425   6.298   1.685   9.112 -1.4792  2.9648  2.0874
    6CHL1   C22  426   6.570   1.691   9.068  0.0350  0.7467 -0.1257
    6CHL1  H22A  427   6.674   1.729   9.075  0.9207 -0.7614 -3.3564
    6CHL1  H22B  428   6.582   1.582   9.054  0.4083  0.6563  0.8009
    6CHL1   C23  429   6.505   1.774   8.953  0.1644  0.1667  0.0008
    6CHL1  H23A  430   6.412   1.724   8.920  0.0996 -0.1319  0.6119
    6CHL1  H23B  431   6.470   1.873   8.989 -0.9835 -0.4008  0.4781
    6CHL1   C24  432   6.593   1.793   8.827  0.3009 -0.3717 -0.4693
    6CHL1  H24A  433   6.696   1.827   8.851 -0.4270  0.7960  1.1834
    6CHL1  H24B  434   6.612   1.700   8.769  2.3876 -1.4905  1.8007
    6CHL1   C25  435   6.540   1.890   8.726  0.2516  0.2584 -0.5414
    6CHL1   H25  436   6.510   1.990   8.764  1.7719  0.5789 -0.1397
    6CHL1   C26  437   6.641   1.927   8.617  0.6628 -0.3472  0.1974
    6CHL1  H26A  438   6.585   1.989   8.543  2.2137  0.4670 -0.3456
    6CHL1  H26B  439   6.721   1.991   8.659 -2.3024  3.2116  0.9502
    6CHL1  H26C  440   6.686   1.844   8.557 -1.3613 -0.1056 -1.8116
    6CHL1   C27  441   6.406   1.847   8.680 -0.1140  0.2383  0.6581
    6CHL1  H27A  442   6.341   1.844   8.770 -0.2519  2.2590  0.6674
    6CHL1  H27B  443   6.366   1.920   8.606  0.3720  1.8707  1.9422
    6CHL1  H27C  444   6.418   1.752   8.623  1.2558  1.2933 -0.9415
    7CHL1    C3  445   2.805   4.689   9.893  0.1404 -0.2455 -0.3840
    7CHL1    H3  446   2.916   4.686   9.899  0.0910 -3.0989  0.4293
    7CHL1    O3  447   2.757   4.664  10.025  0.3366  0.2712  0.5378
    7CHL1   H3'  448   2.714   4.746  10.049 -1.5353 -0.6389  0.4564
    7CHL1    C4  449   2.744   4.827   9.846 -0.7398 -0.2201  0.4762
    7CHL1   H4A  450   2.634   4.826   9.863 -0.9185 -0.2301 -0.5959
    7CHL1   H4B  451   2.793   4.900   9.915  2.0005 -1.5336  0.0369
    7CHL1    C5  452   2.760   4.854   9.702 -0.8819 -0.1133  0.6393
    7CHL1    C6  453   2.825   4.964   9.665  0.0918  0.2343  0.1444
    7CHL1    H6  454   2.856   5.034   9.744  2.0266 -0.3802 -0.0206
    7CHL1    C7  455   2.867   4.999   9.525  0.0706  0.6462  0.1028
    7CHL1   H7A  456   2.844   5.107   9.513 -0.7619  0.6646  1.5282
    7CHL1   H7B  457   2.976   4.987   9.506  0.2168  2.1594 -0.1639
    7CHL1    C8  458   2.778   4.917   9.424 -0.4560  0.2894  0.2543
    7CHL1    H8  459   2.673   4.955   9.426 -0.1492  1.1407  0.4594
    7CHL1   C14  460   2.845   4.919   9.289 -0.2017  0.3937  0.2683
    7CHL1   H14  461   2.945   4.874   9.304  0.5825  1.3596 -1.7795
    7CHL1   C15  462   2.887   5.049   9.225 -0.2683 -0.6145  0.1683
    7CHL1  H15A  463   2.805   5.121   9.249 -1.9846 -2.3534 -0.1996
    7CHL1  H15B  464   2.985   5.078   9.268 -0.3347 -0.4425  0.2037
    7CHL1   C16  465   2.893   5.028   9.071  0.0382  0.1398 -0.5634
    7CHL1  H16A  466   2.801   5.071   9.025  0.7478  0.6892 -1.4924
    7CHL1  H16B  467   2.984   5.071   9.024  1.6536 -1.2651  1.1485
    7CHL1   C17  468   2.876   4.877   9.055  0.2416 -0.1614 -0.2737
    7CHL1   H17  469   2.976   4.843   9.087 -0.0589 -0.3343  0.5111
    7CHL1   C13  470   2.792   4.835   9.174 -0.0395 -0.0228 -0.6404
    7CHL1   C18  471   2.642   4.883   9.144 -0.5173  0.0796 -0.1429
    7CHL1  H18A  472   2.583   4.899   9.237 -2.4317 -1.1121 -1.1024
    7CHL1  H18B  473   2.640   4.979   9.088 -1.2225  0.3516  0.3379
    7CHL1  H18C  474   2.574   4.819   9.084 -1.7458 -0.0402  1.3098
    7CHL1   C12  475   2.801   4.687   9.220  0.1695 -0.5613  0.2783
    7CHL1  H12A  476   2.741   4.625   9.150 -0.0731 -0.1273  0.1034
    7CHL1  H12B  477   2.908   4.655   9.220  0.1960 -0.6507  2.2926
    7CHL1   C11  478   2.729   4.673   9.357  0.5638 -0.2393  0.3482
    7CHL1  H11A  479   2.621   4.699   9.353  0.5633  0.2078  2.4604
    7CHL1  H11B  480   2.743   4.567   9.389  2.2405  0.4271  2.0034
    7CHL1    C9  481   2.792   4.763   9.466 -0.0538  0.7843  0.5447
    7CHL1    H9  482   2.897   4.726   9.475 -0.6951 -0.6254  3.3802
    7CHL1   C10  483   2.730   4.742   9.609  1.0359  1.0643  0.2973
    7CHL1   C19  484   2.576   4.736   9.598 -0.8888  0.0603 -0.7795
    7CHL1  H19A  485   2.510   4.746   9.687 -1.1689 -0.3052 -0.9426
    7CHL1  H19B  486   2.552   4.825   9.536  0.6609  2.8654  2.3186
    7CHL1  H19C  487   2.526   4.650   9.550 -0.6764 -1.7236  1.9521
    7CHL1    C1  488   2.787   4.603   9.656  0.4138  0.0922  0.1217
    7CHL1   H1A  489   2.749   4.518   9.597  2.4319 -1.2903  0.7039
    7CHL1   H1B  490   2.897   4.600   9.642  0.3027  0.7086 -0.9948
    7CHL1    C2  491   2.752   4.578   9.799  0.0625  0.4947 -0.5879
    7CHL1   H2A  492   2.787   4.475   9.821  1.9868  0.8246 -1.9191
    7CHL1   H2B  493   2.643   4.591   9.821  0.2612 -1.1102  1.6333
    7CHL1   C20  494   2.828   4.813   8.927  0.4336 -0.4199  0.1799
    7CHL1   H20  495   2.735   4.755   8.945 -0.2979  0.4881 -0.5783
    7CHL1   C21  496   2.945   4.713   8.899  0.3930 -0.9669 -0.5553
    7CHL1  H21A  497   3.042   4.762   8.880 -0.3120  1.0405  0.6751
    7CHL1  H21B  498   2.909   4.650   8.814 -2.4342  1.5784 -1.4360
    7CHL1  H21C  499   2.956   4.648   8.989  1.4521 -2.0851 -1.4531
    7CHL1   C22  500   2.805   4.904   8.810  0.4125 -0.2420 -0.2370
    7CHL1  H22A  501   2.761   5.002   8.836 -0.6301 -0.7056 -0.2168
    7CHL1  H22B  502   2.903   4.932   8.765  0.4381 -0.2845 -0.2080
    7CHL1   C23  503   2.730   4.839   8.694  0.4632 -0.1621  0.5744
    7CHL1  H23A  504   2.766   4.737   8.667 -0.5425 -0.2258 -0.5993
    7CHL1  H23B  505   2.624   4.821   8.720 -0.7395  2.2824 -2.0790
    7CHL1   C24  506   2.720   4.938   8.579  0.0723 -0.8938  1.0859
    7CHL1  H24A  507   2.664   5.027   8.616  1.0715 -0.3830  1.4045
    7CHL1  H24B  508   2.820   4.975   8.551 -0.6374  2.0697  2.1168
    7CHL1   C25  509   2.653   4.878   8.450  0.1533  0.7704  0.0368
    7CHL1   H25  510   2.658   4.956   8.371  2.9502 -0.5575 -1.2539
    7CHL1   C26  511   2.730   4.762   8.395 -0.7385  0.4318  0.2166
    7CHL1  H26A  512   2.835   4.789   8.374 -1.1927  0.2307 -2.8672
    7CHL1  H26B  513   2.727   4.669   8.456 -1.9369 -0.8200 -1.6086
    7CHL1  H26C  514   2.699   4.723   8.295  2.9551 -1.0824 -0.4934
    7CHL1   C27  515   2.503   4.840   8.471 -0.2820  0.4072  0.1052
    7CHL1  H27A  516   2.490   4.792   8.570  1.5308 -0.4479 -0.0447
    7CHL1  H27B  517   2.434   4.928   8.471  0.5950  1.1192  1.0487
    7CHL1  H27C  518   2.465   4.763   8.401 -1.5180  0.3195  0.8405
    8CHL1    C3  519   2.806   5.543   9.815  0.1757  0.6014  1.2429
    8CHL1    H3  520   2.767   5.439   9.812 -0.0536  0.6947  0.9753
    8CHL1    O3  521   2.841   5.568   9.942 -0.7087 -0.3008 -0.4134
    8CHL1   H3'  522   2.862   5.661   9.948  2.2577 -0.9270  0.4145
    8CHL1    C4  523   2.926   5.537   9.725 -0.1903 -0.5373 -1.0891
    8CHL1   H4A  524   2.995   5.623   9.741 -0.1008 -0.8694  0.4644
    8CHL1   H4B  525   2.982   5.452   9.769 -1.9334 -1.7263 -1.0566
    8CHL1    C5  526   2.888   5.520   9.580  0.3448 -0.2999 -0.2840
    8CHL1    C6  527   2.949   5.428   9.505  0.2633 -0.1542  0.8130
    8CHL1    H6  528   3.026   5.364   9.550  0.7770 -0.1372 -0.0243
    8CHL1    C7  529   2.927   5.400   9.352  0.6157 -0.6388  0.2508
    8CHL1   H7A  530   3.031   5.379   9.318  0.5364 -0.0618 -0.3739
    8CHL1   H7B  531   2.868   5.308   9.335 -0.9033  0.1824  0.8543
    8CHL1    C8  532   2.849   5.518   9.285 -0.1986  0.2100 -0.3119
    8CHL1    H8  533   2.924   5.600   9.276  0.0230 -0.0950 -1.4157
    8CHL1   C14  534   2.802   5.481   9.148 -0.5711  1.0674  0.1379
    8CHL1   H14  535   2.729   5.399   9.167  1.0336 -0.2163  0.9591
    8CHL1   C15  536   2.892   5.421   9.039 -0.6724 -0.1588 -0.6696
    8CHL1  H15A  537   2.993   5.466   9.034 -1.1124  0.7973 -1.3729
    8CHL1  H15B  538   2.907   5.311   9.046 -1.1416 -0.3572 -2.3013
    8CHL1   C16  539   2.820   5.432   8.906 -0.3777 -0.4090 -0.1270
    8CHL1  H16A  540   2.894   5.485   8.843  1.1916  0.0026  1.9746
    8CHL1  H16B  541   2.787   5.333   8.869  0.2025 -0.2405 -1.1141
    8CHL1   C17  542   2.692   5.523   8.939  0.4967  0.1580 -0.3456
    8CHL1   H17  543   2.622   5.446   8.977 -1.8583  2.0557 -0.6132
    8CHL1   C13  544   2.722   5.592   9.077  0.1963  0.7832 -0.1277
    8CHL1   C18  545   2.814   5.712   9.051  0.2991  0.1225 -0.2757
    8CHL1  H18A  546   2.868   5.743   9.142  0.0813 -1.1574  0.3228
    8CHL1  H18B  547   2.889   5.675   8.978 -0.5315  0.0240 -1.1044
    8CHL1  H18C  548   2.758   5.801   9.015  1.3088  0.7643 -0.2826
    8CHL1   C12  549   2.605   5.630   9.168 -0.3499  0.1956  0.3636
    8CHL1  H12A  550   2.548   5.718   9.129  1.5046  1.5449  0.5428
    8CHL1  H12B  551   2.538   5.542   9.177  0.0861 -0.1150  0.5827
    8CHL1   C11  552   2.648   5.678   9.305 -0.0768  1.2589 -0.0701
    8CHL1  H11A  553   2.701   5.775   9.295  0.1538  1.1622  0.2042
    8CHL1  H11B  554   2.557   5.705   9.362 -2.2020 -0.0546 -2.5975
    8CHL1    C9  555   2.736   5.569   9.377  0.2214  0.0809  0.4505
    8CHL1    H9  556   2.660   5.489   9.389 -1.5629  1.7318  0.6401
    8CHL1   C10  557   2.778   5.614   9.519  0.5060 -0.0020 -0.1400
    8CHL1   C19  558   2.836   5.756   9.511 -0.5512 -0.1137 -0.4736
    8CHL1  H19A  559   2.771   5.835   9.467  0.6612  1.4438  0.4054
    8CHL1  H19B  560   2.870   5.788   9.612  0.1704 -3.2734  0.3789
    8CHL1  H19C  561   2.924   5.759   9.444  1.3509 -1.3379  1.8380
    8CHL1    C1  562   2.659   5.622   9.625  0.1500  0.1168 -0.0332
    8CHL1   H1A  563   2.597   5.708   9.590 -0.4833 -0.1427  0.4180
    8CHL1   H1B  564   2.587   5.539   9.612  2.5255 -1.8279 -1.5453
    8CHL1    C2  565   2.701   5.644   9.774  0.4236 -0.4243  0.7041
    8CHL1   H2A  566   2.606   5.627   9.828 -0.7007 -0.6740 -1.2604
    8CHL1   H2B  567   2.735   5.749   9.783  0.6307 -0.4901  0.6964
    8CHL1   C20  568   2.625   5.609   8.831 -0.3599 -0.4191  0.2531
    8CHL1   H20  569   2.667   5.711   8.846  1.4436 -1.6011  4.8160
    8CHL1   C21  570   2.477   5.617   8.846  0.4415 -0.0751  0.1775
    8CHL1  H21A  571   2.458   5.618   8.956  2.3932  1.7265  0.5708
    8CHL1  H21B  572   2.420   5.535   8.798 -2.3263  0.7600  1.8025
    8CHL1  H21C  573   2.441   5.718   8.816  0.1998  0.4024  1.9207
    8CHL1   C22  574   2.657   5.552   8.691 -0.3731  1.1786  0.2518
    8CHL1  H22A  575   2.765   5.578   8.681 -0.4442  1.8615  1.1181
    8CHL1  H22B  576   2.652   5.441   8.700  1.7383  1.0423  0.4303
    8CHL1   C23  577   2.588   5.603   8.569 -0.1573 -0.0811 -0.3994
    8CHL1  H23A  578   2.489   5.554   8.560 -0.2380  0.0314 -0.1160
    8CHL1  H23B  579   2.571   5.712   8.577 -0.2845  0.1528 -3.0450
    8CHL1   C24  580   2.673   5.588   8.438 -0.2244 -0.0775 -0.2020
    8CHL1  H24A  581   2.756   5.663   8.440 -0.6656  0.4285  2.2665
    8CHL1  H24B  582   2.719   5.487   8.438 -3.1890 -1.5307 -1.2086
    8CHL1   C25  583   2.591   5.599   8.312  0.1065 -0.3047  0.8866
    8CHL1   H25  584   2.508   5.525   8.315  1.1506 -1.5450  0.1218
    8CHL1   C26  585   2.544   5.745   8.304  0.0820 -0.3463 -0.0583
    8CHL1  H26A  586   2.629   5.807   8.337 -1.0471  0.1722  2.0417
    8CHL1  H26B  587   2.516   5.769   8.199  2.7068  1.2412 -0.4790
    8CHL1  H26C  588   2.453   5.763   8.365  0.9727  1.6806  0.7567
    8CHL1   C27  589   2.680   5.570   8.186 -0.5212 -0.1639  0.7710
    8CHL1  H27A  590   2.770   5.635   8.185 -0.7317  0.1566 -1.2612
    8CHL1  H27B  591   2.708   5.463   8.188  0.0487 -0.0112  2.5294
    8CHL1  H27C  592   2.617   5.598   8.098  0.6597 -0.0320 -0.0554
    9CHL1    C3  593   5.552   2.241  10.321 -0.1637  0.8022  0.0047
    9CHL1    H3  594   5.465   2.174  10.305  1.3300 -1.0682 -0.7474
    9CHL1    O3  595   5.550   2.268  10.459 -0.0897 -0.0903 -0.9779
    9CHL1   H3'  596   5.559   2.363  10.466  3.4642 -0.1429 -2.7052
    9CHL1    C4  597   5.686   2.170  10.281  0.2706  0.2184  0.0316
    9CHL1   H4A  598   5.779   2.211  10.326  0.9281  0.5781 -1.6004
    9CHL1   H4B  599   5.676   2.068  10.324 -0.7679  0.6251  0.7979
    9CHL1    C5  600   5.695   2.158  10.130  0.7232  0.4962  1.0208
    9CHL1    C6  601   5.713   2.036  10.073  0.9017  0.6687 -0.7561
    9CHL1    H6  602   5.732   1.952  10.142 -1.2501  1.5040  0.9612
    9CHL1    C7  603   5.727   2.009   9.931  0.1740  0.3460  0.2069
    9CHL1   H7A  604   5.814   1.941   9.931  0.4561  0.4884  3.8193
    9CHL1   H7B  605   5.640   1.950   9.895  1.1590  0.7658 -3.1974
    9CHL1    C8  606   5.744   2.136   9.845 -0.4845 -0.1436  0.6707
    9CHL1    H8  607   5.850   2.169   9.850 -0.0101 -1.7317  1.7332
    9CHL1   C14  608   5.709   2.093   9.701 -0.0652 -0.1436  0.1791
    9CHL1   H14  609   5.606   2.051   9.696 -0.1039  0.0791 -2.3049
    9CHL1   C15  610   5.794   1.977   9.651 -0.1558  0.1279  0.7316
    9CHL1  H15A  611   5.903   1.989   9.664  0.1218  0.7769 -1.7153
    9CHL1  H15B  612   5.765   1.875   9.685  1.8649  0.4566  3.8772
    9CHL1   C16  613   5.780   1.993   9.494  0.7512  0.8751 -0.7270
    9CHL1  H16A  614   5.879   1.984   9.443  0.3644  0.2134 -1.3904
    9CHL1  H16B  615   5.708   1.912   9.468 -0.9608  2.1710 -0.1583
    9CHL1   C17  616   5.699   2.125   9.468 -0.5234  0.3088 -0.8420
    9CHL1   H17  617   5.591   2.098   9.470 -0.5082  0.2007 -1.5035
    9CHL1   C13  618   5.723   2.205   9.604  0.2138 -0.5375  0.2004
    9CHL1   C18  619   5.865   2.262   9.607 -0.1136 -0.6137 -0.3027
    9CHL1  H18A  620   5.945   2.193   9.573  0.8106  1.4650 -2.7010
    9CHL1  H18B  621   5.872   2.348   9.536 -1.5342  1.5412  1.9840
    9CHL1  H18C  622   5.886   2.319   9.700 -2.1342  0.3378 -0.3600
    9CHL1   C12  623   5.617   2.307   9.645 -0.0635  0.1236 -0.2276
    9CHL1  H12A  624   5.608   2.393   9.575  0.8234 -1.3358 -2.2778
    9CHL1  H12B  625   5.519   2.256   9.657 -0.1919  0.8489  2.3700
    9CHL1   C11  626   5.633   2.355   9.792  0.6677 -0.3447 -0.1471
    9CHL1  H11A  627   5.718   2.427   9.798  1.2802 -1.1049  0.3879
    9CHL1  H11B  628   5.545   2.420   9.810 -2.1589 -3.3765 -1.9254
    9CHL1    C9  629   5.642   2.245   9.895 -0.4829 -0.7729  0.2491
    9CHL1    H9  630   5.543   2.196   9.884 -0.4019 -0.8218 -0.3081
    9CHL1   C10  631   5.666   2.286  10.047  0.2750 -0.5393  0.6985
    9CHL1   C19  632   5.786   2.375  10.062 -0.0252  0.0370  0.2437
    9CHL1  H19A  633   5.878   2.323  10.025  0.7309  1.8014 -0.4462
    9CHL1  H19B  634   5.761   2.464  10.000 -0.5283 -0.7503 -0.7164
    9CHL1  H19C  635   5.801   2.407  10.167 -0.5676 -1.4770  0.8171
    9CHL1    C1  636   5.538   2.351  10.092  0.6402 -0.1116 -0.1934
    9CHL1   H1A  637   5.529   2.452  10.046  1.8743 -1.4850 -3.7668
    9CHL1   H1B  638   5.447   2.298  10.057 -0.5471  1.4802  0.2860
    9CHL1    C2  639   5.529   2.369  10.244  0.1597  0.5597  0.2360
    9CHL1   H2A  640   5.434   2.412  10.282  0.4927  0.5914  1.0497
    9CHL1   H2B  641   5.615   2.438  10.261  1.2295 -0.7570  0.4112
    9CHL1   C20  642   5.735   2.188   9.331  0.0581  0.1478 -0.3327
    9CHL1   H20  643   5.832   2.243   9.329 -0.7814  1.6501 -1.8109
    9CHL1   C21  644   5.624   2.294   9.297 -0.1329  0.1340  0.7014
    9CHL1  H21A  645   5.525   2.243   9.289  0.5062 -0.8679 -1.3672
    9CHL1  H21B  646   5.649   2.334   9.197  4.3739 -1.3154  1.0541
    9CHL1  H21C  647   5.621   2.378   9.370 -1.0316 -1.9933  3.3120
    9CHL1   C22  648   5.738   2.078   9.213  0.0488 -0.3841 -0.5410
    9CHL1  H22A  649   5.808   1.996   9.240  0.2571  0.9180  3.6862
    9CHL1  H22B  650   5.640   2.027   9.221  0.6154 -1.3147  1.2114
    9CHL1   C23  651   5.778   2.140   9.073  1.0630 -0.2047  0.0680
    9CHL1  H23A  652   5.682   2.181   9.035 -0.7660 -2.7971  1.5140
    9CHL1  H23B  653   5.851   2.222   9.089  0.0723  0.8513 -0.6528
    9CHL1   C24  654   5.843   2.041   8.975 -0.0022  0.6461 -0.6377
    9CHL1  H24A  655   5.913   1.982   9.039 -3.2582 -0.9710  1.7385
    9CHL1  H24B  656   5.754   1.977   8.954 -2.1465  3.4643 -0.6642
    9CHL1   C25  657   5.901   2.107   8.849 -0.1063  0.9680 -0.1493
    9CHL1   H25  658   6.000   2.144   8.883  1.7706 -3.7703  0.2964
    9CHL1   C26  659   5.955   1.994   8.767 -0.3774  0.1389  0.3441
    9CHL1  H26A  660   6.020   2.031   8.684 -0.5602  0.2672  0.2585
    9CHL1  H26B  661   6.021   1.928   8.828 -1.1953  0.0259  1.1108
    9CHL1  H26C  662   5.872   1.934   8.724 -1.0569  1.1306  0.2422
    9CHL1   C27  663   5.804   2.197   8.782 -0.0225 -0.1770  0.4522
    9CHL1  H27A  664   5.790   2.289   8.843  0.2824  1.2991 -1.5626
    9CHL1  H27B  665   5.841   2.241   8.686  0.3484  0.1347  0.7347
    9CHL1  H27C  666   5.708   2.143   8.768 -0.4934  0.9608 -0.9943
   10CHL1    C3  667   0.232   6.194   9.993 -0.1575  0.8400 -0.6735
   10CHL1    H3  668   0.337   6.158   9.984 -0.4966  0.3229 -3.2834
   10CHL1    O3  669   0.226   6.248  10.123  0.3915 -0.0013  0.3810
   10CHL1   H3'  670   0.148   6.303  10.126  0.2954 -0.0434 -0.9213
   10CHL1    C4  671   0.196   6.294   9.887 -0.3040 -0.6128 -0.2197
   10CHL1   H4A  672   0.098   6.345   9.900  0.1041 -0.0966  1.0244
   10CHL1   H4B  673   0.268   6.377   9.904 -0.8277 -0.1601 -0.1869
   10CHL1    C5  674   0.219   6.235   9.752 -0.5750 -0.0778  0.4841
   10CHL1    C6  675   0.303   6.293   9.663 -0.4243  0.5948 -0.1431
   10CHL1    H6  676   0.366   6.378   9.695  0.2938  0.1309 -0.3107
   10CHL1    C7  677   0.315   6.253   9.516 -0.2433  0.6665  0.0848
   10CHL1   H7A  678   0.302   6.351   9.466  3.3163  1.8892  1.2366
   10CHL1   H7B  679   0.418   6.217   9.497 -0.6731 -0.1966 -0.6691
   10CHL1    C8  680   0.222   6.134   9.470  0.2656 -0.4171 -0.2417
   10CHL1    H8  681   0.125   6.178   9.439  0.8787 -0.9722 -3.2669
   10CHL1   C14  682   0.276   6.061   9.352  0.3834  0.5212  0.6021
   10CHL1   H14  683   0.375   6.025   9.389 -0.4088 -1.0084  1.3246
   10CHL1   C15  684   0.295   6.138   9.217  0.1417  0.5359 -0.2035
   10CHL1  H15A  685   0.205   6.198   9.192  0.5932  2.2866  2.0437
   10CHL1  H15B  686   0.383   6.205   9.217  0.7793 -0.2878 -0.7791
   10CHL1   C16  687   0.329   6.031   9.108 -0.6787  0.6005  0.8771
   10CHL1  H16A  688   0.272   6.034   9.013 -0.5456 -0.3008  0.7589
   10CHL1  H16B  689   0.436   6.037   9.079 -0.6929 -0.5004  0.5773
   10CHL1   C17  690   0.293   5.900   9.181  0.1509  1.0101 -0.3877
   10CHL1   H17  691   0.388   5.849   9.206 -0.2969  0.3179 -0.0465
   10CHL1   C13  692   0.214   5.932   9.311  0.3182  0.0087  0.4680
   10CHL1   C18  693   0.061   5.966   9.272 -0.2727  0.7825 -0.0519
   10CHL1  H18A  694   0.003   6.018   9.351 -2.8595  2.0177 -2.5903
   10CHL1  H18B  695   0.054   6.035   9.185  0.7358 -0.7684 -1.4274
   10CHL1  H18C  696  -0.002   5.878   9.246  1.4489 -0.4991 -0.0932
   10CHL1   C12  697   0.223   5.839   9.431  0.0542  0.1145 -0.1671
   10CHL1  H12A  698   0.186   5.737   9.407  0.4640 -0.3894  1.2315
   10CHL1  H12B  699   0.324   5.812   9.468  0.3217 -0.2869 -1.1623
   10CHL1   C11  700   0.145   5.902   9.545  0.5913  0.6438 -0.3207
   10CHL1  H11A  701   0.036   5.903   9.522  0.7102  1.9683 -0.9208
   10CHL1  H11B  702   0.149   5.828   9.628 -0.4429 -0.4533 -1.1926
   10CHL1    C9  703   0.201   6.038   9.581  0.3145  0.2837  0.0590
   10CHL1    H9  704   0.306   6.019   9.610 -0.2580 -1.9843  0.9046
   10CHL1   C10  705   0.137   6.108   9.715 -0.6975  0.2107 -0.4042
   10CHL1   C19  706  -0.012   6.148   9.687 -0.5242  0.3195  0.7179
   10CHL1  H19A  707  -0.043   6.223   9.764 -1.6617  1.4284 -0.7554
   10CHL1  H19B  708  -0.028   6.199   9.589 -2.1574 -1.3493  0.0586
   10CHL1  H19C  709  -0.075   6.057   9.689  0.3922 -0.4314 -1.4543
   10CHL1    C1  710   0.144   6.011   9.833 -0.8151 -0.9106 -0.3555
   10CHL1   H1A  711   0.045   5.961   9.833 -1.0299 -0.4889 -0.6469
   10CHL1   H1B  712   0.220   5.933   9.814 -1.8579 -1.8252 -0.8148
   10CHL1    C2  713   0.151   6.065   9.979  0.3372 -0.1785  0.7846
   10CHL1   H2A  714   0.172   5.988  10.056 -0.0331  0.1561  1.2262
   10CHL1   H2B  715   0.049   6.093  10.014  0.1193 -3.6577  3.4445
   10CHL1   C20  716   0.229   5.801   9.071  0.2132  0.1750 -0.7673
   10CHL1   H20  717   0.138   5.849   9.028  0.6230 -0.7812 -2.7897
   10CHL1   C21  718   0.181   5.671   9.137 -0.1434  0.1563  0.5363
   10CHL1  H21A  719   0.125   5.607   9.065  0.1573  1.1842 -0.6388
   10CHL1  H21B  720   0.127   5.691   9.232 -1.5324 -1.7415  0.2113
   10CHL1  H21C  721   0.275   5.611   9.146 -0.1975 -0.2160 -1.0706
   10CHL1   C22  722   0.314   5.768   8.950  0.6821  0.0363 -0.0439
   10CHL1  H22A  723   0.367   5.858   8.911 -0.0948 -0.2965 -1.9537
   10CHL1  H22B  724   0.390   5.696   8.988 -0.3014 -1.4648 -0.8176
   10CHL1   C23  725   0.241   5.702   8.831 -0.2636 -0.4499 -0.8926
   10CHL1  H23A  726   0.238   5.592   8.841  2.5041 -0.6014 -0.7783
   10CHL1  H23B  727   0.136   5.737   8.835  0.3467  1.4486 -0.3123
   10CHL1   C24  728   0.314   5.726   8.696  0.1526 -0.0723  0.3756
   10CHL1  H24A  729   0.330   5.836   8.698 -2.1392  0.3173  2.5882
   10CHL1  H24B  730   0.421   5.695   8.700 -0.2298 -1.6258 -0.6519
   10CHL1   C25  731   0.228   5.683   8.574 -0.0029  0.5853  0.7109
   10CHL1   H25  732   0.123   5.720   8.570  0.4023  1.8078  1.0439
   10CHL1   C26  733   0.284   5.751   8.443 -0.5506  0.0989 -0.0816
   10CHL1  H26A  734   0.209   5.742   8.361 -0.5499  0.0161 -0.0726
   10CHL1  H26B  735   0.311   5.857   8.462 -0.5630 -0.1118  1.1709
   10CHL1  H26C  736   0.377   5.693   8.423 -0.9828 -2.0121  3.3565
   10CHL1   C27  737   0.224   5.527   8.553 -0.0302 -0.6358  0.1601
   10CHL1  H27A  738   0.323   5.485   8.528 -0.5248 -0.3995 -2.5434
   10CHL1  H27B  739   0.183   5.478   8.644 -0.3400  0.6147  0.7046
   10CHL1  H27C  740   0.178   5.492   8.458  1.3690  0.6978 -1.0511
   11CHL1    C3  741   0.895   4.069  10.057 -0.1142  0.4731 -0.4459
   11CHL1    H3  742   0.793   4.028  10.076 -1.5427  2.7149 -2.6195
   11CHL1    O3  743   0.941   4.106  10.190  0.3788 -0.1652  0.4497
   11CHL1   H3'  744   0.873   4.065  10.244  0.0772 -0.6440 -0.2752
   11CHL1    C4  745   0.991   3.960  10.009 -0.2955 -0.3150 -0.2320
   11CHL1   H4A  746   1.096   3.998  10.016  0.0294  0.5797 -5.4258
   11CHL1   H4B  747   0.993   3.873  10.078  0.5375 -0.2859 -0.2042
   11CHL1    C5  748   0.976   3.918   9.865 -0.6714 -0.6791  0.8021
   11CHL1    C6  749   0.958   3.789   9.828 -0.5157  0.0030 -0.5260
   11CHL1    H6  750   0.963   3.709   9.903 -0.6202 -0.9984 -1.5572
   11CHL1    C7  751   0.943   3.746   9.685  0.0677 -0.8707  0.8480
   11CHL1   H7A  752   1.012   3.663   9.659  2.1838  1.3042 -0.9521
   11CHL1   H7B  753   0.840   3.707   9.672  0.2884 -1.4851  0.9283
   11CHL1    C8  754   0.978   3.862   9.581 -0.6074 -0.2801 -0.4566
   11CHL1    H8  755   1.089   3.863   9.574 -0.6464 -2.2213 -2.3575
   11CHL1   C14  756   0.919   3.826   9.449  0.9576  0.3151 -1.0796
   11CHL1   H14  757   0.811   3.830   9.476  1.1536 -1.3739  0.1398
   11CHL1   C15  758   0.942   3.683   9.392  0.1758 -0.3301  0.0960
   11CHL1  H15A  759   1.044   3.643   9.408  0.0902 -1.6258 -2.1752
   11CHL1  H15B  760   0.873   3.614   9.445 -1.1775 -0.1000 -1.3142
   11CHL1   C16  761   0.909   3.696   9.244 -0.2604 -0.2467  0.1607
   11CHL1  H16A  762   0.974   3.648   9.168 -0.8181 -0.0671 -0.4342
   11CHL1  H16B  763   0.815   3.642   9.223 -0.5622 -0.3423  1.6623
   11CHL1   C17  764   0.882   3.847   9.213 -0.0531  0.4292  0.2058
   11CHL1   H17  765   0.774   3.871   9.212  0.4341  2.9208 -1.6159
   11CHL1   C13  766   0.945   3.927   9.330  0.8489  0.6026  0.6910
   11CHL1   C18  767   1.098   3.948   9.304 -0.1485  0.1214  0.0437
   11CHL1  H18A  768   1.152   3.989   9.392  0.9691 -1.3349  0.0903
   11CHL1  H18B  769   1.144   3.850   9.277  0.3872  0.2144  0.5950
   11CHL1  H18C  770   1.117   4.014   9.217 -0.3034 -1.0303 -0.8897
   11CHL1   C12  771   0.870   4.050   9.373  0.2708 -0.0750  0.9097
   11CHL1  H12A  772   0.884   4.128   9.295 -1.4703 -0.0552  0.5794
   11CHL1  H12B  773   0.759   4.044   9.378 -0.0100  1.7270 -1.3692
   11CHL1   C11  774   0.916   4.101   9.511 -0.3687  0.0414 -0.0103
   11CHL1  H11A  775   1.019   4.142   9.504 -0.4476  0.4157  0.9306
   11CHL1  H11B  776   0.853   4.191   9.528 -0.3803  0.3937 -1.7445
   11CHL1    C9  777   0.915   3.993   9.635 -0.1710  0.3087  1.4838
   11CHL1    H9  778   0.809   3.964   9.646  0.2610 -1.3920  1.3159
   11CHL1   C10  779   0.969   4.034   9.770  0.2305 -0.9394 -0.6188
   11CHL1   C19  780   1.112   4.093   9.759  0.3949  0.3704  0.5650
   11CHL1  H19A  781   1.164   4.115   9.855  1.1374  0.4718  0.1455
   11CHL1  H19B  782   1.171   4.012   9.712 -1.2484 -2.9803  3.7921
   11CHL1  H19C  783   1.110   4.191   9.706 -1.9641 -0.2451 -0.6557
   11CHL1    C1  784   0.875   4.146   9.819 -0.2153 -0.2954  0.0902
   11CHL1   H1A  785   0.867   4.234   9.751  0.7087 -1.6504 -1.8572
   11CHL1   H1B  786   0.778   4.093   9.807 -0.4803 -0.0035  0.8402
   11CHL1    C2  787   0.892   4.185   9.966 -1.0320  0.3530 -0.8612
   11CHL1   H2A  788   0.821   4.263  10.001 -0.4606  0.6595 -0.3649
   11CHL1   H2B  789   0.993   4.232   9.972 -0.6264 -0.5725 -0.2749
   11CHL1   C20  790   0.916   3.872   9.067 -0.8066 -0.1648  0.8449
   11CHL1   H20  791   1.026   3.866   9.050 -0.8215  1.5506 -0.0044
   11CHL1   C21  792   0.898   4.021   9.033 -0.2787  0.1988  0.0214
   11CHL1  H21A  793   0.831   4.065   9.111  1.0466  1.2640  0.5934
   11CHL1  H21B  794   0.863   4.034   8.928 -0.1867  0.3043  0.0031
   11CHL1  H21C  795   0.997   4.067   9.054  0.0745  0.1744 -1.4980
   11CHL1   C22  796   0.839   3.785   8.964 -0.1794 -0.2469 -0.2004
   11CHL1  H22A  797   0.886   3.786   8.863  0.8581  0.1710  0.2683
   11CHL1  H22B  798   0.848   3.681   9.002 -0.0648 -0.5137 -0.9390
   11CHL1   C23  799   0.691   3.804   8.962  0.7035  0.5812  0.2275
   11CHL1  H23A  800   0.640   3.796   9.061 -2.0943  1.0225 -1.0674
   11CHL1  H23B  801   0.674   3.910   8.932  0.7277  1.1661  2.1136
   11CHL1   C24  802   0.610   3.708   8.876 -0.0051 -0.0649  0.2325
   11CHL1  H24A  803   0.679   3.683   8.793 -1.2181 -0.3609 -0.7085
   11CHL1  H24B  804   0.596   3.613   8.932  0.6820  0.1948  0.8738
   11CHL1   C25  805   0.480   3.766   8.821  0.0247 -0.1090 -0.6720
   11CHL1   H25  806   0.442   3.830   8.903  1.8489  0.7611 -0.4720
   11CHL1   C26  807   0.512   3.853   8.707 -0.2728  0.2247 -0.5046
   11CHL1  H26A  808   0.420   3.890   8.656 -1.0952  1.1984  1.5696
   11CHL1  H26B  809   0.565   3.942   8.744  1.1537 -1.6997  2.4173
   11CHL1  H26C  810   0.585   3.803   8.640 -0.4564  1.2392 -1.4818
   11CHL1   C27  811   0.382   3.653   8.785 -0.3548  0.0742  0.2506
   11CHL1  H27A  812   0.361   3.603   8.882 -0.2463  0.7933  0.6500
   11CHL1  H27B  813   0.281   3.687   8.754 -0.6550 -0.2305  0.8615
   11CHL1  H27C  814   0.423   3.582   8.710 -2.1314  0.0032 -0.7018
   12CHL1    C3  815   4.857   4.449   9.567  0.0418 -0.2042 -0.6373
   12CHL1    H3  816   4.905   4.355   9.532  2.7345  1.5531 -1.9980
   12CHL1    O3  817   4.857   4.456   9.709 -0.2937 -0.0816 -0.1099
   12CHL1   H3'  818   4.767   4.452   9.742 -0.0255 -0.3170  0.5941
   12CHL1    C4  819   4.956   4.567   9.516 -0.8277  0.3706  0.5502
   12CHL1   H4A  820   4.898   4.654   9.552 -2.8427 -0.2885 -0.8967
   12CHL1   H4B  821   5.051   4.552   9.572 -1.3433 -0.8694  1.1411
   12CHL1    C5  822   4.960   4.558   9.368  0.1068 -0.8275  0.2257
   12CHL1    C6  823   5.082   4.544   9.307 -0.2183 -0.2810 -0.1796
   12CHL1    H6  824   5.166   4.527   9.376 -0.2736 -1.6954 -0.4205
   12CHL1    C7  825   5.094   4.544   9.155 -0.1479 -0.1195 -0.5634
   12CHL1   H7A  826   5.180   4.609   9.129  0.0600 -0.0840  0.1993
   12CHL1   H7B  827   5.118   4.441   9.122  0.8995 -0.1647  0.3155
   12CHL1    C8  828   4.959   4.586   9.088  0.5580 -0.1917  0.1819
   12CHL1    H8  829   4.953   4.697   9.092 -0.7487 -0.2775  1.3389
   12CHL1   C14  830   4.975   4.546   8.936  0.8578 -0.7412 -0.1678
   12CHL1   H14  831   4.974   4.437   8.953 -1.0554 -0.7831 -0.3440
   12CHL1   C15  832   5.102   4.575   8.855  0.0221 -0.3883  0.0160
   12CHL1  H15A  833   5.137   4.680   8.844 -1.7922  0.2077 -0.3837
   12CHL1  H15B  834   5.185   4.510   8.889 -0.4710 -1.5721 -0.9826
   12CHL1   C16  835   5.059   4.528   8.715 -0.0965  0.3251 -0.1831
   12CHL1  H16A  836   5.085   4.598   8.633  0.3972 -0.2668 -0.5368
   12CHL1  H16B  837   5.122   4.440   8.690 -0.7544  0.0806 -1.0347
   12CHL1   C17  838   4.903   4.492   8.716 -0.5021 -0.3718 -0.5976
   12CHL1   H17  839   4.886   4.384   8.736 -0.8590  0.2590  3.3216
   12CHL1   C13  840   4.849   4.555   8.850  0.1613 -0.9805 -0.3056
   12CHL1   C18  841   4.816   4.707   8.821  0.4747  0.2966 -0.6013
   12CHL1  H18A  842   4.875   4.754   8.740 -0.1060 -1.2708 -1.9876
   12CHL1  H18B  843   4.707   4.709   8.798  0.3411 -0.4635 -0.0635
   12CHL1  H18C  844   4.816   4.766   8.915 -0.9894 -1.3317  0.4708
   12CHL1   C12  845   4.727   4.477   8.920 -0.7076 -0.1316  0.3292
   12CHL1  H12A  846   4.634   4.479   8.860 -1.0363 -0.1732  0.8360
   12CHL1  H12B  847   4.751   4.368   8.922 -0.9891 -0.1852  1.0088
   12CHL1   C11  848   4.711   4.541   9.058  0.4721 -0.1972 -0.5242
   12CHL1  H11A  849   4.689   4.648   9.041  1.4454  0.2085  0.6334
   12CHL1  H11B  850   4.625   4.486   9.102  0.5631 -0.0898 -0.2128
   12CHL1    C9  851   4.833   4.525   9.154 -0.7349  0.6620 -0.0251
   12CHL1    H9  852   4.865   4.418   9.152  1.4177  1.2585 -1.2057
   12CHL1   C10  853   4.820   4.561   9.299 -0.3785 -0.9094  0.6353
   12CHL1   C19  854   4.783   4.706   9.317 -0.0567 -0.7795  0.6944
   12CHL1  H19A  855   4.744   4.736   9.417  0.5331  0.9636  0.4317
   12CHL1  H19B  856   4.864   4.777   9.288 -0.8854 -1.1058 -2.7693
   12CHL1  H19C  857   4.698   4.729   9.249 -1.5164 -0.9839  2.3858
   12CHL1    C1  858   4.717   4.468   9.362 -0.0716 -0.3738 -0.7683
   12CHL1   H1A  859   4.618   4.502   9.326  0.0473  1.5781  0.5931
   12CHL1   H1B  860   4.743   4.365   9.329 -0.0481 -1.0108  1.1623
   12CHL1    C2  861   4.717   4.471   9.520  1.1132  0.6651  0.1617
   12CHL1   H2A  862   4.633   4.406   9.554  0.7715  1.0537  0.0676
   12CHL1   H2B  863   4.683   4.575   9.537 -0.3367  0.8521 -3.2523
   12CHL1   C20  864   4.822   4.544   8.586  0.2123 -0.7498  1.5096
   12CHL1   H20  865   4.814   4.655   8.582 -1.9367 -0.9179 -0.6954
   12CHL1   C21  866   4.676   4.494   8.594 -0.9500 -0.3002 -0.3651
   12CHL1  H21A  867   4.678   4.392   8.639 -0.1149 -0.7969 -1.4804
   12CHL1  H21B  868   4.646   4.483   8.488  2.3682 -1.0677 -1.3388
   12CHL1  H21C  869   4.618   4.564   8.658  2.4456  4.2130 -1.6874
   12CHL1   C22  870   4.881   4.507   8.444  0.4856 -0.1810 -0.0849
   12CHL1  H22A  871   4.811   4.540   8.364  0.6706  1.1696  0.2975
   12CHL1  H22B  872   4.979   4.559   8.444  0.6258 -0.3617 -1.9342
   12CHL1   C23  873   4.895   4.354   8.409  0.5611  0.0606 -0.3479
   12CHL1  H23A  874   4.965   4.313   8.484  1.3510  0.0473 -1.0743
   12CHL1  H23B  875   4.802   4.296   8.422  0.7644 -0.1769  0.0454
   12CHL1   C24  876   4.943   4.333   8.271 -0.6845  0.2244 -0.9102
   12CHL1  H24A  877   4.847   4.322   8.215 -0.9915  0.0236 -0.3628
   12CHL1  H24B  878   4.993   4.423   8.231  1.3668 -0.2933  0.3492
   12CHL1   C25  879   5.040   4.213   8.258  0.1018  0.0187 -0.6345
   12CHL1   H25  880   5.115   4.231   8.338 -0.0332  0.6432 -0.6411
   12CHL1   C26  881   4.971   4.084   8.291  0.7959  0.9452  0.4124
   12CHL1  H26A  882   4.903   4.087   8.379  0.3116 -0.4239  0.1039
   12CHL1  H26B  883   4.911   4.057   8.202 -0.6295 -1.8858  2.0837
   12CHL1  H26C  884   5.038   3.996   8.302  0.9128  1.0985  0.9693
   12CHL1   C27  885   5.104   4.212   8.121  0.0605  0.1480 -0.1300
   12CHL1  H27A  886   5.145   4.311   8.090 -2.8153  2.5131  2.8472
   12CHL1  H27B  887   5.179   4.130   8.119  1.6009  1.4814 -2.7035
   12CHL1  H27C  888   5.029   4.177   8.047 -0.3323  1.1725 -0.2349
   13CHL1    C3  889   3.794   6.327   9.720 -0.4186  0.1222  0.4787
   13CHL1    H3  890   3.810   6.218   9.728 -0.2784  0.2276  1.7082
   13CHL1    O3  891   3.797   6.369   9.853 -0.0977 -0.0744 -0.2047
   13CHL1   H3'  892   3.732   6.315   9.898  1.4380 -2.6261 -0.8394
   13CHL1    C4  893   3.910   6.396   9.644  0.5074 -0.6245  0.0645
   13CHL1   H4A  894   3.899   6.506   9.650  1.7710 -0.3801 -1.4419
   13CHL1   H4B  895   4.008   6.362   9.684  0.8765 -1.8549 -1.7722
   13CHL1    C5  896   3.906   6.357   9.496  0.2607  0.2764  0.2573
   13CHL1    C6  897   4.016   6.301   9.443 -0.0481  0.4112 -0.2880
   13CHL1    H6  898   4.112   6.294   9.498 -0.7719 -0.4605  0.9086
   13CHL1    C7  899   4.018   6.266   9.298 -0.2238  0.4030 -1.2778
   13CHL1   H7A  900   4.112   6.313   9.262  0.3352 -0.9178 -1.6149
   13CHL1   H7B  901   4.020   6.155   9.299 -0.9810  0.3658  0.2151
   13CHL1    C8  902   3.893   6.304   9.215 -0.1217  0.2431  0.3788
   13CHL1    H8  903   3.910   6.410   9.187 -1.9239 -0.1076 -2.4465
   13CHL1   C14  904   3.880   6.220   9.092 -0.0437  0.9377 -0.3478
   13CHL1   H14  905   3.859   6.115   9.122  1.3081  0.0259 -2.3715
   13CHL1   C15  906   4.002   6.208   8.993 -0.1077  0.5455 -0.5152
   13CHL1  H15A  907   4.053   6.305   8.974 -0.0719  0.3567 -1.4446
   13CHL1  H15B  908   4.067   6.130   9.039 -2.2805 -1.2153 -0.2494
   13CHL1   C16  909   3.942   6.147   8.871 -1.3021  0.1293  0.0982
   13CHL1  H16A  910   3.986   6.199   8.784 -0.7405  0.3535  0.5040
   13CHL1  H16B  911   3.969   6.040   8.858  1.4517  1.0107 -2.5768
   13CHL1   C17  912   3.793   6.169   8.875  0.0266  0.3135  0.2365
   13CHL1   H17  913   3.753   6.072   8.909 -1.0017  0.4766 -0.4626
   13CHL1   C13  914   3.767   6.255   9.002 -0.2343 -0.6018 -0.2014
   13CHL1   C18  915   3.772   6.409   8.964  0.1517 -0.4370 -0.1710
   13CHL1  H18A  916   3.683   6.424   8.900 -0.3930  2.3864  1.0984
   13CHL1  H18B  917   3.768   6.474   9.054  0.9577  0.6961 -0.9333
   13CHL1  H18C  918   3.867   6.422   8.907  0.9384 -1.4397  0.8610
   13CHL1   C12  919   3.638   6.233   9.072 -0.3367 -0.0864  0.3028
   13CHL1  H12A  920   3.546   6.269   9.020 -0.0236 -2.3167 -2.0192
   13CHL1  H12B  921   3.632   6.122   9.083 -1.3990  0.0135  0.8970
   13CHL1   C11  922   3.633   6.296   9.214 -0.2878  0.5978 -0.2641
   13CHL1  H11A  923   3.615   6.405   9.207 -2.2670  0.8119  4.3035
   13CHL1  H11B  924   3.550   6.250   9.273  0.8909  1.0305  1.8399
   13CHL1    C9  925   3.767   6.288   9.301  0.4970  0.4197  0.5692
   13CHL1    H9  926   3.775   6.182   9.334  0.4197  0.9150  2.2865
   13CHL1   C10  927   3.766   6.376   9.425 -0.0235 -0.4509  0.0329
   13CHL1   C19  928   3.751   6.529   9.397  0.4322  0.7898  0.3424
   13CHL1  H19A  929   3.769   6.590   9.488  0.6808 -1.0929  1.6098
   13CHL1  H19B  930   3.842   6.554   9.337  1.6777  1.1619  2.3055
   13CHL1  H19C  931   3.658   6.570   9.351 -1.5727 -2.2720  1.3712
   13CHL1    C1  932   3.644   6.325   9.516 -0.8476  0.7936  0.2015
   13CHL1   H1A  933   3.548   6.365   9.477 -1.2657 -0.7291 -0.4198
   13CHL1   H1B  934   3.652   6.214   9.508  0.1332  0.6107  2.7308
   13CHL1    C2  935   3.658   6.362   9.662 -0.0491 -0.2552 -0.0993
   13CHL1   H2A  936   3.577   6.312   9.721 -0.1986  0.4327  0.2837
   13CHL1   H2B  937   3.640   6.471   9.670  0.0773 -0.3053  1.1540
   13CHL1   C20  938   3.718   6.208   8.745 -0.2768 -1.0302  0.5321
   13CHL1   H20  939   3.751   6.312   8.728 -1.0016 -0.3315  2.9719
   13CHL1   C21  940   3.564   6.194   8.755 -0.3445  0.2761 -0.3194
   13CHL1  H21A  941   3.521   6.111   8.814 -0.1093  1.4892  1.6407
   13CHL1  H21B  942   3.519   6.214   8.655  0.0021 -1.7954 -0.9305
   13CHL1  H21C  943   3.532   6.279   8.820  1.0589  0.7991 -0.2864
   13CHL1   C22  944   3.773   6.136   8.623 -0.8221  0.0490  0.3896
   13CHL1  H22A  945   3.884   6.137   8.615 -0.8300 -1.0252  0.0591
   13CHL1  H22B  946   3.745   6.029   8.614 -1.4484  0.2694 -0.3654
   13CHL1   C23  947   3.742   6.200   8.482  0.4485  0.3214  0.1717
   13CHL1  H23A  948   3.640   6.245   8.484 -0.0940 -0.7022 -1.9714
   13CHL1  H23B  949   3.814   6.284   8.474  0.5125  0.3135  0.6187
   13CHL1   C24  950   3.751   6.112   8.360 -0.4258 -0.2711  0.1320
   13CHL1  H24A  951   3.844   6.052   8.366  0.1620  0.4295 -1.2940
   13CHL1  H24B  952   3.665   6.042   8.366  0.0451 -0.8289  0.3834
   13CHL1   C25  953   3.761   6.187   8.229 -0.9218 -0.3392 -0.4176
   13CHL1   H25  954   3.690   6.272   8.245 -2.7954 -1.5091 -2.0445
   13CHL1   C26  955   3.905   6.224   8.206 -0.1010 -0.7961  0.7990
   13CHL1  H26A  956   3.906   6.268   8.104  0.6054  0.7742  1.4524
   13CHL1  H26B  957   3.938   6.290   8.288 -2.6143 -0.3288  1.5155
   13CHL1  H26C  958   3.972   6.135   8.210  3.4074  1.5292 -1.2800
   13CHL1   C27  959   3.728   6.098   8.102 -0.0448 -0.5776  0.3509
   13CHL1  H27A  960   3.622   6.066   8.102 -0.2032 -0.0602  0.4270
   13CHL1  H27B  961   3.741   6.162   8.012 -2.0617  0.7725  0.9602
   13CHL1  H27C  962   3.790   6.006   8.106  0.0849 -0.4989  0.1710
   14CHL1    C3  963   1.010   4.903  10.094  0.7619 -0.6257 -0.2789
   14CHL1    H3  964   1.099   4.950  10.048 -0.1547  0.2711 -1.2007
   14CHL1    O3  965   0.998   4.934  10.234 -0.3384  0.0156 -0.0524
   14CHL1   H3'  966   0.933   4.874  10.271  0.8435 -1.7745 -0.6966
   14CHL1    C4  967   0.884   4.959  10.027 -0.4026 -0.3963  0.8508
   14CHL1   H4A  968   0.796   4.916  10.081  0.0324  0.8543  2.6295
   14CHL1   H4B  969   0.881   5.067  10.049  1.8544 -0.2505  0.6828
   14CHL1    C5  970   0.886   4.920   9.884  0.1942  0.6938 -0.1938
   14CHL1    C6  971   0.874   5.016   9.787 -0.7019  0.2382 -0.0776
   14CHL1    H6  972   0.858   5.117   9.828  0.8434 -0.0993  1.4550
   14CHL1    C7  973   0.865   4.990   9.640  0.2117 -0.3929  0.7651
   14CHL1   H7A  974   0.777   5.042   9.596  1.7439  0.9753 -0.8588
   14CHL1   H7B  975   0.950   5.029   9.580  0.0413 -1.6480 -0.3504
   14CHL1    C8  976   0.851   4.837   9.608 -0.6705  0.8305 -0.4920
   14CHL1    H8  977   0.746   4.808   9.631 -0.3739  0.9883  1.1931
   14CHL1   C14  978   0.873   4.798   9.460  0.2219 -0.5135  0.1827
   14CHL1   H14  979   0.982   4.815   9.449  0.4924 -2.3531 -0.3446
   14CHL1   C15  980   0.815   4.890   9.348  0.5031 -0.6387 -0.0033
   14CHL1  H15A  981   0.708   4.905   9.376  0.4712 -1.6962  0.4710
   14CHL1  H15B  982   0.871   4.986   9.341  0.3481 -0.2445  2.9492
   14CHL1   C16  983   0.807   4.797   9.222 -0.0543  0.1786 -0.2224
   14CHL1  H16A  984   0.703   4.787   9.185 -0.8526  3.2741  0.9078
   14CHL1  H16B  985   0.868   4.845   9.142  0.3180  1.4407  0.7911
   14CHL1   C17  986   0.879   4.662   9.260  0.6234  0.1582 -1.0818
   14CHL1   H17  987   0.989   4.675   9.256  0.5331  1.8903  0.6443
   14CHL1   C13  988   0.849   4.652   9.416 -1.2717  0.5139  0.0967
   14CHL1   C18  989   0.704   4.621   9.437  0.4083  0.4612 -0.8893
   14CHL1  H18A  990   0.683   4.516   9.407  0.6612 -0.1655  1.0115
   14CHL1  H18B  991   0.678   4.631   9.544  1.9425  1.0073 -0.5393
   14CHL1  H18C  992   0.643   4.691   9.376  0.2657  0.7054 -0.4692
   14CHL1   C12  993   0.943   4.565   9.506 -0.4256 -0.1575 -0.1697
   14CHL1  H12A  994   0.921   4.457   9.493  0.6617 -0.6552  1.7849
   14CHL1  H12B  995   1.047   4.579   9.469  0.0372  1.2752  1.5569
   14CHL1   C11  996   0.924   4.608   9.654  0.1644  0.1493  0.0533
   14CHL1  H11A  997   0.827   4.567   9.689  0.6519 -2.1411 -1.0452
   14CHL1  H11B  998   1.007   4.560   9.710 -1.7384  0.3887  3.3238
   14CHL1    C9  999   0.936   4.754   9.696  0.1759  0.4283  0.7139
   14CHL1    H9 1000   1.044   4.778   9.686  0.6780 -1.6837  0.5662
   14CHL1   C10 1001   0.911   4.774   9.847  0.2480  0.6821 -0.3452
   14CHL1   C19 1002   0.790   4.691   9.890 -0.7559 -0.1243  0.4694
   14CHL1  H19A 1003   0.755   4.710   9.994  1.9587  1.8261  1.1266
   14CHL1  H19B 1004   0.707   4.717   9.821 -0.8363 -1.7029 -0.0824
   14CHL1  H19C 1005   0.808   4.582   9.881 -1.4796 -0.1288 -1.4071
   14CHL1    C1 1006   1.031   4.718   9.932  0.5472  0.1000  0.2134
   14CHL1   H1A 1007   1.042   4.608   9.919  0.0369  0.2025 -1.2660
   14CHL1   H1B 1008   1.127   4.760   9.893 -0.3431  0.3239 -1.8503
   14CHL1    C2 1009   1.028   4.752  10.075 -0.0626 -0.1981 -0.3874
   14CHL1   H2A 1010   1.118   4.710  10.126 -1.1952 -3.1585 -0.6520
   14CHL1   H2B 1011   0.931   4.718  10.118 -0.8519  2.2298 -0.1188
   14CHL1   C20 1012   0.827   4.539   9.182  0.1040 -0.0868 -0.5185
   14CHL1   H20 1013   0.729   4.503   9.219  1.3852 -2.2321  1.0194
   14CHL1   C21 1014   0.929   4.424   9.205  0.6358  0.7589 -0.0084
   14CHL1  H21A 1015   1.030   4.461   9.177  1.2260  0.9246  2.0883
   14CHL1  H21B 1016   0.913   4.337   9.138  0.4108  0.6499  0.1842
   14CHL1  H21C 1017   0.920   4.386   9.309  0.7408  1.3155  0.2085
   14CHL1   C22 1018   0.817   4.566   9.024  1.0947 -0.0677 -0.0795
   14CHL1  H22A 1019   0.768   4.476   8.982  1.5118  0.5253 -1.9629
   14CHL1  H22B 1020   0.737   4.642   9.011 -0.4538 -1.7350 -0.7896
   14CHL1   C23 1021   0.942   4.607   8.949 -1.1530  0.4098  0.4628
   14CHL1  H23A 1022   0.982   4.696   9.001  0.6325  1.2315 -2.1368
   14CHL1  H23B 1023   1.017   4.527   8.969 -2.6032 -1.3529 -0.7848
   14CHL1   C24 1024   0.928   4.615   8.797  0.7372 -0.1763  0.1939
   14CHL1  H24A 1025   0.902   4.512   8.764 -0.0440 -0.3700  1.3464
   14CHL1  H24B 1026   0.835   4.671   8.773 -1.1012 -2.5241  1.4409
   14CHL1   C25 1027   1.054   4.662   8.720  0.0216  0.8685  0.8094
   14CHL1   H25 1028   1.136   4.595   8.755 -1.9038 -2.0993  0.0395
   14CHL1   C26 1029   1.039   4.652   8.566 -0.1386 -0.0669  0.6929
   14CHL1  H26A 1030   1.126   4.689   8.508 -0.3709  1.0339  1.0238
   14CHL1  H26B 1031   1.022   4.546   8.538 -0.1253 -0.7913  3.1553
   14CHL1  H26C 1032   0.946   4.709   8.546 -0.0428  0.7694  2.4381
   14CHL1   C27 1033   1.086   4.802   8.760  0.0176  0.2221 -0.4373
   14CHL1  H27A 1034   1.004   4.866   8.721 -1.3729 -1.2547 -0.0321
   14CHL1  H27B 1035   1.090   4.821   8.870  2.9450  1.0578 -0.6181
   14CHL1  H27C 1036   1.184   4.837   8.722 -0.8619  1.7258 -1.4390
   15CHL1    C3 1037   2.423   2.618  10.121 -0.2970 -0.4244  0.8594
   15CHL1    H3 1038   2.434   2.728  10.120 -0.3519 -0.4155  1.2118
   15CHL1    O3 1039   2.371   2.573  10.243 -0.5364  0.1715  0.2030
   15CHL1   H3' 1040   2.340   2.485  10.221  2.6259 -0.9479 -0.3416
   15CHL1    C4 1041   2.316   2.584  10.011 -0.6014  0.3964 -0.0610
   15CHL1   H4A 1042   2.296   2.475  10.023  0.6683  0.1779  0.2202
   15CHL1   H4B 1043   2.231   2.645  10.048 -0.1179  0.6799  0.6077
   15CHL1    C5 1044   2.362   2.615   9.870 -0.6598  0.3534 -0.1788
   15CHL1    C6 1045   2.284   2.688   9.794 -0.3463 -0.8263  0.9668
   15CHL1    H6 1046   2.201   2.746   9.837 -0.4152  0.6976 -1.0577
   15CHL1    C7 1047   2.297   2.686   9.641  0.4874 -0.6604 -0.5628
   15CHL1   H7A 1048   2.206   2.653   9.587 -2.1208 -1.5277  3.8682
   15CHL1   H7B 1049   2.325   2.788   9.608  1.3774  0.0821  2.1847
   15CHL1    C8 1050   2.409   2.593   9.595 -0.3075 -0.4549  0.1218
   15CHL1    H8 1051   2.364   2.492   9.584  0.0001 -0.5176 -0.5678
   15CHL1   C14 1052   2.462   2.648   9.461  0.0549  0.7214  0.4091
   15CHL1   H14 1053   2.520   2.740   9.483 -0.2171  0.8840  0.4345
   15CHL1   C15 1054   2.361   2.694   9.355 -0.6701  0.6196 -0.4024
   15CHL1  H15A 1055   2.277   2.622   9.364  0.2006 -0.2109  1.8297
   15CHL1  H15B 1056   2.330   2.795   9.388  1.2271  0.3779  2.5252
   15CHL1   C16 1057   2.441   2.695   9.231  0.1328 -0.6144  0.0554
   15CHL1  H16A 1058   2.388   2.636   9.153  0.4300 -1.3525  0.4019
   15CHL1  H16B 1059   2.453   2.798   9.190  0.5068 -1.1147 -1.1619
   15CHL1   C17 1060   2.586   2.637   9.260  0.1038 -0.0909  0.2497
   15CHL1   H17 1061   2.656   2.721   9.280 -0.6848  0.8347 -0.7468
   15CHL1   C13 1062   2.564   2.551   9.393  0.8365  0.5970  0.0888
   15CHL1   C18 1063   2.501   2.417   9.358 -0.1856  0.0917  0.6015
   15CHL1  H18A 1064   2.583   2.356   9.314 -0.2870 -0.3294  0.9835
   15CHL1  H18B 1065   2.465   2.365   9.449  0.8662 -2.0708 -0.1285
   15CHL1  H18C 1066   2.423   2.430   9.281  0.5579  0.1203 -0.1615
   15CHL1   C12 1067   2.682   2.531   9.493 -0.2385  0.3771 -0.0026
   15CHL1  H12A 1068   2.744   2.451   9.448 -0.1580  0.8723 -0.7884
   15CHL1  H12B 1069   2.742   2.625   9.493  0.6631 -0.1107 -2.4355
   15CHL1   C11 1070   2.643   2.486   9.630  0.0382  0.3743  0.8556
   15CHL1  H11A 1071   2.605   2.383   9.612  0.3035  0.6226 -1.3689
   15CHL1  H11B 1072   2.730   2.474   9.698  0.1424 -0.6958  0.5596
   15CHL1    C9 1073   2.530   2.579   9.691  0.4111  0.3421 -0.7333
   15CHL1    H9 1074   2.582   2.677   9.700 -0.6792  0.7299  2.5837
   15CHL1   C10 1075   2.484   2.536   9.834  0.0174  0.0380  0.4078
   15CHL1   C19 1076   2.478   2.385   9.837 -0.0457  0.2248  0.2216
   15CHL1  H19A 1077   2.403   2.366   9.758  2.3940  2.9452 -3.0698
   15CHL1  H19B 1078   2.574   2.336   9.808  0.3207  0.3066  1.2617
   15CHL1  H19C 1079   2.456   2.342   9.937 -1.7471  1.1909  0.2927
   15CHL1    C1 1080   2.601   2.566   9.936  0.0517 -0.2608  0.4298
   15CHL1   H1A 1081   2.691   2.505   9.913 -1.4274 -1.6491 -2.0883
   15CHL1   H1B 1082   2.627   2.673   9.917 -1.5592 -0.1427 -1.4812
   15CHL1    C2 1083   2.560   2.561  10.090 -0.2404  0.2776  0.0750
   15CHL1   H2A 1084   2.642   2.620  10.136 -0.6234  2.4287 -1.8552
   15CHL1   H2B 1085   2.575   2.456  10.124  4.1501  0.2230 -1.4643
   15CHL1   C20 1086   2.656   2.562   9.143 -0.9228  0.1794 -0.0834
   15CHL1   H20 1087   2.588   2.482   9.107  1.4279 -0.6938 -2.9892
   15CHL1   C21 1088   2.785   2.497   9.204 -0.5676  0.3582 -0.3350
   15CHL1  H21A 1089   2.844   2.565   9.270 -0.7797  0.6813 -0.4776
   15CHL1  H21B 1090   2.854   2.463   9.124 -2.3519 -1.4028 -1.2290
   15CHL1  H21C 1091   2.769   2.403   9.261  1.7790  0.8899  1.3656
   15CHL1   C22 1092   2.702   2.661   9.032  0.3710 -0.2276  0.0659
   15CHL1  H22A 1093   2.616   2.725   9.003 -0.9679 -1.6061  0.8919
   15CHL1  H22B 1094   2.769   2.742   9.069 -1.2823  0.7889  0.9469
   15CHL1   C23 1095   2.767   2.593   8.908  0.5823 -0.1495 -0.0765
   15CHL1  H23A 1096   2.865   2.556   8.945  0.3063  1.2849  2.2937
   15CHL1  H23B 1097   2.705   2.514   8.862  0.8120  0.7527 -2.0333
   15CHL1   C24 1098   2.798   2.702   8.800 -0.3418  0.2091  0.6675
   15CHL1  H24A 1099   2.703   2.749   8.766 -0.3068  0.3640  0.7831
   15CHL1  H24B 1100   2.874   2.767   8.848  0.1829 -0.0412  0.1831
   15CHL1   C25 1101   2.878   2.650   8.676  0.6043  0.2915  0.2225
   15CHL1   H25 1102   2.956   2.587   8.723  0.5884 -0.1395 -0.3210
   15CHL1   C26 1103   2.794   2.570   8.579  0.0873  0.5330 -1.1720
   15CHL1  H26A 1104   2.769   2.470   8.621 -0.1945  1.4236  0.9074
   15CHL1  H26B 1105   2.693   2.612   8.563 -0.6337 -0.2860  0.8777
   15CHL1  H26C 1106   2.841   2.549   8.481  0.4643 -2.3673 -0.4796
   15CHL1   C27 1107   2.955   2.763   8.611 -0.2359 -0.6697  0.1213
   15CHL1  H27A 1108   2.881   2.839   8.577 -1.7681 -2.0130  0.3410
   15CHL1  H27B 1109   3.016   2.819   8.685  0.7214 -0.4671 -0.7860
   15CHL1  H27C 1110   3.023   2.729   8.530  1.1113  1.9599  0.0540
   16CHL1    C3 1111   2.996   4.038   9.832 -0.0009  0.3392 -0.1022
   16CHL1    H3 1112   2.961   3.941   9.789  0.8216  0.4392 -1.0274
   16CHL1    O3 1113   2.998   4.027   9.975  0.1766 -0.4953 -0.2588
   16CHL1   H3' 1114   2.918   3.983  10.004  0.2281  0.0175  0.7225
   16CHL1    C4 1115   3.127   4.089   9.773 -0.3689  0.5339 -0.7277
   16CHL1   H4A 1116   3.159   4.185   9.818  0.7989 -0.2358  0.1225
   16CHL1   H4B 1117   3.202   4.015   9.808 -1.1691  0.6830  1.4626
   16CHL1    C5 1118   3.109   4.098   9.623  0.2804 -0.4047 -1.2123
   16CHL1    C6 1119   3.178   4.015   9.546  0.2101 -0.9112  0.2414
   16CHL1    H6 1120   3.230   3.932   9.597  0.7135 -0.3843  0.5901
   16CHL1    C7 1121   3.175   4.023   9.403 -0.2626 -0.6794  0.7361
   16CHL1   H7A 1122   3.279   4.014   9.367 -0.9834 -0.5805 -1.5778
   16CHL1   H7B 1123   3.122   3.934   9.362  2.0238 -2.8071  2.1195
   16CHL1    C8 1124   3.121   4.156   9.352 -0.3169  0.6808 -0.4276
   16CHL1    H8 1125   3.190   4.238   9.382 -0.9536  1.7211 -1.7185
   16CHL1   C14 1126   3.116   4.152   9.205  0.1677  0.3182 -0.1180
   16CHL1   H14 1127   3.044   4.069   9.184  0.5295 -0.2330  0.7673
   16CHL1   C15 1128   3.232   4.114   9.115 -0.7662 -0.7718  0.7534
   16CHL1  H15A 1129   3.320   4.173   9.148 -1.9236  1.9927 -0.7402
   16CHL1  H15B 1130   3.270   4.010   9.118 -0.5814 -0.7040  0.7405
   16CHL1   C16 1131   3.195   4.155   8.969 -1.3911 -0.7345 -0.1330
   16CHL1  H16A 1132   3.266   4.220   8.912 -3.3286  1.4683 -0.1941
   16CHL1  H16B 1133   3.151   4.071   8.912 -3.3076  0.9328 -1.2875
   16CHL1   C17 1134   3.060   4.240   8.984  0.1774 -0.6182 -0.2188
   16CHL1   H17 1135   2.980   4.164   8.981 -0.1525 -0.2606 -2.3792
   16CHL1   C13 1136   3.062   4.283   9.134  0.3100  0.2541 -0.1378
   16CHL1   C18 1137   3.156   4.402   9.152 -0.5620  0.0195  0.4710
   16CHL1  H18A 1138   3.251   4.376   9.100 -1.2011 -2.0719  0.2685
   16CHL1  H18B 1139   3.123   4.500   9.112 -2.1559 -1.5031 -2.2708
   16CHL1  H18C 1140   3.166   4.404   9.263  0.6107 -1.1480  0.4136
   16CHL1   C12 1141   2.925   4.318   9.192 -0.2614  0.0342 -0.4681
   16CHL1  H12A 1142   2.888   4.415   9.153 -0.9532 -0.3692 -0.8383
   16CHL1  H12B 1143   2.852   4.244   9.153 -1.4267  0.6910  0.3894
   16CHL1   C11 1144   2.915   4.323   9.346 -0.0829  0.1242  0.1185
   16CHL1  H11A 1145   2.960   4.421   9.374 -0.8114  0.3720  0.4534
   16CHL1  H11B 1146   2.809   4.330   9.379  0.4275 -0.0513  1.8998
   16CHL1    C9 1147   2.992   4.200   9.416  0.3314 -0.7076 -0.6417
   16CHL1    H9 1148   2.927   4.112   9.398  1.7825 -1.6721 -1.2640
   16CHL1   C10 1149   3.006   4.205   9.572 -0.0132  0.1568  0.2324
   16CHL1   C19 1150   3.050   4.346   9.610 -0.3918 -0.1744  0.3344
   16CHL1  H19A 1151   3.060   4.353   9.721 -1.9974 -1.6485  0.6163
   16CHL1  H19B 1152   3.153   4.361   9.573  0.1112 -3.6702  0.0688
   16CHL1  H19C 1153   2.988   4.431   9.575 -1.6409 -1.4594 -0.6917
   16CHL1    C1 1154   2.872   4.173   9.643  0.3974  0.6788 -0.0620
   16CHL1   H1A 1155   2.799   4.255   9.630  0.0478  0.3320 -0.3008
   16CHL1   H1B 1156   2.824   4.085   9.595  0.4216  1.7726 -2.1810
   16CHL1    C2 1157   2.896   4.148   9.796  0.4208 -0.2498 -0.2661
   16CHL1   H2A 1158   2.799   4.138   9.850  0.6088 -0.2001  0.0774
   16CHL1   H2B 1159   2.932   4.243   9.839  0.7633 -0.6827  0.4167
   16CHL1   C20 1160   3.031   4.341   8.875  1.0872 -0.6833 -0.1198
   16CHL1   H20 1161   3.077   4.441   8.894 -0.7560  0.4313 -1.2256
   16CHL1   C21 1162   2.875   4.368   8.863 -0.3907  0.5753  0.1387
   16CHL1  H21A 1163   2.838   4.441   8.788 -0.3535 -0.9655 -1.4583
   16CHL1  H21B 1164   2.832   4.392   8.962 -0.0371 -2.2190  1.0561
   16CHL1  H21C 1165   2.818   4.275   8.839  1.3238 -0.2618 -0.8478
   16CHL1   C22 1166   3.077   4.299   8.737  0.4903 -0.9371 -0.5172
   16CHL1  H22A 1167   3.186   4.279   8.746  0.2006 -1.8448  1.5859
   16CHL1  H22B 1168   3.025   4.204   8.710  0.1561 -0.8619 -0.1446
   16CHL1   C23 1169   3.059   4.406   8.618  0.3281  0.1586 -0.3507
   16CHL1  H23A 1170   2.951   4.419   8.597  0.2713 -0.1997 -0.2839
   16CHL1  H23B 1171   3.110   4.497   8.657  1.0967 -1.0896  1.7190
   16CHL1   C24 1172   3.110   4.355   8.488 -0.6887  0.1554 -0.5042
   16CHL1  H24A 1173   3.221   4.360   8.485 -0.6641 -0.5882 -1.1855
   16CHL1  H24B 1174   3.079   4.249   8.477 -1.3310  0.3546 -0.6655
   16CHL1   C25 1175   3.066   4.441   8.372  0.3205  0.5516  0.7996
   16CHL1   H25 1176   2.955   4.451   8.369  0.3500  0.8654 -2.4608
   16CHL1   C26 1177   3.115   4.583   8.380  0.6173 -0.1694  0.0032
   16CHL1  H26A 1178   3.066   4.634   8.466  2.1740  4.7539 -1.7102
   16CHL1  H26B 1179   3.226   4.585   8.392  0.6104 -0.9635  0.2842
   16CHL1  H26C 1180   3.079   4.638   8.291  1.1923  0.9936  0.4720
   16CHL1   C27 1181   3.116   4.391   8.238  0.2451 -0.1326  0.4804
   16CHL1  H27A 1182   3.224   4.408   8.217  0.0356  1.1044  0.3038
   16CHL1  H27B 1183   3.097   4.283   8.220  0.4433 -0.7100  3.3501
   16CHL1  H27C 1184   3.061   4.442   8.156 -1.4969  1.3948  2.4820
   17CHL1    C3 1185   5.843   1.641  10.044  0.0864  0.6721 -0.3520
   17CHL1    H3 1186   5.757   1.706  10.016 -0.9350  0.0407  1.1993
   17CHL1    O3 1187   5.852   1.639  10.184 -0.8223  0.2033 -0.0248
   17CHL1   H3' 1188   5.943   1.669  10.188 -0.0097 -2.1971  0.9815
   17CHL1    C4 1189   5.812   1.497  10.000  0.6418 -0.1472 -0.6463
   17CHL1   H4A 1190   5.894   1.436  10.042  1.6753  1.0684 -0.8466
   17CHL1   H4B 1191   5.722   1.462  10.055  0.2285  1.9549  0.1333
   17CHL1    C5 1192   5.804   1.495   9.846  0.3074  0.1461  0.3326
   17CHL1    C6 1193   5.691   1.452   9.781 -0.1192  0.6467  0.0749
   17CHL1    H6 1194   5.600   1.424   9.836  0.8342 -2.8556  0.1057
   17CHL1    C7 1195   5.677   1.444   9.635 -0.4692 -0.0817 -0.1345
   17CHL1   H7A 1196   5.651   1.342   9.602  0.7324  0.0066 -1.5105
   17CHL1   H7B 1197   5.591   1.508   9.604 -1.3497 -0.8407  0.6867
   17CHL1    C8 1198   5.802   1.470   9.552  0.0489  0.0104  0.2897
   17CHL1    H8 1199   5.852   1.371   9.542 -0.1359 -0.0931  0.3700
   17CHL1   C14 1200   5.774   1.523   9.409  0.6314  0.2489  0.0786
   17CHL1   H14 1201   5.735   1.626   9.421 -1.8477 -0.8947  3.7241
   17CHL1   C15 1202   5.675   1.440   9.327  0.4353  0.3308  0.0653
   17CHL1  H15A 1203   5.693   1.331   9.338  1.3527  0.4757  0.0619
   17CHL1  H15B 1204   5.580   1.479   9.369  2.4968  3.4359  2.2685
   17CHL1   C16 1205   5.691   1.489   9.181  0.2041  0.7531 -0.5072
   17CHL1  H16A 1206   5.698   1.394   9.124  1.4805 -0.3492  1.3837
   17CHL1  H16B 1207   5.607   1.546   9.136 -0.7848 -0.2476  0.0327
   17CHL1   C17 1208   5.823   1.573   9.183  0.8640  0.8202 -0.2441
   17CHL1   H17 1209   5.790   1.679   9.191 -1.7569  0.0546  0.1562
   17CHL1   C13 1210   5.888   1.539   9.320  0.6929 -0.2617 -0.2844
   17CHL1   C18 1211   5.973   1.408   9.303 -0.5662  0.1234  0.6624
   17CHL1  H18A 1212   6.063   1.435   9.243  0.5675 -1.8391  1.3852
   17CHL1  H18B 1213   6.021   1.367   9.394 -0.2168  1.2482  1.0004
   17CHL1  H18C 1214   5.904   1.337   9.253 -3.2913  1.8064  1.7857
   17CHL1   C12 1215   5.971   1.653   9.384 -0.7106 -0.2777  0.0821
   17CHL1  H12A 1216   6.068   1.670   9.332 -1.0561  0.5771 -0.2958
   17CHL1  H12B 1217   5.916   1.749   9.376  0.1330  0.3455  1.2890
   17CHL1   C11 1218   6.016   1.616   9.529  0.2349  0.5012 -0.5812
   17CHL1  H11A 1219   6.082   1.528   9.520 -1.2499 -1.1596  2.9458
   17CHL1  H11B 1220   6.072   1.699   9.577  0.0890 -0.2425  0.9228
   17CHL1    C9 1221   5.900   1.576   9.620  0.6356  0.5387  0.6569
   17CHL1    H9 1222   5.834   1.665   9.628  0.1889  0.4223 -1.2186
   17CHL1   C10 1223   5.932   1.544   9.764 -0.1560  0.1470 -0.2285
   17CHL1   C19 1224   6.049   1.437   9.774  0.0522 -0.3588 -0.3597
   17CHL1  H19A 1225   6.001   1.340   9.749 -1.4586  0.1613  0.4050
   17CHL1  H19B 1226   6.128   1.444   9.697 -0.0638 -0.0652 -0.4535
   17CHL1  H19C 1227   6.099   1.434   9.873 -1.0086  2.3730  0.3524
   17CHL1    C1 1228   5.980   1.676   9.828 -0.6902 -0.3087 -0.1553
   17CHL1   H1A 1229   6.084   1.703   9.799 -0.5620 -0.7376 -0.0992
   17CHL1   H1B 1230   5.922   1.761   9.786  1.1595 -0.1162 -2.4683
   17CHL1    C2 1231   5.979   1.684   9.983 -0.3210  0.3021 -0.1329
   17CHL1   H2A 1232   5.994   1.787  10.020 -1.6412  0.9133 -1.2107
   17CHL1   H2B 1233   6.055   1.614  10.023 -2.3439 -1.5777  0.6636
   17CHL1   C20 1234   5.903   1.545   9.057 -0.0998  0.3291 -0.1152
   17CHL1   H20 1235   5.940   1.440   9.065  1.9502  1.0536  0.7822
   17CHL1   C21 1236   6.011   1.648   9.042 -0.2244  0.3124 -0.1340
   17CHL1  H21A 1237   6.048   1.652   8.937 -1.1856 -0.3273 -0.4984
   17CHL1  H21B 1238   6.098   1.624   9.107 -0.0651 -1.9342 -1.1054
   17CHL1  H21C 1239   5.975   1.749   9.071  1.4882  0.8041  0.4195
   17CHL1   C22 1240   5.821   1.541   8.924  0.0158  0.8747  0.1462
   17CHL1  H22A 1241   5.886   1.512   8.838 -1.3058  0.2584 -0.6812
   17CHL1  H22B 1242   5.753   1.454   8.932 -0.9650  1.8055  2.7127
   17CHL1   C23 1243   5.738   1.666   8.900  0.7910 -0.1767 -0.3017
   17CHL1  H23A 1244   5.678   1.701   8.987 -0.0378  0.2258 -1.0259
   17CHL1  H23B 1245   5.808   1.745   8.867  0.2127  0.3004 -0.3952
   17CHL1   C24 1246   5.640   1.653   8.778 -0.4706  0.2753 -0.2050
   17CHL1  H24A 1247   5.609   1.756   8.750 -1.5931  0.3614  1.1971
   17CHL1  H24B 1248   5.694   1.599   8.698 -2.0303  1.3093 -2.0454
   17CHL1   C25 1249   5.509   1.578   8.812  0.4632 -0.0505  0.1738
   17CHL1   H25 1250   5.542   1.482   8.857 -1.3970 -1.0006 -0.4052
   17CHL1   C26 1251   5.423   1.660   8.904  0.1467  0.1417 -0.1158
   17CHL1  H26A 1252   5.417   1.765   8.869 -1.3109 -0.5587 -2.2147
   17CHL1  H26B 1253   5.322   1.612   8.902 -0.5137  1.4233  1.0207
   17CHL1  H26C 1254   5.459   1.670   9.008  0.6682  0.8900 -0.3636
   17CHL1   C27 1255   5.439   1.552   8.675  0.3906  0.7016  0.5054
   17CHL1  H27A 1256   5.432   1.647   8.618  0.5248  0.0426 -0.6359
   17CHL1  H27B 1257   5.494   1.478   8.614  1.6874  2.2637 -0.2951
   17CHL1  H27C 1258   5.339   1.511   8.698  1.0395  0.5104  3.3820
   18CHL1    C3 1259   4.850   3.802   9.692 -0.0602 -0.0816  0.1014
   18CHL1    H3 1260   4.878   3.696   9.672  0.2408  0.2665 -1.4881
   18CHL1    O3 1261   4.802   3.833   9.823 -0.3881 -0.0637  0.5723
   18CHL1   H3' 1262   4.810   3.929   9.824 -0.1976 -0.0821  1.0363
   18CHL1    C4 1263   4.980   3.883   9.666 -0.2350 -0.1309  0.0988
   18CHL1   H4A 1264   4.956   3.991   9.678 -2.7173 -0.5620 -0.2430
   18CHL1   H4B 1265   5.043   3.847   9.750 -0.1079 -0.4400 -0.1270
   18CHL1    C5 1266   5.038   3.886   9.521  0.5949  0.5787 -0.9632
   18CHL1    C6 1267   5.160   3.859   9.478  0.2013  0.4019 -0.2020
   18CHL1    H6 1268   5.233   3.843   9.559 -2.1974  1.3200  2.2978
   18CHL1    C7 1269   5.201   3.865   9.335 -0.6035  0.4076 -0.3839
   18CHL1   H7A 1270   5.296   3.923   9.334 -0.0679 -0.4596 -0.8164
   18CHL1   H7B 1271   5.228   3.761   9.305 -1.5374  0.3510 -1.0540
   18CHL1    C8 1272   5.096   3.930   9.245 -0.0867  0.5957  0.7212
   18CHL1    H8 1273   5.099   4.040   9.261  1.6577  0.7491 -0.4688
   18CHL1   C14 1274   5.129   3.906   9.093  0.3491 -0.0980 -0.0208
   18CHL1   H14 1275   5.105   3.797   9.093  1.8231 -0.4816  1.7725
   18CHL1   C15 1276   5.274   3.919   9.042  0.1603  0.6238  0.0551
   18CHL1  H15A 1277   5.331   3.999   9.094 -1.9862  1.6177  0.9987
   18CHL1  H15B 1278   5.320   3.819   9.056 -1.7083 -0.1350  1.0839
   18CHL1   C16 1279   5.255   3.950   8.889  0.2409  0.7666 -0.0417
   18CHL1  H16A 1280   5.295   4.053   8.875  0.1104  0.7546 -0.5316
   18CHL1  H16B 1281   5.303   3.893   8.807  2.0624  3.0743 -0.7209
   18CHL1   C17 1282   5.109   3.941   8.856  0.4547 -0.9401 -0.1143
   18CHL1   H17 1283   5.094   3.834   8.830  0.7758 -1.2352  0.8486
   18CHL1   C13 1284   5.037   3.977   8.996 -0.4273  0.5837 -0.0496
   18CHL1   C18 1285   5.022   4.127   9.014 -0.3222  0.8508 -0.5878
   18CHL1  H18A 1286   5.114   4.188   9.002 -0.9186  1.6872 -1.0342
   18CHL1  H18B 1287   4.939   4.155   8.946 -0.1186  0.0120 -1.1979
   18CHL1  H18C 1288   4.985   4.136   9.118 -1.1756 -2.1867 -0.5346
   18CHL1   C12 1289   4.894   3.912   9.021  0.0538 -0.2740 -0.1633
   18CHL1  H12A 1290   4.816   3.961   8.958 -0.5059  0.4001  1.0204
   18CHL1  H12B 1291   4.888   3.805   8.994 -1.2128  0.0578 -1.3341
   18CHL1   C11 1292   4.846   3.931   9.166  0.2404  0.0402  0.5256
   18CHL1  H11A 1293   4.818   4.038   9.172  2.1326  0.6922 -1.1250
   18CHL1  H11B 1294   4.755   3.869   9.177  1.2537 -1.5538  0.2772
   18CHL1    C9 1295   4.955   3.878   9.274 -0.1293 -0.1726  0.1779
   18CHL1    H9 1296   4.955   3.767   9.270 -1.0183 -0.1543 -0.4578
   18CHL1   C10 1297   4.920   3.918   9.423 -0.5367  0.1501  0.0200
   18CHL1   C19 1298   4.881   4.072   9.427 -0.6240 -0.5037  0.2237
   18CHL1  H19A 1299   4.878   4.121   9.526  1.6682 -0.3874  0.2930
   18CHL1  H19B 1300   4.958   4.127   9.369  0.4079 -2.1900 -0.0784
   18CHL1  H19C 1301   4.787   4.086   9.369  0.6544  0.2240 -1.8095
   18CHL1    C1 1302   4.800   3.828   9.456  0.1728 -0.0879  0.1650
   18CHL1   H1A 1303   4.718   3.844   9.383  0.7587  0.1801 -0.4484
   18CHL1   H1B 1304   4.832   3.723   9.438  1.1576  0.1598  0.4077
   18CHL1    C2 1305   4.746   3.848   9.595 -0.5356 -0.4255 -0.3021
   18CHL1   H2A 1306   4.660   3.780   9.615  1.1711 -2.4094  0.6775
   18CHL1   H2B 1307   4.727   3.955   9.616  1.2114  0.2351 -1.8362
   18CHL1   C20 1308   5.065   4.023   8.730  0.4605  0.2512 -0.4242
   18CHL1   H20 1309   5.073   4.132   8.750  0.6478  0.7443 -2.8201
   18CHL1   C21 1310   4.924   3.997   8.686  0.0183 -0.2465  0.3572
   18CHL1  H21A 1311   4.908   3.889   8.663 -1.5698 -0.0727  0.5679
   18CHL1  H21B 1312   4.906   4.056   8.594  1.6561  0.1925  0.2845
   18CHL1  H21C 1313   4.854   4.029   8.767  0.3599  0.3482  0.4202
   18CHL1   C22 1314   5.159   4.001   8.615 -0.3456  0.1389 -0.4386
   18CHL1  H22A 1315   5.143   4.074   8.532  0.9808 -0.5609 -1.3415
   18CHL1  H22B 1316   5.266   4.012   8.643  0.0193  1.7063 -2.2269
   18CHL1   C23 1317   5.139   3.860   8.555 -0.4553  0.4876 -0.7988
   18CHL1  H23A 1318   5.137   3.780   8.631  0.4157  0.7018 -0.5341
   18CHL1  H23B 1319   5.042   3.860   8.501 -1.7435  2.3000  1.3395
   18CHL1   C24 1320   5.252   3.818   8.452  0.1198  0.2461 -0.4061
   18CHL1  H24A 1321   5.249   3.904   8.383  1.0316  0.1128 -0.6185
   18CHL1  H24B 1322   5.349   3.811   8.504 -1.1264 -0.4712  2.0036
   18CHL1   C25 1323   5.219   3.685   8.384 -0.3648 -0.1087 -0.1393
   18CHL1   H25 1324   5.117   3.705   8.346 -0.1094  2.9645  0.4849
   18CHL1   C26 1325   5.297   3.679   8.257 -0.5220 -0.1661  0.3493
   18CHL1  H26A 1326   5.401   3.643   8.271 -0.2749  0.1140 -0.6631
   18CHL1  H26B 1327   5.242   3.621   8.179  2.5882  0.0417 -2.2331
   18CHL1  H26C 1328   5.292   3.779   8.210 -1.5329 -0.2063  0.3376
   18CHL1   C27 1329   5.216   3.554   8.462  0.5030  0.6315 -0.2621
   18CHL1  H27A 1330   5.122   3.561   8.519  0.7807 -1.0144  0.4615
   18CHL1  H27B 1331   5.196   3.472   8.389 -1.9962  1.4317 -0.5566
   18CHL1  H27C 1332   5.298   3.532   8.533  1.1674  0.8523 -0.9406
   19CHL1    C3 1333   1.400   3.774  10.010  0.4551  0.2844  0.6098
   19CHL1    H3 1334   1.293   3.801   9.999  0.5953  0.1396 -1.7515
   19CHL1    O3 1335   1.434   3.769  10.146  0.2773 -0.3201 -0.0842
   19CHL1   H3' 1336   1.526   3.743  10.152  0.3872  0.4396  2.3118
   19CHL1    C4 1337   1.431   3.639   9.934  1.1540 -0.6547 -0.8350
   19CHL1   H4A 1338   1.527   3.593   9.967  0.3439 -1.4549  0.5313
   19CHL1   H4B 1339   1.361   3.563   9.977  2.9345 -0.8256  2.0142
   19CHL1    C5 1340   1.408   3.644   9.785 -0.5415 -0.0750 -0.4289
   19CHL1    C6 1341   1.325   3.564   9.720 -0.1021 -0.7094 -0.0941
   19CHL1    H6 1342   1.270   3.489   9.778  1.6325 -1.5050  0.6153
   19CHL1    C7 1343   1.302   3.565   9.569  0.2270  0.5014 -0.4292
   19CHL1   H7A 1344   1.276   3.468   9.520  3.1832 -1.5305  1.6748
   19CHL1   H7B 1345   1.221   3.637   9.548  0.7696  1.4668  0.6849
   19CHL1    C8 1346   1.426   3.641   9.497 -0.5045  0.4800 -0.2310
   19CHL1    H8 1347   1.511   3.570   9.500  0.4358  1.4426 -2.1573
   19CHL1   C14 1348   1.389   3.663   9.348 -0.3647  0.3493 -1.3908
   19CHL1   H14 1349   1.296   3.723   9.348 -1.5053 -1.2376  1.0108
   19CHL1   C15 1350   1.354   3.537   9.259  0.1175  0.8781 -0.1111
   19CHL1  H15A 1351   1.426   3.456   9.284 -1.3632 -1.6452 -3.2833
   19CHL1  H15B 1352   1.250   3.500   9.264  0.6223 -0.5976 -0.0024
   19CHL1   C16 1353   1.406   3.583   9.118  0.6225  0.4743  0.0306
   19CHL1  H16A 1354   1.478   3.502   9.093 -1.3716 -1.2918 -0.3098
   19CHL1  H16B 1355   1.327   3.571   9.041 -0.2975 -2.6233  1.2901
   19CHL1   C17 1356   1.473   3.724   9.124  0.0392 -0.1935  0.0161
   19CHL1   H17 1357   1.390   3.797   9.112  0.8249  0.4336 -2.0313
   19CHL1   C13 1358   1.507   3.734   9.275  0.2957  0.0462  0.4969
   19CHL1   C18 1359   1.644   3.660   9.283  0.6368  0.6817 -0.3065
   19CHL1  H18A 1360   1.728   3.715   9.235  1.7160 -0.9126 -0.3005
   19CHL1  H18B 1361   1.666   3.636   9.389 -2.6574 -0.5950  0.1928
   19CHL1  H18C 1362   1.626   3.559   9.242 -0.3235  0.1568  1.3299
   19CHL1   C12 1363   1.516   3.878   9.338  0.1527 -0.1165 -0.5157
   19CHL1  H12A 1364   1.589   3.944   9.287  0.8061 -2.0158 -2.2100
   19CHL1  H12B 1365   1.413   3.920   9.328 -0.3434 -1.3079 -0.6235
   19CHL1   C11 1366   1.547   3.873   9.486 -0.1225 -0.1538  0.5449
   19CHL1  H11A 1367   1.654   3.852   9.504  0.8913  1.4643 -2.8069
   19CHL1  H11B 1368   1.538   3.977   9.525  1.0626 -0.7140  2.4245
   19CHL1    C9 1369   1.457   3.773   9.567  0.5213 -0.0359 -0.2590
   19CHL1    H9 1370   1.362   3.830   9.568  0.3117 -0.3179  1.9352
   19CHL1   C10 1371   1.491   3.756   9.715  1.1635 -0.4231  0.0129
   19CHL1   C19 1372   1.642   3.720   9.731 -0.7528  0.3625  0.6463
   19CHL1  H19A 1373   1.697   3.797   9.673 -2.1712 -0.2278 -1.5893
   19CHL1  H19B 1374   1.689   3.725   9.831 -0.0516 -1.5785  0.4663
   19CHL1  H19C 1375   1.654   3.626   9.673 -1.9458  1.5035 -1.5750
   19CHL1    C1 1376   1.464   3.898   9.789  0.0091  0.3524 -0.1199
   19CHL1   H1A 1377   1.548   3.953   9.742  0.2641 -0.1391 -0.2449
   19CHL1   H1B 1378   1.363   3.936   9.765 -0.4382  0.8332  2.2557
   19CHL1    C2 1379   1.476   3.890   9.946  0.5822  1.2133 -0.3565
   19CHL1   H2A 1380   1.449   3.985   9.997  0.1540  0.9643 -0.1155
   19CHL1   H2B 1381   1.581   3.868   9.975  0.2397 -1.1064 -0.7126
   19CHL1   C20 1382   1.567   3.760   9.014 -0.0255  0.2052 -0.6492
   19CHL1   H20 1383   1.659   3.698   9.022 -0.1985  0.0060 -0.2392
   19CHL1   C21 1384   1.618   3.901   9.024 -0.4321  0.1302  0.6234
   19CHL1  H21A 1385   1.678   3.921   9.116 -0.0549 -0.3825  0.4924
   19CHL1  H21B 1386   1.533   3.972   9.027 -0.7048 -0.0506 -1.4037
   19CHL1  H21C 1387   1.683   3.928   8.938  0.8564 -0.2484  1.4430
   19CHL1   C22 1388   1.511   3.723   8.870 -0.3243  0.0549  0.3354
   19CHL1  H22A 1389   1.598   3.743   8.804  0.8741 -1.5210  1.3492
   19CHL1  H22B 1390   1.499   3.612   8.868  2.2281 -0.3213  1.2903
   19CHL1   C23 1391   1.397   3.805   8.825  0.0501  0.2131  0.3666
   19CHL1  H23A 1392   1.307   3.781   8.885 -0.9981  1.6303 -0.5656
   19CHL1  H23B 1393   1.422   3.912   8.845  0.0910  0.3553 -0.3939
   19CHL1   C24 1394   1.375   3.783   8.678  0.3022  0.1667  0.6250
   19CHL1  H24A 1395   1.458   3.816   8.613  0.2739 -1.0840 -0.0878
   19CHL1  H24B 1396   1.361   3.673   8.663 -0.1218  0.4265 -1.0992
   19CHL1   C25 1397   1.241   3.860   8.638  0.0133 -0.4447  0.7270
   19CHL1   H25 1398   1.253   3.967   8.665  1.4519 -0.8305  1.7741
   19CHL1   C26 1399   1.219   3.844   8.484 -0.2144 -0.2421 -0.3598
   19CHL1  H26A 1400   1.129   3.908   8.473  0.6239  1.8712  3.0996
   19CHL1  H26B 1401   1.308   3.885   8.431 -0.6037  1.1038 -0.0067
   19CHL1  H26C 1402   1.206   3.738   8.455  2.9192 -0.4873 -1.2524
   19CHL1   C27 1403   1.118   3.807   8.707  0.1373 -0.2534 -0.1813
   19CHL1  H27A 1404   1.120   3.698   8.730  0.7031  0.3329  3.0180
   19CHL1  H27B 1405   1.117   3.856   8.806 -2.5226  0.1642 -0.3271
   19CHL1  H27C 1406   1.029   3.833   8.645  0.6275 -0.6920 -1.1006
   20CHL1    C3 1407   3.469   2.748   9.746  0.1007 -1.6299  0.6949
   20CHL1    H3 1408   3.499   2.667   9.815  2.7710 -0.5986  0.8629
   20CHL1    O3 1409   3.406   2.853   9.828  0.1118 -0.0269  0.6969
   20CHL1   H3' 1410   3.334   2.809   9.875  2.0426 -0.7755  3.1829
   20CHL1    C4 1411   3.597   2.819   9.683 -0.2561 -0.1590  0.4663
   20CHL1   H4A 1412   3.565   2.916   9.640 -0.1003 -0.4281 -0.2660
   20CHL1   H4B 1413   3.656   2.843   9.774 -1.9460  2.0443  1.0648
   20CHL1    C5 1414   3.669   2.745   9.574  0.3319 -0.2462 -0.8709
   20CHL1    C6 1415   3.798   2.720   9.584  0.4359 -0.3637 -0.0163
   20CHL1    H6 1416   3.844   2.780   9.665 -0.1980  1.9347 -1.2673
   20CHL1    C7 1417   3.882   2.647   9.489 -0.9779  0.1412 -0.1660
   20CHL1   H7A 1418   3.983   2.689   9.477  0.1755 -2.2464  0.5166
   20CHL1   H7B 1419   3.895   2.544   9.530 -0.8668  0.4580  0.6130
   20CHL1    C8 1420   3.806   2.628   9.357  0.7049  0.1066 -0.1987
   20CHL1    H8 1421   3.797   2.730   9.315 -0.7219  0.7511  1.5841
   20CHL1   C14 1422   3.889   2.531   9.272  0.4617 -0.4381  0.0243
   20CHL1   H14 1423   3.892   2.436   9.329 -0.1403 -1.0539 -0.9422
   20CHL1   C15 1424   4.031   2.571   9.240 -0.1107  0.0957 -0.1858
   20CHL1  H15A 1425   4.030   2.675   9.202  0.0210  0.2408  0.1931
   20CHL1  H15B 1426   4.098   2.568   9.329  0.6311  0.2637 -0.7303
   20CHL1   C16 1427   4.066   2.472   9.128 -0.2094 -0.4472  0.1962
   20CHL1  H16A 1428   4.121   2.548   9.068  3.2715 -1.8260  1.3949
   20CHL1  H16B 1429   4.142   2.393   9.145  0.5724  0.4803  1.1313
   20CHL1   C17 1430   3.936   2.402   9.075  0.5267  0.5904  0.2753
   20CHL1   H17 1431   3.939   2.306   9.130 -0.0497  0.5095  0.1707
   20CHL1   C13 1432   3.825   2.489   9.134  0.1851  0.2073 -0.8363
   20CHL1   C18 1433   3.802   2.603   9.036  0.0258  0.4657 -0.4329
   20CHL1  H18A 1434   3.756   2.693   9.084 -1.0063 -0.9361  1.3363
   20CHL1  H18B 1435   3.896   2.647   8.996  2.2254 -2.8822  0.6405
   20CHL1  H18C 1436   3.719   2.580   8.966 -2.1484 -1.3517  2.4791
   20CHL1   C12 1437   3.699   2.415   9.185 -0.0547  0.1772  0.7520
   20CHL1  H12A 1438   3.634   2.377   9.103 -1.4758  0.8801  1.5132
   20CHL1  H12B 1439   3.723   2.327   9.249  1.9051 -0.0169 -0.1991
   20CHL1   C11 1440   3.601   2.516   9.256  0.1266  0.0537 -0.2070
   20CHL1  H11A 1441   3.564   2.589   9.182 -1.0435  1.9421  2.0813
   20CHL1  H11B 1442   3.513   2.455   9.286  0.3228 -0.8752 -1.4433
   20CHL1    C9 1443   3.659   2.578   9.385  0.1982  0.6186 -0.2905
   20CHL1    H9 1444   3.676   2.490   9.452  2.0684  1.5222  0.4988
   20CHL1   C10 1445   3.580   2.685   9.466  0.3404  0.2469  0.7556
   20CHL1   C19 1446   3.541   2.799   9.371  0.7336 -0.8980 -0.1903
   20CHL1  H19A 1447   3.480   2.877   9.423  2.1132 -0.3176  0.6163
   20CHL1  H19B 1448   3.630   2.850   9.327  0.2346  0.6926  0.5611
   20CHL1  H19C 1449   3.483   2.756   9.287 -2.0376  2.7059 -0.4040
   20CHL1    C1 1450   3.447   2.620   9.530  0.5116  0.6272 -0.8320
   20CHL1   H1A 1451   3.376   2.580   9.454  2.0073 -2.0511 -0.9756
   20CHL1   H1B 1452   3.488   2.533   9.585 -0.9934 -1.3300 -2.6076
   20CHL1    C2 1453   3.374   2.706   9.633  0.0106  0.2840 -0.5786
   20CHL1   H2A 1454   3.295   2.640   9.675 -0.4363  2.2178  1.8460
   20CHL1   H2B 1455   3.321   2.791   9.584 -0.0686  0.6766  0.1709
   20CHL1   C20 1456   3.929   2.363   8.929 -0.6852  0.8117 -0.3411
   20CHL1   H20 1457   3.941   2.456   8.870 -2.5680  1.2504 -0.0879
   20CHL1   C21 1458   3.790   2.294   8.895 -0.2506 -0.0421 -0.6098
   20CHL1  H21A 1459   3.795   2.249   8.794  0.3741 -0.3487 -0.4516
   20CHL1  H21B 1460   3.701   2.359   8.890 -0.5543 -0.5588 -3.1081
   20CHL1  H21C 1461   3.774   2.210   8.967  1.0561  1.4687  1.5419
   20CHL1   C22 1462   4.057   2.272   8.893 -0.4632  0.2618  0.4860
   20CHL1  H22A 1463   4.145   2.335   8.914  0.2020 -0.5022  0.0456
   20CHL1  H22B 1464   4.053   2.182   8.959  2.5778 -2.4702 -2.6337
   20CHL1   C23 1465   4.062   2.216   8.748 -0.2460 -0.0475  0.0105
   20CHL1  H23A 1466   3.980   2.149   8.716  1.6053 -2.1343 -0.5633
   20CHL1  H23B 1467   4.072   2.298   8.674  1.0339  1.8450  2.1340
   20CHL1   C24 1468   4.175   2.122   8.731 -0.1780 -0.2103 -0.1753
   20CHL1  H24A 1469   4.265   2.187   8.734 -0.6990  0.5661 -0.9946
   20CHL1  H24B 1470   4.188   2.056   8.820 -0.9682  0.3434  0.3650
   20CHL1   C25 1471   4.171   2.042   8.603 -0.4548 -0.1950  0.8235
   20CHL1   H25 1472   4.088   1.968   8.613 -0.2178 -0.7172 -0.8465
   20CHL1   C26 1473   4.138   2.126   8.481 -0.2718 -0.0056 -0.7631
   20CHL1  H26A 1474   4.151   2.068   8.386 -4.5909 -2.4956 -0.1097
   20CHL1  H26B 1475   4.035   2.167   8.477 -0.1686  0.4099  0.5191
   20CHL1  H26C 1476   4.206   2.213   8.471  1.4730 -1.2926 -0.6840
   20CHL1   C27 1477   4.296   1.960   8.593  0.4763 -0.6035 -0.2902
   20CHL1  H27A 1478   4.396   2.003   8.615  1.8865 -3.2557 -1.0271
   20CHL1  H27B 1479   4.295   1.891   8.681  0.1639  1.0473  1.0607
   20CHL1  H27C 1480   4.305   1.897   8.502  0.2439  0.0386 -0.7595
   21CHL1    C3 1481   4.294   5.098   9.606  0.1251  0.5471  0.0394
   21CHL1    H3 1482   4.387   5.113   9.666 -0.0539 -0.8228  0.7125
   21CHL1    O3 1483   4.182   5.077   9.692  0.1461 -0.2701  0.3095
   21CHL1   H3' 1484   4.205   5.058   9.783 -2.2819 -0.1287  1.0380
   21CHL1    C4 1485   4.259   5.221   9.518  0.4098 -0.3737 -0.1783
   21CHL1   H4A 1486   4.160   5.217   9.468  0.2983  1.2238 -0.1418
   21CHL1   H4B 1487   4.256   5.302   9.594 -2.0268  1.2700 -1.8790
   21CHL1    C5 1488   4.375   5.223   9.418  0.2188 -0.0661 -0.0327
   21CHL1    C6 1489   4.466   5.321   9.422 -0.7938 -0.4750  0.6804
   21CHL1    H6 1490   4.446   5.401   9.494 -0.9473  0.5760 -0.4988
   21CHL1    C7 1491   4.573   5.347   9.320 -0.0007  0.3286  0.6518
   21CHL1   H7A 1492   4.572   5.452   9.284  2.1837 -0.0716 -0.8114
   21CHL1   H7B 1493   4.672   5.333   9.368  0.5742 -1.7613 -0.9571
   21CHL1    C8 1494   4.557   5.259   9.196  0.7492 -0.3120 -0.6127
   21CHL1    H8 1495   4.473   5.301   9.136 -0.9266  0.0396  1.8382
   21CHL1   C14 1496   4.694   5.255   9.118 -0.0617  0.2982 -0.3662
   21CHL1   H14 1497   4.766   5.221   9.196 -0.6586 -0.1402  0.0023
   21CHL1   C15 1498   4.753   5.396   9.065 -0.0699  0.4684  0.4529
   21CHL1  H15A 1499   4.675   5.441   9.000  1.5626 -1.2604 -2.9558
   21CHL1  H15B 1500   4.784   5.457   9.153 -1.1900  0.4500  0.8715
   21CHL1   C16 1501   4.872   5.351   8.970  0.2489  0.3552  0.1894
   21CHL1  H16A 1502   4.850   5.394   8.870  1.9582  0.7849 -0.0333
   21CHL1  H16B 1503   4.975   5.374   9.005  0.6754 -0.3216 -0.5951
   21CHL1   C17 1504   4.853   5.188   8.977 -0.6474 -0.1551 -0.6285
   21CHL1   H17 1505   4.908   5.172   9.072  0.0573  3.4271 -0.2726
   21CHL1   C13 1506   4.710   5.149   9.014  0.1112  0.0688  0.2796
   21CHL1   C18 1507   4.625   5.168   8.886 -0.6004 -0.3672 -0.2657
   21CHL1  H18A 1508   4.651   5.091   8.810  1.8976  0.0851  0.0463
   21CHL1  H18B 1509   4.516   5.158   8.904 -0.7443 -0.9329 -1.3394
   21CHL1  H18C 1510   4.636   5.268   8.838 -0.4825  0.8539  2.1659
   21CHL1   C12 1511   4.688   5.009   9.080  0.3846 -0.0685 -0.3471
   21CHL1  H12A 1512   4.694   4.937   8.996  0.1967 -0.1812 -0.2638
   21CHL1  H12B 1513   4.761   4.975   9.157 -0.0336 -1.7315 -0.6657
   21CHL1   C11 1514   4.542   5.011   9.141 -0.0270  0.4430 -0.2671
   21CHL1  H11A 1515   4.475   5.040   9.058 -2.4143  3.1820  2.3684
   21CHL1  H11B 1516   4.523   4.906   9.175  2.9590  0.3626  1.5174
   21CHL1    C9 1517   4.523   5.122   9.246  0.5170  0.1326 -0.3471
   21CHL1    H9 1518   4.610   5.104   9.313 -0.1923 -0.8743  0.3314
   21CHL1   C10 1519   4.396   5.106   9.326  0.4598 -0.6220  0.3194
   21CHL1   C19 1520   4.278   5.091   9.236 -0.0310  0.2366 -0.0396
   21CHL1  H19A 1521   4.284   4.999   9.174 -1.7345  1.0563 -1.5082
   21CHL1  H19B 1522   4.178   5.092   9.283  0.4291  0.0022  0.9695
   21CHL1  H19C 1523   4.286   5.182   9.172  0.2420  0.7489  0.7105
   21CHL1    C1 1524   4.415   4.975   9.414 -0.2060  0.6421 -0.6014
   21CHL1   H1A 1525   4.409   4.883   9.353  3.0812 -0.4339  0.4702
   21CHL1   H1B 1526   4.519   4.977   9.453 -0.8649  2.4726  1.2257
   21CHL1    C2 1527   4.306   4.967   9.525 -0.0588 -0.2143 -1.1334
   21CHL1   H2A 1528   4.341   4.890   9.597 -1.5713 -1.8704 -2.0854
   21CHL1   H2B 1529   4.208   4.935   9.484  0.3209 -0.7694 -1.6243
   21CHL1   C20 1530   4.928   5.113   8.869  0.1960 -0.6071  0.3683
   21CHL1   H20 1531   4.887   5.010   8.858  2.6843 -1.7701  1.4045
   21CHL1   C21 1532   5.074   5.106   8.915 -0.4507  0.0439  0.2988
   21CHL1  H21A 1533   5.118   5.208   8.916 -0.7824  0.2079 -0.5409
   21CHL1  H21B 1534   5.137   5.055   8.839 -2.8799 -2.7911  0.0200
   21CHL1  H21C 1535   5.088   5.048   9.008 -0.2327 -2.3334 -1.1308
   21CHL1   C22 1536   4.911   5.169   8.726  0.2401 -0.3517 -0.3624
   21CHL1  H22A 1537   4.808   5.206   8.708  0.6059  0.8574 -0.0638
   21CHL1  H22B 1538   4.973   5.259   8.707 -0.1390  0.1583  0.7306
   21CHL1   C23 1539   4.946   5.056   8.620  0.0790 -0.7814  0.2614
   21CHL1  H23A 1540   5.053   5.036   8.642 -0.0205  0.9882  2.8559
   21CHL1  H23B 1541   4.890   4.966   8.652  0.4583 -0.5708  1.5762
   21CHL1   C24 1542   4.923   5.090   8.472  0.4219  0.5923 -0.6726
   21CHL1  H24A 1543   4.813   5.092   8.459 -0.3919 -2.4727  3.5801
   21CHL1  H24B 1544   4.966   5.192   8.467  1.0708  0.5418  2.0100
   21CHL1   C25 1545   4.987   4.994   8.374  0.5995 -0.4405 -0.8108
   21CHL1   H25 1546   5.066   4.941   8.432  1.3917  1.7367  0.2047
   21CHL1   C26 1547   4.882   4.893   8.322 -0.1757 -0.9188 -0.8846
   21CHL1  H26A 1548   4.816   4.947   8.250 -0.4421  0.2413  0.1866
   21CHL1  H26B 1549   4.927   4.806   8.271  1.4297 -1.9912  2.1523
   21CHL1  H26C 1550   4.822   4.843   8.401 -2.5183 -0.0905 -2.0302
   21CHL1   C27 1551   5.039   5.072   8.254 -0.6325 -0.1632 -0.3341
   21CHL1  H27A 1552   5.085   5.012   8.173 -0.5557  1.3757 -1.4598
   21CHL1  H27B 1553   4.951   5.127   8.215 -1.0830  1.4746  2.7086
   21CHL1  H27C 1554   5.115   5.147   8.284  1.9876 -1.9504 -2.1040
   22CHL1    C3 1555   6.010   0.066   9.913  0.0024 -0.8393 -0.5136
   22CHL1    H3 1556   5.944  -0.023   9.923 -0.3136 -0.5043  0.5469
   22CHL1    O3 1557   6.027   0.127  10.038  0.8858  0.1619 -0.0798
   22CHL1   H3' 1558   5.949   0.158  10.086  0.1518 -0.3092 -0.9389
   22CHL1    C4 1559   6.150   0.048   9.863 -0.1216  0.0748  0.6018
   22CHL1   H4A 1560   6.203   0.144   9.880 -0.8581  0.6843 -0.4031
   22CHL1   H4B 1561   6.203  -0.023   9.930  1.4358  0.6768  0.0608
   22CHL1    C5 1562   6.160   0.021   9.718  0.4322  0.2865  0.2613
   22CHL1    C6 1563   6.240  -0.080   9.682 -0.2515  0.1449 -1.2031
   22CHL1    H6 1564   6.295  -0.138   9.758 -0.0174  0.6363 -0.9898
   22CHL1    C7 1565   6.252  -0.131   9.543  0.5417 -0.7440 -0.1203
   22CHL1   H7A 1566   6.359  -0.152   9.522  0.3645 -3.0298  0.9413
   22CHL1   H7B 1567   6.192  -0.225   9.541 -1.6177  0.5350  1.4111
   22CHL1    C8 1568   6.190  -0.033   9.431 -0.0668 -0.3992 -0.5430
   22CHL1    H8 1569   6.269   0.044   9.416  2.0048 -2.0426  1.2849
   22CHL1   C14 1570   6.178  -0.108   9.294  0.1407 -0.1070  0.0892
   22CHL1   H14 1571   6.112  -0.196   9.309  0.1785  0.1315  1.8642
   22CHL1   C15 1572   6.300  -0.178   9.235  0.7884 -0.3303 -0.3841
   22CHL1  H15A 1573   6.375  -0.096   9.243 -0.9663  1.2458  0.5573
   22CHL1  H15B 1574   6.339  -0.266   9.290  1.7345 -0.3267 -1.0217
   22CHL1   C16 1575   6.276  -0.198   9.090  0.8185  0.1374  0.0144
   22CHL1  H16A 1576   6.350  -0.150   9.022  0.7371  0.7787  0.3695
   22CHL1  H16B 1577   6.255  -0.303   9.059  1.8808 -0.0930  0.0429
   22CHL1   C17 1578   6.149  -0.114   9.061  0.3938 -0.2118  0.4135
   22CHL1   H17 1579   6.057  -0.177   9.068 -0.3082  0.7678  0.2272
   22CHL1   C13 1580   6.128  -0.014   9.181  0.2388  0.7681  0.2542
   22CHL1   C18 1581   6.216   0.110   9.160 -0.0664 -0.2513 -0.3050
   22CHL1  H18A 1582   6.318   0.077   9.130 -0.9644 -1.3302 -2.4318
   22CHL1  H18B 1583   6.177   0.166   9.073  1.2431 -0.7386 -1.2438
   22CHL1  H18C 1584   6.215   0.175   9.250 -1.3717  0.1213 -0.5787
   22CHL1   C12 1585   5.985   0.031   9.227  1.3809  0.7055 -0.5986
   22CHL1  H12A 1586   5.921   0.086   9.155  0.7938  2.3893  1.1260
   22CHL1  H12B 1587   5.932  -0.063   9.255 -0.7101  2.1463  0.5456
   22CHL1   C11 1588   5.996   0.109   9.367 -0.3156  0.6064  0.7145
   22CHL1  H11A 1589   6.039   0.210   9.350  1.7533  0.2895  3.3321
   22CHL1  H11B 1590   5.892   0.128   9.401 -1.0276 -1.4415 -0.1849
   22CHL1    C9 1591   6.061   0.032   9.473 -0.0073 -0.7269 -0.1609
   22CHL1    H9 1592   6.001  -0.061   9.487 -1.4091  0.2037  0.2146
   22CHL1   C10 1593   6.069   0.099   9.614 -0.9195  0.1931 -0.2847
   22CHL1   C19 1594   6.136   0.236   9.601 -0.1993 -0.6298  0.4821
   22CHL1  H19A 1595   6.213   0.235   9.521 -0.2844 -1.5310  0.3960
   22CHL1  H19B 1596   6.054   0.304   9.569 -2.0373 -2.8962  0.0007
   22CHL1  H19C 1597   6.186   0.276   9.691  0.8401  0.3170 -0.4821
   22CHL1    C1 1598   5.931   0.116   9.675 -0.6974 -0.1860 -0.3284
   22CHL1   H1A 1599   5.880   0.192   9.612  0.9831  1.9388  0.7518
   22CHL1   H1B 1600   5.878   0.019   9.665  1.4719 -1.3909 -0.7266
   22CHL1    C2 1601   5.928   0.163   9.820  0.1201 -0.2444  0.6855
   22CHL1   H2A 1602   5.823   0.179   9.853 -0.4177 -1.8249 -0.1344
   22CHL1   H2B 1603   5.986   0.256   9.832 -0.9398  0.6415 -0.7704
   22CHL1   C20 1604   6.147  -0.045   8.916 -0.0084 -0.3157  0.2158
   22CHL1   H20 1605   6.235   0.023   8.911  0.0958 -0.4356  0.3977
   22CHL1   C21 1606   6.014   0.028   8.900  0.4274  0.1843  0.2239
   22CHL1  H21A 1607   5.928  -0.036   8.928  0.1961  0.6057  0.4863
   22CHL1  H21B 1608   5.997   0.058   8.794 -1.7871 -1.3100  0.0949
   22CHL1  H21C 1609   6.001   0.117   8.965  0.6541  0.7090 -0.4343
   22CHL1   C22 1610   6.167  -0.151   8.808  0.2546 -0.3458 -0.1596
   22CHL1  H22A 1611   6.261  -0.202   8.837  0.3754 -1.0615 -1.7479
   22CHL1  H22B 1612   6.077  -0.216   8.816  0.0875 -0.0376  0.6115
   22CHL1   C23 1613   6.203  -0.109   8.660 -0.5265 -0.3207 -0.7461
   22CHL1  H23A 1614   6.119  -0.052   8.615  0.8084  1.7678 -0.7526
   22CHL1  H23B 1615   6.289  -0.038   8.665 -0.8604  0.0884 -0.7517
   22CHL1   C24 1616   6.247  -0.218   8.564 -0.4170  0.3507 -0.3516
   22CHL1  H24A 1617   6.340  -0.268   8.601 -0.2298  1.1652  0.3422
   22CHL1  H24B 1618   6.166  -0.293   8.560 -0.6086  0.6045 -1.6870
   22CHL1   C25 1619   6.277  -0.171   8.412 -0.0677  0.4264  0.1460
   22CHL1   H25 1620   6.343  -0.081   8.418  1.5600 -0.8075  3.0813
   22CHL1   C26 1621   6.347  -0.277   8.334 -0.3564  0.1621  0.4488
   22CHL1  H26A 1622   6.364  -0.252   8.227 -0.7615  0.6536  0.4977
   22CHL1  H26B 1623   6.439  -0.308   8.388 -0.3959 -0.5177  0.1460
   22CHL1  H26C 1624   6.289  -0.371   8.326  1.0574 -0.8365  1.5403
   22CHL1   C27 1625   6.147  -0.140   8.345  0.0342  0.1956 -0.1427
   22CHL1  H27A 1626   6.163  -0.138   8.235 -2.3552  2.1787 -0.5252
   22CHL1  H27B 1627   6.072  -0.221   8.362 -0.5600  0.5611 -0.9351
   22CHL1  H27C 1628   6.115  -0.039   8.377 -0.6986  0.5025 -1.7531
   23CHL1    C3 1629   6.446   1.074   9.784 -0.0320  0.0186 -0.9050
   23CHL1    H3 1630   6.512   0.986   9.770 -1.3020 -1.8073  3.0709
   23CHL1    O3 1631   6.429   1.113   9.924 -0.1590 -0.3992  0.2701
   23CHL1   H3' 1632   6.510   1.159   9.945 -0.6351  0.6375 -0.0812
   23CHL1    C4 1633   6.485   1.202   9.711  0.5062 -0.1297  0.6358
   23CHL1   H4A 1634   6.418   1.284   9.741  3.1650  1.5481  2.3837
   23CHL1   H4B 1635   6.583   1.239   9.749 -0.1027  0.9321  1.2080
   23CHL1    C5 1636   6.479   1.181   9.567  0.0595 -0.3935 -0.0649
   23CHL1    C6 1637   6.581   1.209   9.480 -0.2918 -0.2134  0.4592
   23CHL1    H6 1638   6.675   1.250   9.518  1.0853 -1.3368 -1.5630
   23CHL1    C7 1639   6.593   1.175   9.331  0.3538  0.3275 -0.1951
   23CHL1   H7A 1640   6.645   1.260   9.282  3.3244  0.4945  2.8768
   23CHL1   H7B 1641   6.643   1.077   9.313  1.1095  0.6142  0.2909
   23CHL1    C8 1642   6.452   1.150   9.269  0.4760  0.6711  0.2168
   23CHL1    H8 1643   6.404   1.250   9.260  0.5825  0.5986 -1.4852
   23CHL1   C14 1644   6.458   1.074   9.136  0.4532 -0.5471 -0.3152
   23CHL1   H14 1645   6.502   0.974   9.155 -2.1314 -2.0174 -1.5093
   23CHL1   C15 1646   6.551   1.139   9.036 -0.1200 -0.0049  0.2400
   23CHL1  H15A 1647   6.526   1.247   9.023  1.0943  0.2540 -0.0802
   23CHL1  H15B 1648   6.657   1.128   9.070  0.7065  2.3258 -1.3368
   23CHL1   C16 1649   6.514   1.076   8.899  0.7420  0.3405 -0.3029
   23CHL1  H16A 1650   6.503   1.146   8.813  1.3302  0.5081 -0.2450
   23CHL1  H16B 1651   6.588   1.001   8.865  0.2270  0.0091 -0.7239
   23CHL1   C17 1652   6.377   0.994   8.925  0.3805 -0.3551 -1.2476
   23CHL1   H17 1653   6.404   0.888   8.947  2.3132  0.6847  1.9899
   23CHL1   C13 1654   6.328   1.046   9.065  0.0211 -0.2248  0.4839
   23CHL1   C18 1655   6.255   1.185   9.033 -0.0576 -0.1380 -0.5241
   23CHL1  H18A 1656   6.327   1.238   8.969 -0.8163  2.4726  0.6604
   23CHL1  H18B 1657   6.163   1.159   8.977 -0.9438 -0.0584  0.8275
   23CHL1  H18C 1658   6.224   1.249   9.119  0.9415 -0.3185 -0.0139
   23CHL1   C12 1659   6.250   0.953   9.159 -0.1527  0.2585  0.1677
   23CHL1  H12A 1660   6.153   0.920   9.116 -0.3916  0.1147  0.8053
   23CHL1  H12B 1661   6.314   0.863   9.165  1.2592  1.2425  0.2911
   23CHL1   C11 1662   6.233   1.011   9.300 -0.5817 -0.3153  0.2879
   23CHL1  H11A 1663   6.165   1.099   9.291  1.2011  0.9600 -2.1137
   23CHL1  H11B 1664   6.170   0.939   9.356 -0.4134 -1.2146 -0.6414
   23CHL1    C9 1665   6.370   1.070   9.365 -0.1695  0.2540 -0.4793
   23CHL1    H9 1666   6.437   0.985   9.390  0.6965  0.9204 -0.4730
   23CHL1   C10 1667   6.351   1.124   9.516  0.1839  0.1819  0.4085
   23CHL1   C19 1668   6.246   1.244   9.517 -0.5145 -0.3931  0.2256
   23CHL1  H19A 1669   6.240   1.283   9.621 -2.2013 -3.9154  1.6150
   23CHL1  H19B 1670   6.264   1.328   9.448 -1.4892  0.7107  1.2631
   23CHL1  H19C 1671   6.145   1.202   9.497 -1.8178  1.2744  2.7872
   23CHL1    C1 1672   6.288   1.011   9.605  0.3016  0.8628 -0.6325
   23CHL1   H1A 1673   6.181   0.996   9.580  0.4285 -0.2227 -0.5861
   23CHL1   H1B 1674   6.343   0.918   9.576  0.3594  0.5952  0.2914
   23CHL1    C2 1675   6.299   1.039   9.754  0.2869 -0.3431 -0.5220
   23CHL1   H2A 1676   6.258   0.957   9.816 -1.9563  2.0646  1.4185
   23CHL1   H2B 1677   6.234   1.124   9.783  2.1573  0.5253  1.4939
   23CHL1   C20 1678   6.278   0.987   8.803 -0.2261  0.3318 -0.4211
   23CHL1   H20 1679   6.208   1.074   8.802 -0.5338  0.0846 -0.8374
   23CHL1   C21 1680   6.185   0.869   8.825  0.2370 -0.1643 -0.0108
   23CHL1  H21A 1681   6.244   0.775   8.834  0.0384 -0.2237  0.6996
   23CHL1  H21B 1682   6.112   0.859   8.742 -0.4825  0.2850  0.5610
   23CHL1  H21C 1683   6.128   0.875   8.920  1.3368  2.7663  0.5822
   23CHL1   C22 1684   6.347   0.973   8.660  0.4172  0.7184  0.2223
   23CHL1  H22A 1685   6.434   1.042   8.655  0.3158  0.9151  1.0363
   23CHL1  H22B 1686   6.385   0.869   8.658  0.1946  0.5414  2.5274
   23CHL1   C23 1687   6.250   1.007   8.548  0.6026 -0.7337 -0.4523
   23CHL1  H23A 1688   6.296   0.988   8.448  1.0217 -0.4578 -0.3143
   23CHL1  H23B 1689   6.163   0.938   8.555 -1.9053  2.0747 -1.7456
   23CHL1   C24 1690   6.186   1.149   8.543  0.2453 -0.3504 -0.1866
   23CHL1  H24A 1691   6.154   1.190   8.642  0.4373 -0.0729 -0.2369
   23CHL1  H24B 1692   6.264   1.223   8.517  0.0723 -0.0132  0.2297
   23CHL1   C25 1693   6.067   1.158   8.444 -0.2801 -0.0566 -0.3469
   23CHL1   H25 1694   5.996   1.075   8.462 -0.9117  0.1493 -1.7835
   23CHL1   C26 1695   5.984   1.285   8.478 -0.4108 -0.6031 -0.5446
   23CHL1  H26A 1696   6.044   1.378   8.490 -1.0098 -0.2799 -0.0429
   23CHL1  H26B 1697   5.916   1.298   8.391 -2.8045 -0.0319  1.3326
   23CHL1  H26C 1698   5.932   1.276   8.575  1.7738 -0.2436  0.7439
   23CHL1   C27 1699   6.123   1.166   8.299  0.1194  0.4428 -0.4183
   23CHL1  H27A 1700   6.048   1.211   8.231 -0.2147 -1.0854 -1.0966
   23CHL1  H27B 1701   6.210   1.235   8.303 -1.7079  2.8237  0.2647
   23CHL1  H27C 1702   6.138   1.062   8.262 -1.5220 -0.1571  0.5230
   24CHL1    C3 1703   1.320   1.501   9.955  0.2623 -0.0525 -0.2065
   24CHL1    H3 1704   1.429   1.481   9.948  0.4485 -0.3072  2.4558
   24CHL1    O3 1705   1.286   1.479  10.090  0.5475 -0.3111 -0.2415
   24CHL1   H3' 1706   1.222   1.548  10.111  0.0803 -0.3708 -1.3884
   24CHL1    C4 1707   1.299   1.656   9.921  0.2902 -0.0381 -0.0276
   24CHL1   H4A 1708   1.196   1.694   9.938 -1.4089 -2.1440 -4.1930
   24CHL1   H4B 1709   1.362   1.711   9.994 -0.1101  0.7080 -0.2415
   24CHL1    C5 1710   1.317   1.682   9.773 -0.7612  0.2767 -0.0209
   24CHL1    C6 1711   1.393   1.778   9.737 -0.3796 -0.9707 -0.0347
   24CHL1    H6 1712   1.448   1.836   9.813 -1.4760  1.5423 -1.0376
   24CHL1    C7 1713   1.428   1.809   9.592  0.2572  0.7148  0.4112
   24CHL1   H7A 1714   1.418   1.919   9.581 -0.0052  0.8223  1.5377
   24CHL1   H7B 1715   1.534   1.783   9.572 -0.3834 -0.1670 -2.2457
   24CHL1    C8 1716   1.346   1.738   9.487 -0.2489 -0.3730 -0.3608
   24CHL1    H8 1717   1.246   1.785   9.482 -0.3183 -0.4938 -0.1263
   24CHL1   C14 1718   1.407   1.737   9.349 -0.5655 -0.7476 -0.1705
   24CHL1   H14 1719   1.498   1.674   9.359  1.4201  1.9053 -0.4532
   24CHL1   C15 1720   1.452   1.874   9.292  0.2654 -0.4930 -0.0818
   24CHL1  H15A 1721   1.371   1.947   9.312 -1.1494 -1.1371 -2.9247
   24CHL1  H15B 1722   1.542   1.906   9.347 -0.2769  1.3491 -0.1951
   24CHL1   C16 1723   1.453   1.854   9.141  0.0136 -0.5726  0.7753
   24CHL1  H16A 1724   1.389   1.933   9.095  1.4150  0.4002  0.4440
   24CHL1  H16B 1725   1.552   1.874   9.094 -0.6174  0.1587 -0.2964
   24CHL1   C17 1726   1.409   1.705   9.108 -0.7262 -0.0671 -0.1926
   24CHL1   H17 1727   1.498   1.640   9.117 -1.2482 -0.7210  0.3551
   24CHL1   C13 1728   1.330   1.673   9.234 -1.0645 -0.9816  0.4706
   24CHL1   C18 1729   1.195   1.733   9.215 -0.0509 -0.0003 -0.5107
   24CHL1  H18A 1730   1.126   1.675   9.151 -2.5525  1.9370  0.2670
   24CHL1  H18B 1731   1.142   1.749   9.312  0.4843 -0.8876 -0.0503
   24CHL1  H18C 1732   1.200   1.832   9.166  1.8855  0.5552  0.7077
   24CHL1   C12 1733   1.306   1.531   9.276 -0.0169 -0.0325 -0.1892
   24CHL1  H12A 1734   1.241   1.474   9.206  1.7182 -2.3849 -0.0455
   24CHL1  H12B 1735   1.407   1.485   9.285  0.2128  0.6560  1.0172
   24CHL1   C11 1736   1.234   1.515   9.418  0.5161 -0.3724  0.0221
   24CHL1  H11A 1737   1.132   1.556   9.401  0.9269  0.5898 -0.1845
   24CHL1  H11B 1738   1.209   1.413   9.455  0.1529 -0.4547 -0.4373
   24CHL1    C9 1739   1.313   1.593   9.528  0.2840  0.6404 -0.8681
   24CHL1    H9 1740   1.410   1.539   9.529 -0.0792 -0.1157 -2.4875
   24CHL1   C10 1741   1.249   1.579   9.671 -0.3041 -0.0539 -0.3803
   24CHL1   C19 1742   1.104   1.619   9.665 -0.0020  0.0740 -0.6355
   24CHL1  H19A 1743   1.098   1.727   9.640 -0.8464 -0.1727 -1.5590
   24CHL1  H19B 1744   1.048   1.557   9.593 -0.1870  1.1812 -1.4820
   24CHL1  H19C 1745   1.058   1.614   9.766  0.4360  0.8886 -0.3794
   24CHL1    C1 1746   1.267   1.436   9.719  0.0024  0.1342 -0.3342
   24CHL1   H1A 1747   1.216   1.363   9.653 -2.3845  0.5719  0.9018
   24CHL1   H1B 1748   1.374   1.404   9.721  0.3856  0.8915 -3.5418
   24CHL1    C2 1749   1.229   1.414   9.866 -0.0154  0.6932  0.2423
   24CHL1   H2A 1750   1.250   1.312   9.904 -1.1624  0.6086  0.6881
   24CHL1   H2B 1751   1.120   1.425   9.886 -0.2263  0.9788 -0.9273
   24CHL1   C20 1752   1.358   1.670   8.973  1.1420 -0.1682 -0.1714
   24CHL1   H20 1753   1.247   1.672   8.977  1.0988 -2.0281  0.4667
   24CHL1   C21 1754   1.385   1.518   8.950 -0.6777  0.3662  0.3505
   24CHL1  H21A 1755   1.366   1.503   8.841  2.5565  0.6743 -0.3747
   24CHL1  H21B 1756   1.325   1.447   9.010  2.0932 -0.5993  2.2081
   24CHL1  H21C 1757   1.492   1.490   8.962 -1.0580 -1.7815 -0.7585
   24CHL1   C22 1758   1.397   1.768   8.862 -0.4577  0.3223  0.7407
   24CHL1  H22A 1759   1.349   1.867   8.881 -1.3989  0.2692 -1.2180
   24CHL1  H22B 1760   1.508   1.774   8.864 -0.2027 -2.7380 -0.3633
   24CHL1   C23 1761   1.339   1.733   8.721  0.2792  0.3259  0.1320
   24CHL1  H23A 1762   1.387   1.647   8.670 -0.7494 -0.2460  0.0955
   24CHL1  H23B 1763   1.231   1.713   8.736  0.2463 -0.5287 -1.0377
   24CHL1   C24 1764   1.360   1.861   8.634 -0.1574 -0.4597  0.6403
   24CHL1  H24A 1765   1.320   1.844   8.532 -1.5400 -0.1133  1.1050
   24CHL1  H24B 1766   1.292   1.939   8.675  0.1641 -0.2172  0.7223
   24CHL1   C25 1767   1.503   1.924   8.627  0.1052 -0.4560 -0.3787
   24CHL1   H25 1768   1.517   1.964   8.730  0.5721 -1.0514 -0.2060
   24CHL1   C26 1769   1.610   1.819   8.590  0.0616  0.6401 -0.4845
   24CHL1  H26A 1770   1.704   1.872   8.565  1.0887 -0.9433 -0.1194
   24CHL1  H26B 1771   1.634   1.747   8.672  1.5844 -0.3266 -1.7029
   24CHL1  H26C 1772   1.579   1.760   8.501  1.2375 -1.2452  0.2823
   24CHL1   C27 1773   1.487   2.033   8.526  0.6953  0.2909  0.3535
   24CHL1  H27A 1774   1.384   2.075   8.534  0.6090  0.0658  0.4056
   24CHL1  H27B 1775   1.558   2.118   8.536  0.7815  0.3660 -0.7166
   24CHL1  H27C 1776   1.498   1.998   8.421 -3.3778 -2.2847  0.5701
   25CHL1    C3 1777   2.308   4.180   9.953 -0.2902  0.5091 -0.2766
   25CHL1    H3 1778   2.261   4.080   9.969 -1.4918  1.3389  1.9163
   25CHL1    O3 1779   2.322   4.229  10.084  0.4966  0.1994  0.2570
   25CHL1   H3' 1780   2.394   4.292  10.081  0.4224  0.4218  2.0088
   25CHL1    C4 1781   2.455   4.174   9.896  0.5382 -0.3319  0.0619
   25CHL1   H4A 1782   2.504   4.274   9.904  0.4764 -0.2040 -1.0766
   25CHL1   H4B 1783   2.510   4.100   9.958 -2.9185 -2.7566  0.4857
   25CHL1    C5 1784   2.449   4.135   9.748  0.6617  0.7367 -0.4600
   25CHL1    C6 1785   2.509   4.027   9.703 -0.4155  0.1985 -1.1445
   25CHL1    H6 1786   2.560   3.967   9.780 -0.1282  0.5674 -1.0459
   25CHL1    C7 1787   2.527   3.987   9.560  0.1304 -0.1319 -0.2103
   25CHL1   H7A 1788   2.632   3.955   9.539  0.3858  1.5211 -1.7489
   25CHL1   H7B 1789   2.458   3.901   9.546  0.3690 -0.3368 -0.1326
   25CHL1    C8 1790   2.476   4.101   9.460  0.2613 -0.5345  0.5885
   25CHL1    H8 1791   2.553   4.181   9.453  0.0150 -0.2259  1.3150
   25CHL1   C14 1792   2.460   4.046   9.315 -0.0664 -0.3056 -0.1423
   25CHL1   H14 1793   2.387   3.967   9.343  0.1565  0.4795  2.9502
   25CHL1   C15 1794   2.582   3.974   9.260 -0.2025 -0.1966 -0.5521
   25CHL1  H15A 1795   2.674   4.032   9.283  0.0667 -1.5449  2.2122
   25CHL1  H15B 1796   2.611   3.877   9.306 -1.1932 -0.3569 -0.2523
   25CHL1   C16 1797   2.553   3.969   9.106 -0.4907 -0.0814  0.0183
   25CHL1  H16A 1798   2.634   4.022   9.053  1.7404 -1.9267  1.3724
   25CHL1  H16B 1799   2.551   3.867   9.062 -2.0099  0.1406 -0.4783
   25CHL1   C17 1800   2.415   4.034   9.082 -0.3419 -0.0725 -0.0200
   25CHL1   H17 1801   2.337   3.957   9.103 -2.6646  2.1541 -0.0635
   25CHL1   C13 1802   2.404   4.136   9.207 -0.7410 -0.4353  0.5267
   25CHL1   C18 1803   2.497   4.257   9.185 -0.6497  0.0070  0.0009
   25CHL1  H18A 1804   2.598   4.229   9.147 -0.9827 -0.7316 -0.3461
   25CHL1  H18B 1805   2.454   4.323   9.107  1.1042 -0.8366 -1.7914
   25CHL1  H18C 1806   2.518   4.322   9.273 -1.2899  4.6263 -2.9076
   25CHL1   C12 1807   2.274   4.190   9.267  0.1803 -0.3625  0.1276
   25CHL1  H12A 1808   2.233   4.263   9.194  1.0887  0.6565  0.6041
   25CHL1  H12B 1809   2.204   4.106   9.287  1.3513 -1.2967  0.5031
   25CHL1   C11 1810   2.288   4.255   9.404  0.2862 -1.0387 -0.5240
   25CHL1  H11A 1811   2.354   4.344   9.405  0.8116 -1.3608  2.3407
   25CHL1  H11B 1812   2.191   4.290   9.445  0.4223 -0.5930 -0.5761
   25CHL1    C9 1813   2.354   4.164   9.512 -0.8767 -0.1235 -0.0892
   25CHL1    H9 1814   2.288   4.076   9.522  0.3533 -1.2370 -1.2947
   25CHL1   C10 1815   2.374   4.225   9.656  0.2731  0.6464  0.0139
   25CHL1   C19 1816   2.454   4.359   9.642  0.4588  0.5666  0.4959
   25CHL1  H19A 1817   2.479   4.412   9.736 -0.9706  4.0442 -0.8832
   25CHL1  H19B 1818   2.544   4.339   9.580 -0.9418  0.1247 -1.4975
   25CHL1  H19C 1819   2.394   4.427   9.577  1.3713  1.0977  0.1834
   25CHL1    C1 1820   2.226   4.245   9.712 -0.3325 -0.3908 -0.3686
   25CHL1   H1A 1821   2.183   4.331   9.655 -1.0738 -1.3966 -1.3712
   25CHL1   H1B 1822   2.162   4.156   9.695  2.0418 -2.4834  0.9920
   25CHL1    C2 1823   2.224   4.278   9.866 -0.3255  0.0892 -0.1973
   25CHL1   H2A 1824   2.115   4.284   9.890 -0.4918  0.7671 -1.0640
   25CHL1   H2B 1825   2.271   4.376   9.888 -0.2690  0.4930 -1.9805
   25CHL1   C20 1826   2.401   4.096   8.941  0.1873 -0.3610  0.0764
   25CHL1   H20 1827   2.477   4.177   8.929 -2.2231  1.8149 -1.5858
   25CHL1   C21 1828   2.262   4.147   8.933  0.8437 -0.2259 -0.4862
   25CHL1  H21A 1829   2.238   4.182   8.831  0.6054 -0.7974 -0.6286
   25CHL1  H21B 1830   2.259   4.242   8.990 -0.6221 -1.0162  0.8268
   25CHL1  H21C 1831   2.176   4.085   8.964  0.2717  0.6658 -0.2420
   25CHL1   C22 1832   2.442   3.992   8.837  0.0188 -0.0149 -0.0730
   25CHL1  H22A 1833   2.549   3.963   8.846 -0.4582 -2.0030 -0.2705
   25CHL1  H22B 1834   2.385   3.897   8.846  0.4627 -0.3425 -0.6318
   25CHL1   C23 1835   2.423   4.050   8.693  0.2675 -0.2513 -0.3678
   25CHL1  H23A 1836   2.318   4.079   8.673  0.0491 -0.5546  0.3049
   25CHL1  H23B 1837   2.495   4.132   8.674  0.6962 -0.0817  1.6851
   25CHL1   C24 1838   2.448   3.944   8.585  0.2110  0.4184 -0.0908
   25CHL1  H24A 1839   2.549   3.902   8.602  0.3618  0.2431 -1.3795
   25CHL1  H24B 1840   2.371   3.866   8.600  0.3988  0.1680 -0.4304
   25CHL1   C25 1841   2.454   3.993   8.438 -0.2125  0.5406 -0.0997
   25CHL1   H25 1842   2.511   4.087   8.427  0.5578  0.0964  0.0136
   25CHL1   C26 1843   2.506   3.889   8.339  0.1906 -0.3121  0.0138
   25CHL1  H26A 1844   2.436   3.804   8.339 -0.8849  0.3858  3.6475
   25CHL1  H26B 1845   2.514   3.927   8.235 -0.0840  0.0491  0.1228
   25CHL1  H26C 1846   2.608   3.852   8.363 -0.1744 -2.4268 -1.4292
   25CHL1   C27 1847   2.307   4.032   8.395  0.2907  0.5048 -0.3453
   25CHL1  H27A 1848   2.262   4.101   8.470  1.0643  0.0133  0.6077
   25CHL1  H27B 1849   2.311   4.087   8.299  0.6562  0.2908 -0.4554
   25CHL1  H27C 1850   2.248   3.939   8.379 -0.1112  0.3805  1.5707
   26CHL1    C3 1851   5.958   6.528  10.091  0.4578 -0.3002 -0.0192
   26CHL1    H3 1852   5.960   6.637  10.070  2.4028  0.0517  1.6736
   26CHL1    O3 1853   6.005   6.489  10.224 -0.3515  0.0300 -0.0701
   26CHL1   H3' 1854   5.981   6.398  10.244 -1.6544  0.6610  1.3787
   26CHL1    C4 1855   5.819   6.469  10.084 -0.5159 -0.1934  0.3970
   26CHL1   H4A 1856   5.825   6.360  10.104 -0.2990 -0.2655 -0.0698
   26CHL1   H4B 1857   5.755   6.506  10.167 -0.8013 -2.6238  1.3528
   26CHL1    C5 1858   5.759   6.489   9.945  0.2133 -0.1248 -0.6005
   26CHL1    C6 1859   5.630   6.536   9.930 -0.3279  0.6243  0.4577
   26CHL1    H6 1860   5.576   6.570  10.020 -2.7508 -0.8088 -0.3650
   26CHL1    C7 1861   5.586   6.569   9.794 -0.4837 -0.0129  0.3855
   26CHL1   H7A 1862   5.476   6.550   9.788 -0.7018  0.4529  2.2476
   26CHL1   H7B 1863   5.599   6.678   9.773 -0.8132 -0.1913 -0.8065
   26CHL1    C8 1864   5.646   6.483   9.677  0.3755 -0.2107  0.4659
   26CHL1    H8 1865   5.613   6.379   9.697  3.1607 -1.0917  0.8727
   26CHL1   C14 1866   5.607   6.528   9.537  0.5120  0.1445 -0.4188
   26CHL1   H14 1867   5.631   6.636   9.522  1.3767  0.0562  0.2340
   26CHL1   C15 1868   5.455   6.505   9.507 -0.2800 -0.0008  0.2708
   26CHL1  H15A 1869   5.425   6.416   9.566  2.7930  0.0612  2.1595
   26CHL1  H15B 1870   5.391   6.592   9.536  1.1395  0.3232  2.7688
   26CHL1   C16 1871   5.449   6.504   9.349  0.4316  0.0431  0.3515
   26CHL1  H16A 1872   5.383   6.420   9.321  0.9974 -0.4418  0.4438
   26CHL1  H16B 1873   5.409   6.602   9.314 -2.7083 -1.0583  0.5403
   26CHL1   C17 1874   5.595   6.506   9.304 -1.0674  0.2118  0.4611
   26CHL1   H17 1875   5.633   6.608   9.281 -0.3310 -0.1860 -0.1427
   26CHL1   C13 1876   5.676   6.457   9.421 -0.6621 -0.4745 -0.0848
   26CHL1   C18 1877   5.655   6.305   9.438  0.9427 -0.5815 -0.4312
   26CHL1  H18A 1878   5.546   6.284   9.432  1.2347 -2.1857 -0.4679
   26CHL1  H18B 1879   5.703   6.255   9.352  2.5650  0.0302  0.0833
   26CHL1  H18C 1880   5.703   6.268   9.531  2.9620  2.2454 -0.1995
   26CHL1   C12 1881   5.824   6.488   9.424  0.0222 -0.0292  0.2495
   26CHL1  H12A 1882   5.868   6.425   9.345 -2.9228 -0.1411 -1.4497
   26CHL1  H12B 1883   5.847   6.596   9.412 -0.9227 -0.0899 -2.6111
   26CHL1   C11 1884   5.879   6.448   9.560  1.0195  0.4278 -0.2594
   26CHL1  H11A 1885   5.890   6.338   9.566 -0.3314  0.2862  0.0832
   26CHL1  H11B 1886   5.975   6.499   9.579  0.5064  1.0439  0.7761
   26CHL1    C9 1887   5.794   6.490   9.694 -0.6455  0.1803 -0.1325
   26CHL1    H9 1888   5.810   6.600   9.705  2.4874 -0.3283  1.4428
   26CHL1   C10 1889   5.846   6.443   9.831 -0.3107  0.0842 -0.2951
   26CHL1   C19 1890   5.850   6.285   9.839  0.5319  0.0206  0.4405
   26CHL1  H19A 1891   5.747   6.247   9.822  0.4987 -1.1710  2.9705
   26CHL1  H19B 1892   5.918   6.231   9.770 -1.0650 -0.9110 -0.4991
   26CHL1  H19C 1893   5.884   6.244   9.936  1.0837 -0.6070 -0.0128
   26CHL1    C1 1894   5.991   6.488   9.845 -0.4275  0.5845 -0.7956
   26CHL1   H1A 1895   6.061   6.429   9.783  1.0617  1.0725  0.3657
   26CHL1   H1B 1896   5.999   6.594   9.810  0.4486  0.0976 -2.1780
   26CHL1    C2 1897   6.047   6.464   9.986  0.3705 -0.4235 -0.4029
   26CHL1   H2A 1898   6.143   6.520   9.988  0.2569 -0.2333  1.1082
   26CHL1   H2B 1899   6.059   6.355   9.998 -1.6309 -0.7458 -1.0322
   26CHL1   C20 1900   5.609   6.434   9.162  0.0930  0.3557 -1.1638
   26CHL1   H20 1901   5.629   6.325   9.174 -0.8992 -0.1284 -3.4090
   26CHL1   C21 1902   5.736   6.505   9.101  0.8104  0.2217  0.1436
   26CHL1  H21A 1903   5.718   6.613   9.086 -1.3910  0.2114  2.1500
   26CHL1  H21B 1904   5.762   6.455   9.005 -0.0203  2.2051 -1.1925
   26CHL1  H21C 1905   5.829   6.496   9.161  1.0749  2.1395  0.0750
   26CHL1   C22 1906   5.484   6.446   9.066  0.1119 -0.1012  0.4528
   26CHL1  H22A 1907   5.396   6.423   9.130 -0.1962 -1.0339 -0.2761
   26CHL1  H22B 1908   5.469   6.551   9.032  1.7660 -0.1167 -0.4453
   26CHL1   C23 1909   5.476   6.354   8.942 -0.4459 -0.0465  0.1436
   26CHL1  H23A 1910   5.370   6.366   8.912  0.3485  0.3127 -2.8142
   26CHL1  H23B 1911   5.541   6.395   8.862  0.7738 -0.9001  0.6658
   26CHL1   C24 1912   5.505   6.209   8.971 -0.2240  0.3559 -0.2335
   26CHL1  H24A 1913   5.614   6.196   8.989 -0.7166 -0.5163  2.6613
   26CHL1  H24B 1914   5.455   6.167   9.062  2.7751 -0.8630  1.0218
   26CHL1   C25 1915   5.476   6.111   8.851  0.1660 -0.3906  0.3351
   26CHL1   H25 1916   5.369   6.122   8.821  0.3804 -0.0057 -0.2952
   26CHL1   C26 1917   5.554   6.171   8.729 -0.3968  0.1152  0.0100
   26CHL1  H26A 1918   5.553   6.113   8.635  1.3635  1.4705 -0.9033
   26CHL1  H26B 1919   5.515   6.274   8.713  2.0477  0.9964 -0.5922
   26CHL1  H26C 1920   5.660   6.186   8.759 -0.6750  1.3336  0.4769
   26CHL1   C27 1921   5.500   5.967   8.884  0.1690 -0.1267 -0.3255
   26CHL1  H27A 1922   5.605   5.961   8.918  0.2867  1.3836 -0.3496
   26CHL1  H27B 1923   5.425   5.932   8.959  0.3366  0.4380  0.1110
   26CHL1  H27C 1924   5.496   5.894   8.800 -1.9896 -2.2816  1.4807
   27CHL1    C3 1925   3.938   3.450   9.422 -0.7373 -0.2493 -0.7431
   27CHL1    H3 1926   3.892   3.351   9.399  0.8914 -1.2181  0.0227
   27CHL1    O3 1927   3.959   3.456   9.566  0.3756  0.1642  0.3044
   27CHL1   H3' 1928   4.025   3.388   9.585 -0.7981 -0.5961  1.9297
   27CHL1    C4 1929   4.058   3.468   9.344  0.5986  0.4831  0.4067
   27CHL1   H4A 1930   4.111   3.558   9.383  1.5731  0.1423 -0.0851
   27CHL1   H4B 1931   4.128   3.387   9.373 -0.6110 -0.1527  1.6440
   27CHL1    C5 1932   4.037   3.464   9.189 -0.8034  0.3772 -0.4089
   27CHL1    C6 1933   4.097   3.370   9.112  0.1151 -0.3190  0.1390
   27CHL1    H6 1934   4.162   3.292   9.154  1.7876  0.6639 -0.5608
   27CHL1    C7 1935   4.079   3.369   8.964 -0.3047 -0.1666 -0.3931
   27CHL1   H7A 1936   4.175   3.361   8.909  0.1979 -0.7199  0.5483
   27CHL1   H7B 1937   4.015   3.281   8.941  0.0692 -0.0381 -2.0717
   27CHL1    C8 1938   4.012   3.501   8.903  0.3023 -0.1303 -0.2837
   27CHL1    H8 1939   4.085   3.585   8.907  1.8209 -1.2277 -2.6256
   27CHL1   C14 1940   3.962   3.468   8.761 -0.6337 -0.1127 -0.2293
   27CHL1   H14 1941   3.878   3.396   8.774 -0.4905 -0.3150 -0.4098
   27CHL1   C15 1942   4.062   3.397   8.662 -0.1401  0.3799  0.2026
   27CHL1  H15A 1943   4.164   3.440   8.660 -0.1281  0.6386  2.8297
   27CHL1  H15B 1944   4.065   3.287   8.679  0.7303  0.0834 -1.6849
   27CHL1   C16 1945   3.986   3.420   8.527  0.3781  0.9364  0.6210
   27CHL1  H16A 1946   4.061   3.450   8.450  0.2112  0.2057  0.1635
   27CHL1  H16B 1947   3.938   3.325   8.498 -0.6168  1.4062  0.6895
   27CHL1   C17 1948   3.870   3.524   8.551 -0.4017 -1.0663  0.7090
   27CHL1   H17 1949   3.774   3.471   8.571 -1.6118  0.6995 -0.1757
   27CHL1   C13 1950   3.907   3.587   8.686  0.4001  0.5793  0.0042
   27CHL1   C18 1951   4.016   3.689   8.650 -1.0905  0.2767 -0.4673
   27CHL1  H18A 1952   4.086   3.710   8.733  0.9921  0.7810 -2.2407
   27CHL1  H18B 1953   4.086   3.647   8.574 -1.2178 -0.3436 -0.2492
   27CHL1  H18C 1954   3.976   3.787   8.617  0.8683  1.2272 -0.1642
   27CHL1   C12 1955   3.795   3.655   8.774 -0.5287 -0.1869 -0.0201
   27CHL1  H12A 1956   3.742   3.748   8.742 -1.0317 -0.0223  1.2330
   27CHL1  H12B 1957   3.711   3.583   8.774  0.2390 -1.0955 -0.2461
   27CHL1   C11 1958   3.839   3.673   8.920 -0.5229  0.1224 -0.8837
   27CHL1  H11A 1959   3.923   3.744   8.905  1.0509 -0.8239  2.5428
   27CHL1  H11B 1960   3.754   3.722   8.973 -1.1432 -0.8247 -0.9823
   27CHL1    C9 1961   3.897   3.549   8.988 -0.2232 -0.3274  0.7654
   27CHL1    H9 1962   3.834   3.458   8.985  1.0789 -1.2491  0.5667
   27CHL1   C10 1963   3.938   3.569   9.138 -0.1987  0.2215  0.1299
   27CHL1   C19 1964   4.016   3.699   9.146 -0.4365  0.0224  0.0932
   27CHL1  H19A 1965   4.107   3.710   9.084 -1.3284  0.9345 -1.0970
   27CHL1  H19B 1966   3.946   3.776   9.108 -1.0057 -1.5163 -2.1494
   27CHL1  H19C 1967   4.046   3.730   9.248  0.6712  0.7511 -0.4363
   27CHL1    C1 1968   3.809   3.563   9.229 -1.0464  0.3810  1.1535
   27CHL1   H1A 1969   3.751   3.656   9.207 -1.5362 -0.0211  0.7089
   27CHL1   H1B 1970   3.744   3.476   9.206 -1.3652  0.9830 -0.3587
   27CHL1    C2 1971   3.832   3.557   9.383  0.6898  0.5452  0.0858
   27CHL1   H2A 1972   3.733   3.535   9.430 -0.9628  3.3347 -1.8278
   27CHL1   H2B 1973   3.867   3.656   9.420 -1.6497  1.2362  0.6238
   27CHL1   C20 1974   3.846   3.611   8.434 -1.0920 -0.2059  0.2246
   27CHL1   H20 1975   3.932   3.678   8.418 -0.7389 -0.9613 -1.1696
   27CHL1   C21 1976   3.732   3.706   8.457 -0.2900  0.0069  0.5161
   27CHL1  H21A 1977   3.642   3.643   8.477 -0.1554 -0.9821 -1.7067
   27CHL1  H21B 1978   3.705   3.772   8.372  0.1777 -1.4851 -0.8594
   27CHL1  H21C 1979   3.753   3.776   8.540  1.7697 -1.1527  1.0285
   27CHL1   C22 1980   3.817   3.538   8.303 -0.6208  0.2755  0.5678
   27CHL1  H22A 1981   3.794   3.608   8.220 -0.6602 -0.0025  0.3428
   27CHL1  H22B 1982   3.912   3.493   8.266 -1.9418  1.0841 -4.5853
   27CHL1   C23 1983   3.710   3.423   8.296 -0.1847 -1.0137  0.0136
   27CHL1  H23A 1984   3.756   3.343   8.358  1.8814 -0.7691 -1.1016
   27CHL1  H23B 1985   3.622   3.459   8.354  1.6771 -0.7504  2.9076
   27CHL1   C24 1986   3.685   3.379   8.153  0.2004 -0.5327 -0.3658
   27CHL1  H24A 1987   3.651   3.465   8.092  2.1443  0.2197 -0.4340
   27CHL1  H24B 1988   3.781   3.351   8.105  0.7914  3.2945 -1.7377
   27CHL1   C25 1989   3.598   3.258   8.142  0.4646 -0.0404 -0.0715
   27CHL1   H25 1990   3.671   3.175   8.148 -0.0006 -0.5194 -0.8059
   27CHL1   C26 1991   3.479   3.253   8.240 -0.4304 -0.3505 -0.3485
   27CHL1  H26A 1992   3.413   3.164   8.237 -1.1369 -0.0901  3.0837
   27CHL1  H26B 1993   3.528   3.249   8.340  0.8351  0.7955 -0.8859
   27CHL1  H26C 1994   3.426   3.350   8.239  0.5960  0.2205 -0.7343
   27CHL1   C27 1995   3.522   3.261   8.009 -0.2374  0.7383  0.0033
   27CHL1  H27A 1996   3.596   3.269   7.927  1.0446  1.8468  1.2116
   27CHL1  H27B 1997   3.452   3.177   7.990 -0.5419  1.1640 -0.8182
   27CHL1  H27C 1998   3.455   3.350   8.009 -3.4527 -1.4804  0.4438
   28CHL1    C3 1999   2.913   2.152  10.000 -0.1619  0.4661  0.3581
   28CHL1    H3 2000   3.023   2.150  10.019 -0.0289  2.9523  0.1365
   28CHL1    O3 2001   2.833   2.153  10.116 -0.2686 -0.0587 -0.2840
   28CHL1   H3' 2002   2.851   2.072  10.164 -1.2812 -0.6361 -0.8341
   28CHL1    C4 2003   2.890   2.270   9.905  0.2607  0.0910 -0.8956
   28CHL1   H4A 2004   2.781   2.288   9.895 -0.2330 -1.9005  0.2524
   28CHL1   H4B 2005   2.934   2.349   9.970 -1.2040 -1.3600  2.0596
   28CHL1    C5 2006   2.962   2.264   9.771 -0.0537 -0.4407  1.0498
   28CHL1    C6 2007   3.054   2.352   9.731  0.0506 -0.2026  0.2262
   28CHL1    H6 2008   3.064   2.444   9.791  0.6689  0.2371 -0.5294
   28CHL1    C7 2009   3.131   2.336   9.602 -0.8168 -0.2273 -0.2794
   28CHL1   H7A 2010   3.157   2.434   9.557 -0.8078 -0.9561 -1.9044
   28CHL1   H7B 2011   3.230   2.296   9.634 -1.1590  0.9088  2.5646
   28CHL1    C8 2012   3.065   2.241   9.502 -0.6646 -0.2556 -0.5828
   28CHL1    H8 2013   2.978   2.295   9.461 -0.8475  1.2200  1.6005
   28CHL1   C14 2014   3.158   2.206   9.390 -0.2704  0.2336  0.2889
   28CHL1   H14 2015   3.241   2.151   9.440 -0.7363  0.4827  1.3628
   28CHL1   C15 2016   3.222   2.317   9.312 -0.4873 -0.4122  0.3343
   28CHL1  H15A 2017   3.151   2.391   9.270  0.8096  0.2684 -0.7421
   28CHL1  H15B 2018   3.302   2.375   9.363 -0.8135  0.6141 -0.2990
   28CHL1   C16 2019   3.285   2.236   9.192  0.1693 -0.1221  0.4359
   28CHL1  H16A 2020   3.267   2.298   9.102  0.7349  0.3581  0.6474
   28CHL1  H16B 2021   3.394   2.232   9.215  0.1486  1.6014  0.9904
   28CHL1   C17 2022   3.226   2.091   9.196  0.1197 -0.5138  0.2385
   28CHL1   H17 2023   3.304   2.042   9.258  1.0841 -0.8771 -1.2178
   28CHL1   C13 2024   3.103   2.111   9.284 -0.8950  0.0942 -0.6454
   28CHL1   C18 2025   2.986   2.169   9.207  0.7533  0.4567 -0.0869
   28CHL1  H18A 2026   2.917   2.105   9.148  0.0983  0.5270  0.5862
   28CHL1  H18B 2027   2.919   2.227   9.274  1.5069  2.2605 -0.8320
   28CHL1  H18C 2028   3.036   2.231   9.129  2.7778  0.9960  1.5652
   28CHL1   C12 2029   3.063   1.977   9.353 -0.1083 -0.0520 -0.2724
   28CHL1  H12A 2030   3.013   1.912   9.278 -1.0888  0.6411 -0.2352
   28CHL1  H12B 2031   3.156   1.926   9.389 -0.0151 -0.4046 -0.9968
   28CHL1   C11 2032   2.961   2.002   9.469 -0.2937  0.2257  0.0807
   28CHL1  H11A 2033   2.864   2.040   9.431 -0.9609 -0.6656  0.8670
   28CHL1  H11B 2034   2.933   1.909   9.522  1.1693 -0.8622 -0.9766
   28CHL1    C9 2035   3.017   2.110   9.573  0.2031  0.2712 -0.1964
   28CHL1    H9 2036   3.117   2.067   9.597  0.7121  1.0521 -0.8545
   28CHL1   C10 2037   2.931   2.132   9.694  0.2353 -0.1213 -0.3083
   28CHL1   C19 2038   2.785   2.141   9.652 -0.1556  0.8832 -0.4054
   28CHL1  H19A 2039   2.714   2.155   9.736 -2.3595  0.4702 -2.1075
   28CHL1  H19B 2040   2.765   2.234   9.594  0.1540  0.9752 -0.3690
   28CHL1  H19C 2041   2.748   2.047   9.607 -1.3888  0.6323  1.0439
   28CHL1    C1 2042   2.953   2.007   9.789  0.5207  0.3569  0.0191
   28CHL1   H1A 2043   2.938   1.911   9.735  3.5662 -0.6932  0.8214
   28CHL1   H1B 2044   3.058   2.017   9.824  0.9915  3.1353 -1.8752
   28CHL1    C2 2045   2.879   2.013   9.927 -0.4409  0.3454  0.0332
   28CHL1   H2A 2046   2.890   1.923   9.992 -1.1571 -0.2882 -0.6937
   28CHL1   H2B 2047   2.770   2.023   9.907 -0.2506  0.5628 -0.9881
   28CHL1   C20 2048   3.216   2.028   9.056  0.4526  0.1624 -0.3210
   28CHL1   H20 2049   3.140   2.088   9.002  0.2823  0.7477  0.5403
   28CHL1   C21 2050   3.162   1.884   9.048  0.8350  0.1679  0.7867
   28CHL1  H21A 2051   3.221   1.801   9.093  0.6503 -0.6217 -0.4096
   28CHL1  H21B 2052   3.152   1.855   8.942 -1.5320  0.6387  0.8281
   28CHL1  H21C 2053   3.059   1.879   9.090 -0.6173  3.6557 -1.8613
   28CHL1   C22 2054   3.344   2.054   8.969 -0.0514  0.0720  0.1880
   28CHL1  H22A 2055   3.355   2.165   8.965  0.8239  0.4881  5.7477
   28CHL1  H22B 2056   3.440   2.033   9.021  1.3402  1.2948 -1.7465
   28CHL1   C23 2057   3.346   1.990   8.828 -0.3458 -0.9665  0.2108
   28CHL1  H23A 2058   3.403   1.896   8.846 -0.2959 -0.6546  1.8265
   28CHL1  H23B 2059   3.240   1.970   8.802 -0.4234 -1.0115  0.5476
   28CHL1   C24 2060   3.426   2.066   8.718 -0.0102 -0.0266  0.1010
   28CHL1  H24A 2061   3.357   2.152   8.702  0.3742  0.2060 -0.3376
   28CHL1  H24B 2062   3.520   2.098   8.769  0.0537 -0.5973  0.3510
   28CHL1   C25 2063   3.463   2.000   8.581  0.3952  0.5671 -1.0714
   28CHL1   H25 2064   3.533   1.914   8.597  2.1506  1.9198 -1.2279
   28CHL1   C26 2065   3.333   1.938   8.519 -0.6276  0.9330  0.0445
   28CHL1  H26A 2066   3.274   1.897   8.603 -1.2322  0.6350 -0.5162
   28CHL1  H26B 2067   3.264   2.012   8.474 -2.1823 -0.5319 -0.1167
   28CHL1  H26C 2068   3.365   1.860   8.446  0.2490  1.2403  0.0883
   28CHL1   C27 2069   3.538   2.105   8.501 -0.0090  0.3939  0.2986
   28CHL1  H27A 2070   3.570   2.079   8.398  3.0841 -0.9517  1.4727
   28CHL1  H27B 2071   3.481   2.200   8.492  0.4404  0.5933 -0.6073
   28CHL1  H27C 2072   3.634   2.118   8.556  0.9128  0.7595 -1.3478
   29CHL1    C3 2073   5.572   2.029   6.789 -0.4503  0.4394  0.2606
   29CHL1    H3 2074   5.473   1.980   6.773  0.1958  0.2649 -5.2992
   29CHL1    O3 2075   5.623   2.057   6.659 -0.0893 -0.1791 -0.5194
   29CHL1   H3' 2076   5.545   2.056   6.603 -0.0328  1.7219 -0.6890
   29CHL1    C4 2077   5.561   2.168   6.864  0.0402  0.2419  0.1764
   29CHL1   H4A 2078   5.655   2.227   6.862  0.7327 -0.8496 -0.4961
   29CHL1   H4B 2079   5.497   2.229   6.797  0.8266  1.4626  0.5270
   29CHL1    C5 2080   5.503   2.144   7.001 -0.3751 -0.0940 -0.1459
   29CHL1    C6 2081   5.380   2.190   7.029 -0.5765 -0.3655  0.3661
   29CHL1    H6 2082   5.330   2.265   6.965  1.0382  0.5491  0.1241
   29CHL1    C7 2083   5.296   2.171   7.159  0.1054 -0.3586  0.4497
   29CHL1   H7A 2084   5.262   2.268   7.200  0.5894 -0.2563  0.6253
   29CHL1   H7B 2085   5.210   2.107   7.132  0.1813 -0.8620  1.3656
   29CHL1    C8 2086   5.391   2.110   7.263  0.7378 -0.2641  0.8568
   29CHL1    H8 2087   5.457   2.197   7.286 -1.6611  2.0622 -0.5653
   29CHL1   C14 2088   5.305   2.066   7.381 -0.1288  0.1697 -0.0212
   29CHL1   H14 2089   5.254   1.971   7.353 -1.3950  0.5498  0.9139
   29CHL1   C15 2090   5.197   2.162   7.427  0.5810  0.1559 -0.2029
   29CHL1  H15A 2091   5.224   2.270   7.415 -0.2327  0.5059  0.9075
   29CHL1  H15B 2092   5.108   2.152   7.362  1.5865 -0.9959 -1.4455
   29CHL1   C16 2093   5.176   2.122   7.576  0.1327 -0.2953  0.1982
   29CHL1  H16A 2094   5.165   2.218   7.631  0.3047 -1.0601  1.6093
   29CHL1  H16B 2095   5.084   2.066   7.603  0.5680 -0.8419  0.5622
   29CHL1   C17 2096   5.284   2.022   7.616  0.6360 -0.0903  0.2306
   29CHL1   H17 2097   5.242   1.920   7.609  1.8289 -0.5416 -0.7622
   29CHL1   C13 2098   5.397   2.045   7.507 -0.5322  0.2041  0.3067
   29CHL1   C18 2099   5.466   2.178   7.541  0.2050  0.2282  0.2151
   29CHL1  H18A 2100   5.514   2.183   7.641  1.0632  1.4524 -0.2364
   29CHL1  H18B 2101   5.549   2.204   7.472  1.1841 -2.5125  0.2294
   29CHL1  H18C 2102   5.397   2.265   7.544  0.5243  0.4760  0.5635
   29CHL1   C12 2103   5.491   1.919   7.475 -0.1988  0.5333  0.4583
   29CHL1  H12A 2104   5.550   1.906   7.568  1.0063  1.0347 -0.2191
   29CHL1  H12B 2105   5.422   1.835   7.454 -0.1155  0.8293 -1.1535
   29CHL1   C11 2106   5.580   1.941   7.345  0.2628 -0.1107 -0.0250
   29CHL1  H11A 2107   5.641   2.026   7.383 -0.1186  0.4491 -0.6620
   29CHL1  H11B 2108   5.651   1.857   7.328  0.6506 -0.1952  1.7779
   29CHL1    C9 2109   5.489   1.994   7.221 -0.2699  0.0896  0.1168
   29CHL1    H9 2110   5.413   1.919   7.189 -0.8175  1.1800 -1.2737
   29CHL1   C10 2111   5.563   2.030   7.092 -0.9620 -0.4259  0.3369
   29CHL1   C19 2112   5.693   2.104   7.135  0.0975 -0.7366  0.2005
   29CHL1  H19A 2113   5.666   2.194   7.196 -1.8209  0.3763 -2.1188
   29CHL1  H19B 2114   5.755   2.030   7.189  1.7582  1.4135  1.4197
   29CHL1  H19C 2115   5.755   2.144   7.052  2.0373  0.5165  2.1419
   29CHL1    C1 2116   5.593   1.902   7.015 -0.3312  0.0102  0.1678
   29CHL1   H1A 2117   5.654   1.842   7.086 -1.2905  1.3444  2.2388
   29CHL1   H1B 2118   5.492   1.858   7.003 -1.8285  2.9343  1.0424
   29CHL1    C2 2119   5.653   1.929   6.873 -0.1942  0.2906 -0.7396
   29CHL1   H2A 2120   5.651   1.830   6.823  2.5324 -0.1427 -0.1694
   29CHL1   H2B 2121   5.756   1.972   6.878 -0.9019  1.9822  0.3187
   29CHL1   C20 2122   5.324   2.039   7.768 -0.0595 -0.3761  0.2712
   29CHL1   H20 2123   5.337   2.145   7.797 -1.7385 -0.5509  1.8659
   29CHL1   C21 2124   5.453   1.960   7.816 -0.8166  0.2658  0.5692
   29CHL1  H21A 2125   5.453   1.931   7.923 -2.3567 -1.4481  0.1602
   29CHL1  H21B 2126   5.542   2.023   7.796 -0.6495 -0.3259 -0.6958
   29CHL1  H21C 2127   5.462   1.863   7.762 -0.4074  1.0316 -0.7872
   29CHL1   C22 2128   5.214   2.000   7.862  0.1740 -0.3336  0.7462
   29CHL1  H22A 2129   5.116   2.032   7.822  0.6423 -0.3184 -0.4425
   29CHL1  H22B 2130   5.213   1.889   7.866  3.1225 -0.4396  0.5559
   29CHL1   C23 2131   5.239   2.048   8.005 -0.0088 -0.4807  0.9543
   29CHL1  H23A 2132   5.345   2.034   8.034  1.0419  0.2887 -2.1046
   29CHL1  H23B 2133   5.215   2.156   8.021  0.8096 -0.3549  1.4049
   29CHL1   C24 2134   5.149   1.986   8.108 -0.0319  0.4496 -0.0097
   29CHL1  H24A 2135   5.044   2.019   8.099  0.0704  0.4695 -1.3003
   29CHL1  H24B 2136   5.162   1.878   8.083 -2.3205 -0.5969  2.8538
   29CHL1   C25 2137   5.187   1.997   8.258  0.6967  0.2353 -0.8166
   29CHL1   H25 2138   5.193   2.105   8.284 -0.6021 -0.0187  0.7430
   29CHL1   C26 2139   5.074   1.929   8.346 -0.9483 -0.2806 -0.5393
   29CHL1  H26A 2140   5.095   1.922   8.455 -1.5917  0.0221 -0.3873
   29CHL1  H26B 2141   4.981   1.990   8.334 -0.1624  1.4064  1.2714
   29CHL1  H26C 2142   5.054   1.827   8.308 -1.0452 -0.9183  1.1421
   29CHL1   C27 2143   5.321   1.936   8.291  0.5779  0.1500 -0.0367
   29CHL1  H27A 2144   5.339   1.938   8.401  1.8613  0.1060 -0.2410
   29CHL1  H27B 2145   5.328   1.832   8.252  0.7393 -0.7976  2.3278
   29CHL1  H27C 2146   5.409   1.982   8.241  0.4222 -1.6837 -2.1400
   30CHL1    C3 2147   3.588   1.292   6.652 -0.2428 -0.1705 -0.1680
   30CHL1    H3 2148   3.512   1.372   6.664  1.4505  1.3283  1.1802
   30CHL1    O3 2149   3.622   1.275   6.516 -0.6271 -0.1984 -0.3825
   30CHL1   H3' 2150   3.544   1.250   6.466  0.7413 -0.5671 -2.4963
   30CHL1    C4 2151   3.708   1.339   6.721 -0.1746  0.3167  0.3052
   30CHL1   H4A 2152   3.785   1.261   6.706 -0.1612  0.5972 -1.2142
   30CHL1   H4B 2153   3.748   1.428   6.668  0.8441  0.4117  1.1934
   30CHL1    C5 2154   3.685   1.352   6.870  0.2471 -0.2580 -0.9601
   30CHL1    C6 2155   3.705   1.469   6.933  0.4015  0.1818  0.1354
   30CHL1    H6 2156   3.741   1.552   6.870 -1.2855 -0.9386 -2.4943
   30CHL1    C7 2157   3.691   1.493   7.079 -0.0513 -0.4457 -0.1603
   30CHL1   H7A 2158   3.785   1.542   7.111 -0.3151  0.7177 -1.0954
   30CHL1   H7B 2159   3.617   1.571   7.107 -2.1889 -1.3557 -2.8461
   30CHL1    C8 2160   3.670   1.357   7.161 -0.1254 -0.4883  0.4903
   30CHL1    H8 2161   3.772   1.315   7.176  0.4743  0.8393  0.3181
   30CHL1   C14 2162   3.606   1.383   7.292  0.3754  0.0359 -0.8477
   30CHL1   H14 2163   3.506   1.420   7.262  1.3652  2.4212 -1.5445
   30CHL1   C15 2164   3.664   1.494   7.379 -0.2205 -0.1251 -0.5182
   30CHL1  H15A 2165   3.775   1.496   7.377 -0.2366  0.4229 -1.5226
   30CHL1  H15B 2166   3.629   1.595   7.352  2.0806  1.0414  0.5211
   30CHL1   C16 2167   3.605   1.462   7.521  0.2647 -0.0508 -0.1617
   30CHL1  H16A 2168   3.689   1.458   7.594 -0.3447  1.3176  0.6625
   30CHL1  H16B 2169   3.544   1.549   7.554  0.5323  0.7143 -1.6086
   30CHL1   C17 2170   3.526   1.334   7.508 -0.3428 -0.3982 -0.3585
   30CHL1   H17 2171   3.421   1.367   7.493  0.5568  3.6312  0.8193
   30CHL1   C13 2172   3.593   1.259   7.384  0.3812  1.1513 -0.0340
   30CHL1   C18 2173   3.737   1.195   7.408  0.7879 -0.5272  0.1336
   30CHL1  H18A 2174   3.793   1.279   7.453  0.3594 -0.1363 -0.0515
   30CHL1  H18B 2175   3.731   1.117   7.487  0.4270  0.5247  1.1604
   30CHL1  H18C 2176   3.792   1.150   7.322  1.3909  0.1293  0.1719
   30CHL1   C12 2177   3.502   1.158   7.310  0.0830  0.0955 -0.2082
   30CHL1  H12A 2178   3.497   1.063   7.367  2.6046  0.3106  0.4968
   30CHL1  H12B 2179   3.400   1.203   7.314 -0.8239 -1.7704 -1.0898
   30CHL1   C11 2180   3.544   1.130   7.165 -0.0750 -0.6828 -0.1082
   30CHL1  H11A 2181   3.638   1.071   7.166  0.4116  0.0838 -0.0168
   30CHL1  H11B 2182   3.464   1.065   7.122 -0.0740  0.1664 -1.4483
   30CHL1    C9 2183   3.578   1.261   7.084  0.2315  0.3928  0.6113
   30CHL1    H9 2184   3.483   1.313   7.063 -0.1780 -0.0777  1.2481
   30CHL1   C10 2185   3.633   1.225   6.935  0.7042 -0.2520  0.1537
   30CHL1   C19 2186   3.757   1.128   6.936 -0.1195  0.0980 -0.0911
   30CHL1  H19A 2187   3.820   1.173   7.016 -1.6468  2.2383 -0.0079
   30CHL1  H19B 2188   3.733   1.030   6.982 -0.5462  0.1058 -0.2968
   30CHL1  H19C 2189   3.807   1.122   6.837 -1.6375 -0.2397 -0.8520
   30CHL1    C1 2190   3.519   1.158   6.860  0.4417 -0.0886 -0.7664
   30CHL1   H1A 2191   3.503   1.057   6.903  0.8502  0.9248  2.0276
   30CHL1   H1B 2192   3.421   1.203   6.889 -1.3175 -3.9087 -0.0652
   30CHL1    C2 2193   3.538   1.156   6.708  0.3247 -0.6686  0.1333
   30CHL1   H2A 2194   3.452   1.117   6.650  0.4968 -2.3135  0.9478
   30CHL1   H2B 2195   3.608   1.072   6.687  0.5650  0.2102 -3.2254
   30CHL1   C20 2196   3.515   1.247   7.636 -0.3369 -0.2918 -0.2856
   30CHL1   H20 2197   3.598   1.175   7.644 -0.2357 -0.2390 -0.8057
   30CHL1   C21 2198   3.384   1.160   7.622 -0.3739 -0.1010 -0.2627
   30CHL1  H21A 2199   3.373   1.089   7.707  0.5224  2.3245  2.0335
   30CHL1  H21B 2200   3.372   1.100   7.530  0.6466 -3.2300  1.4980
   30CHL1  H21C 2201   3.303   1.233   7.642  0.6351  1.2894 -1.0787
   30CHL1   C22 2202   3.505   1.329   7.774  0.5676  0.1102 -1.0534
   30CHL1  H22A 2203   3.591   1.398   7.782  1.1603 -0.7509  0.4303
   30CHL1  H22B 2204   3.415   1.393   7.766 -0.6168 -1.6691 -3.1741
   30CHL1   C23 2205   3.490   1.246   7.904  0.4994  0.2842  0.1242
   30CHL1  H23A 2206   3.400   1.181   7.899  0.1733  0.6012  1.4736
   30CHL1  H23B 2207   3.570   1.169   7.911 -0.9233 -1.2354  0.1743
   30CHL1   C24 2208   3.500   1.335   8.030 -0.2998 -0.4531  0.1635
   30CHL1  H24A 2209   3.598   1.387   8.032 -0.7876  0.7049 -2.5361
   30CHL1  H24B 2210   3.421   1.412   8.023 -0.6806 -0.8318  0.2493
   30CHL1   C25 2211   3.497   1.269   8.169 -0.3604 -0.0899  0.0972
   30CHL1   H25 2212   3.519   1.353   8.238  1.4010  0.1611 -0.7094
   30CHL1   C26 2213   3.359   1.207   8.204  0.1841 -0.1974  0.5936
   30CHL1  H26A 2214   3.339   1.200   8.313 -0.1890  2.1442  0.7092
   30CHL1  H26B 2215   3.276   1.262   8.155  0.0038  0.7330  1.9042
   30CHL1  H26C 2216   3.354   1.101   8.169  1.7123 -0.4803  1.1655
   30CHL1   C27 2217   3.606   1.159   8.189  0.0093  0.4836  0.1430
   30CHL1  H27A 2218   3.709   1.200   8.177  0.3640  0.0859  1.6522
   30CHL1  H27B 2219   3.598   1.137   8.297 -1.0086  2.1601  0.4560
   30CHL1  H27C 2220   3.582   1.075   8.121 -2.0008  0.6356  0.5933
   31CHL1    C3 2221   3.955   2.287   7.078 -0.1044  0.1954 -0.6838
   31CHL1    H3 2222   3.924   2.182   7.098 -1.1306  0.5320 -0.4750
   31CHL1    O3 2223   3.973   2.299   6.938 -0.7728 -0.7273  0.4716
   31CHL1   H3' 2224   3.908   2.357   6.899 -2.3613 -2.7561 -0.0721
   31CHL1    C4 2225   3.836   2.371   7.132  0.1182  0.2301 -0.0071
   31CHL1   H4A 2226   3.832   2.473   7.088  0.1680 -0.9006 -2.8306
   31CHL1   H4B 2227   3.742   2.321   7.099  2.4062 -3.0779 -1.9954
   31CHL1    C5 2228   3.838   2.366   7.289 -0.3196  0.5731 -0.3076
   31CHL1    C6 2229   3.723   2.334   7.355 -0.1610  0.6357 -0.9420
   31CHL1    H6 2230   3.636   2.305   7.294 -2.6775  1.7151  1.9099
   31CHL1    C7 2231   3.698   2.330   7.504 -0.8331  0.4449 -0.0467
   31CHL1   H7A 2232   3.607   2.385   7.537 -0.0993  1.0180  1.0985
   31CHL1   H7B 2233   3.693   2.224   7.537 -0.1714  0.3561 -0.2162
   31CHL1    C8 2234   3.820   2.389   7.580 -0.4239  0.4020  0.8340
   31CHL1    H8 2235   3.813   2.499   7.579  1.0205  0.5822 -2.0639
   31CHL1   C14 2236   3.811   2.328   7.722  0.0715  0.7063 -0.2055
   31CHL1   H14 2237   3.836   2.220   7.715 -0.1111  0.6264  0.3646
   31CHL1   C15 2238   3.675   2.338   7.792 -0.0355 -0.8045 -0.0884
   31CHL1  H15A 2239   3.626   2.436   7.777 -0.4089 -0.9758  0.0021
   31CHL1  H15B 2240   3.598   2.265   7.760 -1.0226  0.5284 -0.8747
   31CHL1   C16 2241   3.720   2.325   7.936 -0.3440  0.7500 -0.3184
   31CHL1  H16A 2242   3.680   2.414   7.989 -2.9078  0.0194 -0.8741
   31CHL1  H16B 2243   3.693   2.233   7.992  0.3742  1.3090  1.0048
   31CHL1   C17 2244   3.874   2.325   7.948  0.6532  0.1638  0.2728
   31CHL1   H17 2245   3.906   2.219   7.943 -0.5290 -0.2908  1.7097
   31CHL1   C13 2246   3.914   2.393   7.814 -0.6351 -0.4915  0.0869
   31CHL1   C18 2247   3.902   2.551   7.829 -0.5979  0.2902  0.4201
   31CHL1  H18A 2248   3.992   2.585   7.885  0.7801 -1.8988 -0.3096
   31CHL1  H18B 2249   3.892   2.594   7.727 -0.6570 -0.4589  0.1059
   31CHL1  H18C 2250   3.823   2.586   7.899 -0.9828  0.3796 -0.0530
   31CHL1   C12 2251   4.052   2.359   7.759 -0.3726 -0.3309  0.0897
   31CHL1  H12A 2252   4.136   2.392   7.824  0.7942 -3.6056  0.4628
   31CHL1  H12B 2253   4.056   2.248   7.746 -0.7455 -0.1048 -2.4297
   31CHL1   C11 2254   4.073   2.400   7.606 -0.5273 -0.0276 -0.0182
   31CHL1  H11A 2255   4.079   2.510   7.623  0.8274 -0.5959  4.5165
   31CHL1  H11B 2256   4.177   2.369   7.579 -0.3398  0.0535  0.5913
   31CHL1    C9 2257   3.961   2.358   7.518  0.3621  0.0655  0.3191
   31CHL1    H9 2258   3.969   2.247   7.521  1.2148  0.1247  2.9489
   31CHL1   C10 2259   3.966   2.402   7.367 -0.6351  0.6086  0.0574
   31CHL1   C19 2260   3.980   2.561   7.376 -0.3465  1.1756  0.1057
   31CHL1  H19A 2261   3.972   2.599   7.272 -0.7210  3.9749  1.0804
   31CHL1  H19B 2262   3.898   2.600   7.441 -0.0369  1.1606  0.5115
   31CHL1  H19C 2263   4.080   2.595   7.410 -0.1347 -0.1693  0.8896
   31CHL1    C1 2264   4.090   2.341   7.294 -0.4305 -0.5243  0.4293
   31CHL1   H1A 2265   4.182   2.391   7.332  0.9278 -1.6885 -1.1722
   31CHL1   H1B 2266   4.089   2.239   7.338  1.3173  0.8455  4.0784
   31CHL1    C2 2267   4.089   2.328   7.145  0.8952 -0.4580 -0.4136
   31CHL1   H2A 2268   4.170   2.259   7.114 -1.3577 -2.6821 -1.6996
   31CHL1   H2B 2269   4.105   2.431   7.105  1.7644 -0.1956  0.5642
   31CHL1   C20 2270   3.924   2.378   8.084  0.2965  0.5658  0.1080
   31CHL1   H20 2271   3.893   2.480   8.113 -1.0260  0.1120  0.3355
   31CHL1   C21 2272   4.078   2.381   8.098 -0.4362 -0.3527 -0.1828
   31CHL1  H21A 2273   4.113   2.458   8.026 -0.2975  0.7999  1.0630
   31CHL1  H21B 2274   4.111   2.279   8.070 -0.5199  0.1051 -2.0696
   31CHL1  H21C 2275   4.108   2.413   8.201  1.1430 -2.5450  0.1164
   31CHL1   C22 2276   3.853   2.296   8.199 -0.5457 -0.7825 -0.0259
   31CHL1  H22A 2277   3.744   2.318   8.189 -0.6948 -1.5043 -0.0476
   31CHL1  H22B 2278   3.862   2.186   8.197  0.4323 -1.0051  4.5317
   31CHL1   C23 2279   3.887   2.335   8.341  0.4004 -0.2676 -0.3401
   31CHL1  H23A 2280   3.826   2.262   8.398  1.3174 -1.4435 -0.8337
   31CHL1  H23B 2281   3.994   2.320   8.365  0.2941  0.8100  0.9004
   31CHL1   C24 2282   3.834   2.469   8.379  0.2617 -0.3081 -0.0267
   31CHL1  H24A 2283   3.865   2.546   8.305 -1.9224 -0.5271 -1.2475
   31CHL1  H24B 2284   3.723   2.479   8.374  0.4576  1.8334 -2.3365
   31CHL1   C25 2285   3.872   2.520   8.519  0.6118  0.6490 -0.6528
   31CHL1   H25 2286   3.857   2.434   8.587  0.0159 -0.1290 -1.7303
   31CHL1   C26 2287   4.024   2.561   8.527 -0.2984  0.3241  0.1832
   31CHL1  H26A 2288   4.084   2.474   8.494 -1.6257 -0.8591  0.8042
   31CHL1  H26B 2289   4.029   2.640   8.449 -1.6727 -0.1145 -0.3702
   31CHL1  H26C 2290   4.068   2.595   8.623  1.2656  2.2809 -1.1271
   31CHL1   C27 2291   3.790   2.630   8.578 -0.6575 -0.4873 -0.1115
   31CHL1  H27A 2292   3.691   2.586   8.605  1.1681 -2.8019  3.5855
   31CHL1  H27B 2293   3.776   2.715   8.507  1.6590 -0.9360 -1.1840
   31CHL1  H27C 2294   3.843   2.667   8.668  0.0520  1.4236 -1.2421
   32CHL1    C3 2295   4.571   1.460   6.814  0.4227 -0.6696  0.2886
   32CHL1    H3 2296   4.467   1.435   6.844  0.6171 -0.9903  0.6953
   32CHL1    O3 2297   4.577   1.487   6.674  0.0979 -0.0465  0.2124
   32CHL1   H3' 2298   4.574   1.400   6.633  1.9638 -0.4651  0.8720
   32CHL1    C4 2299   4.641   1.575   6.888  0.8698  0.5025 -0.7943
   32CHL1   H4A 2300   4.744   1.574   6.845  0.2858 -0.2667 -2.2108
   32CHL1   H4B 2301   4.604   1.675   6.857 -1.1054  0.1952  0.4507
   32CHL1    C5 2302   4.632   1.552   7.037  0.2405  0.5869 -0.2927
   32CHL1    C6 2303   4.577   1.644   7.123  0.2960 -0.9549 -0.0408
   32CHL1    H6 2304   4.529   1.735   7.084  0.8764 -0.8836 -0.6009
   32CHL1    C7 2305   4.571   1.641   7.278 -0.0726 -0.0800 -0.0189
   32CHL1   H7A 2306   4.606   1.735   7.326 -1.3214 -0.0770  0.9330
   32CHL1   H7B 2307   4.462   1.656   7.296  0.1990  1.9415  0.2137
   32CHL1    C8 2308   4.630   1.513   7.328 -0.0418 -0.2992  0.1879
   32CHL1    H8 2309   4.736   1.529   7.356 -0.3110  1.9860  0.1377
   32CHL1   C14 2310   4.565   1.473   7.458  0.0416  0.6987 -0.1857
   32CHL1   H14 2311   4.460   1.449   7.430  0.0711  1.5897 -1.0825
   32CHL1   C15 2312   4.556   1.578   7.564 -0.4591  0.2844 -0.2014
   32CHL1  H15A 2313   4.648   1.640   7.574 -0.7335  0.7272 -0.4024
   32CHL1  H15B 2314   4.463   1.635   7.542 -1.9896 -1.6413  0.9238
   32CHL1   C16 2315   4.525   1.507   7.697 -0.2312  0.3884 -0.1656
   32CHL1  H16A 2316   4.609   1.526   7.768  1.2919 -1.3371 -1.4014
   32CHL1  H16B 2317   4.425   1.536   7.734  0.3233  0.7442  1.0970
   32CHL1   C17 2318   4.529   1.357   7.658  0.5190  0.4478  0.7563
   32CHL1   H17 2319   4.426   1.327   7.628  0.5960 -0.2420  1.1580
   32CHL1   C13 2320   4.617   1.345   7.523 -0.1417  0.7192 -0.3613
   32CHL1   C18 2321   4.770   1.362   7.564  0.1114  0.1303 -0.4543
   32CHL1  H18A 2322   4.836   1.383   7.477  0.8972 -0.2824  0.0304
   32CHL1  H18B 2323   4.779   1.446   7.635 -0.6608  1.3968 -1.8093
   32CHL1  H18C 2324   4.809   1.268   7.609  3.0038  0.8940 -1.0982
   32CHL1   C12 2325   4.598   1.222   7.426  0.3461 -0.6942 -0.0332
   32CHL1  H12A 2326   4.644   1.127   7.461 -2.6344 -3.0731 -2.0936
   32CHL1  H12B 2327   4.488   1.209   7.420 -0.1333  2.4988  0.1582
   32CHL1   C11 2328   4.664   1.254   7.287  0.0492  0.2449  0.1957
   32CHL1  H11A 2329   4.774   1.245   7.295  0.1219  2.1100  1.9635
   32CHL1  H11B 2330   4.635   1.173   7.216  2.5496  0.2030 -0.8508
   32CHL1    C9 2331   4.622   1.399   7.227 -0.3328  0.2065  0.5144
   32CHL1    H9 2332   4.513   1.393   7.209 -0.0267 -0.9177 -1.2170
   32CHL1   C10 2333   4.685   1.420   7.091 -0.2834  0.7823 -0.3074
   32CHL1   C19 2334   4.841   1.421   7.112 -0.5569 -0.8788 -0.5871
   32CHL1  H19A 2335   4.863   1.498   7.189  0.1438  0.4465 -2.0422
   32CHL1  H19B 2336   4.877   1.319   7.136  0.6306 -1.2967 -3.6600
   32CHL1  H19C 2337   4.902   1.459   7.027 -2.4738 -2.8200 -2.9608
   32CHL1    C1 2338   4.662   1.302   6.990  0.5989 -0.8399  0.6960
   32CHL1   H1A 2339   4.721   1.209   7.000 -0.7392 -1.8054 -0.1729
   32CHL1   H1B 2340   4.558   1.266   7.007  0.5662 -0.9431  0.2633
   32CHL1    C2 2341   4.656   1.330   6.842  0.0064 -0.0930  0.0432
   32CHL1   H2A 2342   4.617   1.238   6.794  3.2492 -1.7528  0.3199
   32CHL1   H2B 2343   4.762   1.348   6.813  0.5617  0.9198  2.4499
   32CHL1   C20 2344   4.554   1.266   7.780  1.1830 -0.1064  0.9967
   32CHL1   H20 2345   4.655   1.290   7.820  0.3648  1.8301  2.0530
   32CHL1   C21 2346   4.545   1.115   7.736 -0.5049  0.1589  0.0908
   32CHL1  H21A 2347   4.550   1.047   7.824 -2.1638 -0.4668 -0.2698
   32CHL1  H21B 2348   4.626   1.081   7.668  0.7196  0.4598  1.3264
   32CHL1  H21C 2349   4.452   1.098   7.679 -1.0111  0.6862  0.7432
   32CHL1   C22 2350   4.463   1.298   7.894  0.7652 -0.3181 -0.6346
   32CHL1  H22A 2351   4.422   1.401   7.896  0.7316 -0.2038 -3.5149
   32CHL1  H22B 2352   4.378   1.232   7.866  0.5147 -1.3827  2.3168
   32CHL1   C23 2353   4.530   1.257   8.026 -0.6809 -0.2547 -1.2442
   32CHL1  H23A 2354   4.598   1.172   8.005 -1.2523 -1.1081  0.1592
   32CHL1  H23B 2355   4.589   1.344   8.063 -0.3337 -1.8640  2.4916
   32CHL1   C24 2356   4.430   1.233   8.139  0.4971 -0.3841  1.1402
   32CHL1  H24A 2357   4.376   1.329   8.151  0.3174 -0.1878 -0.8851
   32CHL1  H24B 2358   4.356   1.165   8.091  1.9493 -1.3672  0.2504
   32CHL1   C25 2359   4.489   1.192   8.272 -0.7615  0.2533 -0.2022
   32CHL1   H25 2360   4.586   1.242   8.294 -1.5864  1.3355  1.2057
   32CHL1   C26 2361   4.408   1.240   8.388 -0.0517 -0.5800  0.2442
   32CHL1  H26A 2362   4.413   1.351   8.393  0.2379 -0.5460 -0.6975
   32CHL1  H26B 2363   4.300   1.216   8.373 -0.3666 -0.7318  2.3754
   32CHL1  H26C 2364   4.447   1.203   8.485  3.6496  1.2673 -0.3850
   32CHL1   C27 2365   4.507   1.040   8.286 -0.5784  0.0617  0.1525
   32CHL1  H27A 2366   4.585   1.000   8.218 -0.2012 -1.4898  1.4267
   32CHL1  H27B 2367   4.530   1.022   8.394 -2.1888 -1.6568  0.2597
   32CHL1  H27C 2368   4.413   0.984   8.267 -1.3166  1.3766 -0.1525
   33CHL1    C3 2369   5.558   1.411   6.816  0.5295 -0.0646 -0.0135
   33CHL1    H3 2370   5.484   1.329   6.833  0.3778 -0.4110 -2.0805
   33CHL1    O3 2371   5.587   1.428   6.676  0.0335 -0.3187  0.2949
   33CHL1   H3' 2372   5.582   1.340   6.637  2.0700  0.6173 -2.4496
   33CHL1    C4 2373   5.508   1.545   6.878 -0.4297  0.0251  0.0544
   33CHL1   H4A 2374   5.601   1.606   6.887  0.1350 -0.8606  0.3391
   33CHL1   H4B 2375   5.441   1.602   6.811  1.0337  2.7375  0.7551
   33CHL1    C5 2376   5.459   1.526   7.019  0.2569 -0.6553  0.0439
   33CHL1    C6 2377   5.336   1.563   7.062 -0.1014  0.9000 -0.0452
   33CHL1    H6 2378   5.271   1.602   6.983  0.6022  0.3648 -0.9249
   33CHL1    C7 2379   5.297   1.555   7.210  0.4445  0.7981  0.0840
   33CHL1   H7A 2380   5.243   1.644   7.248  0.1156  0.5070  0.3111
   33CHL1   H7B 2381   5.219   1.477   7.227  0.7955  1.0003  3.1045
   33CHL1    C8 2382   5.409   1.520   7.305  0.2393 -0.5898 -0.4800
   33CHL1    H8 2383   5.468   1.613   7.325 -1.7702  0.1603  2.6966
   33CHL1   C14 2384   5.342   1.461   7.429 -0.2479  0.1322 -0.2493
   33CHL1   H14 2385   5.290   1.372   7.388  1.1056 -0.3586 -0.9693
   33CHL1   C15 2386   5.222   1.532   7.497 -0.0049  0.3240  0.0464
   33CHL1  H15A 2387   5.226   1.642   7.511 -2.3178  0.3099  1.5303
   33CHL1  H15B 2388   5.122   1.512   7.453 -1.1140  0.3798  2.3867
   33CHL1   C16 2389   5.218   1.456   7.632 -0.2904  0.8644 -0.0583
   33CHL1  H16A 2390   5.238   1.533   7.709  0.2189  0.0474  0.6481
   33CHL1  H16B 2391   5.118   1.413   7.656 -0.5287  0.5958 -1.4375
   33CHL1   C17 2392   5.338   1.360   7.635  0.6433 -0.1393 -0.7426
   33CHL1   H17 2393   5.305   1.270   7.579  1.1013  0.7287 -2.5090
   33CHL1   C13 2394   5.439   1.413   7.541  0.6313 -0.1083 -0.2577
   33CHL1   C18 2395   5.521   1.528   7.605 -0.0599  0.9817  0.3342
   33CHL1  H18A 2396   5.578   1.489   7.692 -3.9156 -1.5265  2.0203
   33CHL1  H18B 2397   5.590   1.569   7.529 -1.4863 -0.0587 -1.5910
   33CHL1  H18C 2398   5.461   1.616   7.640 -2.2184 -0.0487 -0.5617
   33CHL1   C12 2399   5.539   1.311   7.491  0.1065 -0.5988 -0.3608
   33CHL1  H12A 2400   5.627   1.292   7.557  1.3380 -2.2893 -2.3506
   33CHL1  H12B 2401   5.485   1.215   7.476  1.7743 -1.8350  1.0798
   33CHL1   C11 2402   5.605   1.358   7.359  0.3916  0.5562  0.2183
   33CHL1  H11A 2403   5.683   1.432   7.387  0.5947  0.6174 -0.5056
   33CHL1  H11B 2404   5.663   1.273   7.319 -1.1790  0.1658 -1.3354
   33CHL1    C9 2405   5.507   1.409   7.249 -0.2130 -0.5016 -0.5186
   33CHL1    H9 2406   5.443   1.320   7.232  0.2796 -1.2543  1.3395
   33CHL1   C10 2407   5.565   1.459   7.118 -0.4963  0.3172 -0.2530
   33CHL1   C19 2408   5.680   1.558   7.157  0.0706 -0.3077  0.4898
   33CHL1  H19A 2409   5.769   1.499   7.190  0.0676 -0.9774 -0.6670
   33CHL1  H19B 2410   5.730   1.624   7.082  2.5630  0.7372  2.8771
   33CHL1  H19C 2411   5.653   1.628   7.240  0.1158 -0.5864  0.7405
   33CHL1    C1 2412   5.622   1.329   7.047 -0.7824  0.2367  0.2826
   33CHL1   H1A 2413   5.707   1.289   7.106 -0.3099  0.7813 -0.0163
   33CHL1   H1B 2414   5.554   1.241   7.037 -0.5524  0.2299 -1.4837
   33CHL1    C2 2415   5.680   1.359   6.904 -0.0299  0.2846  0.3702
   33CHL1   H2A 2416   5.714   1.260   6.866 -0.6324  0.5742 -0.9939
   33CHL1   H2B 2417   5.761   1.431   6.880 -0.9351  0.4559 -2.5662
   33CHL1   C20 2418   5.387   1.313   7.778 -0.4299 -0.7107 -0.0824
   33CHL1   H20 2419   5.494   1.288   7.766 -0.0634  0.3473  0.8248
   33CHL1   C21 2420   5.313   1.189   7.819  0.2262  0.3407  0.5578
   33CHL1  H21A 2421   5.203   1.202   7.810  0.6755  5.0561 -1.4783
   33CHL1  H21B 2422   5.328   1.159   7.925 -1.4542  0.1084  0.7619
   33CHL1  H21C 2423   5.345   1.110   7.748  0.5084  1.5226 -0.6762
   33CHL1   C22 2424   5.381   1.416   7.890 -0.4525 -0.2698 -0.5035
   33CHL1  H22A 2425   5.393   1.520   7.852  0.5141 -0.6389 -1.2541
   33CHL1  H22B 2426   5.275   1.431   7.920 -0.1943 -0.0251  0.3304
   33CHL1   C23 2427   5.491   1.408   8.002  0.6326  0.5088 -0.5676
   33CHL1  H23A 2428   5.485   1.305   8.044 -1.0285 -0.0241 -1.9817
   33CHL1  H23B 2429   5.591   1.422   7.956  2.6317 -1.1844  2.8475
   33CHL1   C24 2430   5.474   1.510   8.110  0.2013 -0.8205 -0.3610
   33CHL1  H24A 2431   5.488   1.614   8.072  1.2247 -1.2229 -1.1326
   33CHL1  H24B 2432   5.377   1.505   8.163 -0.1858  1.0321 -0.8313
   33CHL1   C25 2433   5.585   1.499   8.225  0.4454  0.1257 -0.3840
   33CHL1   H25 2434   5.683   1.498   8.172  0.8730 -1.7366  0.3477
   33CHL1   C26 2435   5.580   1.626   8.307  1.1158  0.0894  0.3002
   33CHL1  H26A 2436   5.474   1.650   8.329  0.5545 -1.4243 -0.6102
   33CHL1  H26B 2437   5.634   1.616   8.404 -1.0128  0.0047  1.5634
   33CHL1  H26C 2438   5.628   1.707   8.249  2.6287 -1.5695 -0.8683
   33CHL1   C27 2439   5.553   1.376   8.316  0.1301  0.2050 -0.3495
   33CHL1  H27A 2440   5.455   1.388   8.367 -0.2837 -1.2442 -0.7329
   33CHL1  H27B 2441   5.552   1.284   8.254 -1.0528 -0.8482  1.1498
   33CHL1  H27C 2442   5.635   1.360   8.389 -0.7144 -0.9722  0.3743
   34CHL1    C3 2443   6.170   5.426   6.815 -0.3871 -0.1653 -0.5718
   34CHL1    H3 2444   6.272   5.448   6.855 -0.9428 -2.3407  2.3375
   34CHL1    O3 2445   6.189   5.418   6.673  0.1138 -0.7151 -0.7053
   34CHL1   H3' 2446   6.115   5.363   6.645 -0.3493  0.0914 -1.1094
   34CHL1    C4 2447   6.138   5.280   6.859 -0.6052  0.1220 -0.3653
   34CHL1   H4A 2448   6.040   5.254   6.814 -0.0196 -1.8936 -0.6019
   34CHL1   H4B 2449   6.207   5.210   6.805 -0.9130  0.8278 -1.7075
   34CHL1    C5 2450   6.128   5.275   7.016 -0.1113  0.5995  0.6577
   34CHL1    C6 2451   6.207   5.193   7.092  1.0588 -0.0183  0.1410
   34CHL1    H6 2452   6.273   5.126   7.034 -1.0517  1.3028 -4.1529
   34CHL1    C7 2453   6.198   5.177   7.241  0.0534 -0.4016 -1.1283
   34CHL1   H7A 2454   6.204   5.069   7.267 -2.1617  0.0872  1.9626
   34CHL1   H7B 2455   6.284   5.228   7.289 -1.6648  0.9666  0.6484
   34CHL1    C8 2456   6.064   5.239   7.288 -0.5411 -0.1526  0.2648
   34CHL1    H8 2457   5.983   5.167   7.264  0.8825 -1.8782  0.4848
   34CHL1   C14 2458   6.071   5.252   7.437  0.0244 -0.4593  0.1565
   34CHL1   H14 2459   6.151   5.324   7.463 -0.3760 -0.4037  1.3102
   34CHL1   C15 2460   6.113   5.124   7.512  1.0328 -0.1412 -0.9315
   34CHL1  H15A 2461   6.054   5.040   7.468  0.5982  0.2954 -1.1906
   34CHL1  H15B 2462   6.220   5.094   7.515  1.3707  1.0504 -0.5755
   34CHL1   C16 2463   6.060   5.158   7.660 -0.3590 -0.2276  0.4058
   34CHL1  H16A 2464   5.988   5.074   7.673  0.9810 -1.6297 -0.8923
   34CHL1  H16B 2465   6.133   5.147   7.742  1.1196  0.3957 -0.7881
   34CHL1   C17 2466   5.988   5.294   7.661  0.1178 -0.1299 -0.2182
   34CHL1   H17 2467   6.068   5.368   7.685 -0.0253 -0.6213  2.0560
   34CHL1   C13 2468   5.955   5.314   7.503  0.2309 -0.9448  0.0799
   34CHL1   C18 2469   5.820   5.240   7.471  0.4060  0.2444  0.5909
   34CHL1  H18A 2470   5.781   5.261   7.368  0.6300 -0.2046  0.4136
   34CHL1  H18B 2471   5.825   5.132   7.495 -0.3173 -0.7498 -3.0397
   34CHL1  H18C 2472   5.735   5.274   7.534 -1.4641 -2.1707 -0.4648
   34CHL1   C12 2473   5.953   5.459   7.453 -0.1160 -0.1112 -0.6029
   34CHL1  H12A 2474   5.875   5.514   7.509  1.4348 -0.6122  2.2368
   34CHL1  H12B 2475   6.052   5.507   7.474 -0.2559  0.1164 -0.4551
   34CHL1   C11 2476   5.942   5.469   7.300  0.0293 -0.1747 -0.2411
   34CHL1  H11A 2477   5.846   5.426   7.266  0.5792 -0.4754 -1.4689
   34CHL1  H11B 2478   5.951   5.577   7.278 -0.6624  0.4912  2.3667
   34CHL1    C9 2479   6.040   5.380   7.221 -0.7893 -0.1009 -1.0006
   34CHL1    H9 2480   6.134   5.438   7.230 -1.0193  0.2172 -0.6314
   34CHL1   C10 2481   6.019   5.370   7.070 -0.7335 -0.3932 -0.2929
   34CHL1   C19 2482   5.882   5.306   7.037  0.1967 -0.1825 -0.3828
   34CHL1  H19A 2483   5.876   5.206   7.083 -0.1047  0.5748  1.3042
   34CHL1  H19B 2484   5.804   5.366   7.089  0.9932  0.3783  0.1913
   34CHL1  H19C 2485   5.858   5.301   6.929  1.4773 -1.6272 -0.6391
   34CHL1    C1 2486   6.028   5.515   7.013 -1.0500 -0.3392  0.3648
   34CHL1   H1A 2487   5.946   5.580   7.051  1.2504  2.8048  0.3725
   34CHL1   H1B 2488   6.121   5.562   7.053 -0.2451  0.3932 -2.1671
   34CHL1    C2 2489   6.060   5.525   6.860 -0.1772  0.9128  0.2056
   34CHL1   H2A 2490   6.096   5.630   6.848  0.0543  1.0172  1.6024
   34CHL1   H2B 2491   5.964   5.507   6.807 -0.4437 -0.6306  1.1405
   34CHL1   C20 2492   5.877   5.293   7.776  0.6579  0.0260 -0.3568
   34CHL1   H20 2493   5.782   5.242   7.748  0.2548  0.4965  0.1313
   34CHL1   C21 2494   5.840   5.443   7.789  0.5444 -0.0977 -1.0230
   34CHL1  H21A 2495   5.786   5.447   7.886  1.0940  1.1718 -0.7441
   34CHL1  H21B 2496   5.784   5.476   7.699  0.8635  3.0975 -0.1786
   34CHL1  H21C 2497   5.930   5.510   7.790 -0.1199  0.9040  1.6603
   34CHL1   C22 2498   5.921   5.233   7.911 -0.4534  0.3662 -0.5103
   34CHL1  H22A 2499   5.836   5.245   7.982 -1.2844 -1.2573 -1.1758
   34CHL1  H22B 2500   5.928   5.122   7.908  0.9643  0.2544  2.6942
   34CHL1   C23 2501   6.049   5.282   7.981  0.3447 -0.3684  0.0019
   34CHL1  H23A 2502   6.130   5.305   7.909  1.3915  0.3484  1.3449
   34CHL1  H23B 2503   6.026   5.377   8.035 -3.1925 -0.6149 -0.8557
   34CHL1   C24 2504   6.086   5.197   8.098 -0.7811  0.4463 -0.5585
   34CHL1  H24A 2505   5.984   5.175   8.135 -1.1265 -0.5603 -2.0192
   34CHL1  H24B 2506   6.115   5.095   8.066 -0.1729  0.2494  0.5696
   34CHL1   C25 2507   6.176   5.257   8.210  0.7175  0.3451  0.4080
   34CHL1   H25 2508   6.132   5.358   8.228 -0.2393 -0.0712  0.4863
   34CHL1   C26 2509   6.171   5.156   8.328  0.0555  0.5575  0.3602
   34CHL1  H26A 2510   6.186   5.055   8.286  2.7646  1.1661 -0.3397
   34CHL1  H26B 2511   6.247   5.168   8.409 -1.9346 -0.1245  2.4197
   34CHL1  H26C 2512   6.070   5.154   8.373 -0.2068  2.7866 -0.0160
   34CHL1   C27 2513   6.317   5.284   8.156  0.4295  0.0443  0.1946
   34CHL1  H27A 2514   6.372   5.188   8.145  0.3348  0.0981 -0.8996
   34CHL1  H27B 2515   6.317   5.337   8.058  1.1126 -1.3915 -0.6001
   34CHL1  H27C 2516   6.376   5.341   8.232 -1.7962 -0.0922  2.1387
   35CHL1    C3 2517   2.316   1.014   6.713 -0.5089  0.0821  1.0842
   35CHL1    H3 2518   2.350   0.909   6.719 -1.0764 -0.2660 -1.0116
   35CHL1    O3 2519   2.311   1.044   6.569 -0.4089 -0.0232  0.1489
   35CHL1   H3' 2520   2.291   1.137   6.555 -2.1732  0.0842  2.7326
   35CHL1    C4 2521   2.176   1.013   6.784 -0.5133  0.5074 -0.0277
   35CHL1   H4A 2522   2.140   1.117   6.768 -2.4618 -0.2825 -1.1004
   35CHL1   H4B 2523   2.103   0.942   6.741 -0.4407  0.5052 -0.1487
   35CHL1    C5 2524   2.190   0.985   6.932  0.0702 -0.1891  0.5888
   35CHL1    C6 2525   2.121   0.885   6.991  0.0624 -0.2199 -0.1035
   35CHL1    H6 2526   2.048   0.830   6.931 -1.6942 -1.1158  2.6520
   35CHL1    C7 2527   2.128   0.841   7.135  0.2078 -0.3530  0.5933
   35CHL1   H7A 2528   2.028   0.825   7.181 -0.1642 -0.2305 -0.1590
   35CHL1   H7B 2529   2.189   0.748   7.144 -0.0330 -0.4704  1.0550
   35CHL1    C8 2530   2.199   0.945   7.227  0.3550  0.1250 -0.3671
   35CHL1    H8 2531   2.129   1.028   7.250  2.8479  2.7728 -1.6731
   35CHL1   C14 2532   2.240   0.886   7.361 -0.0979 -0.3208  0.6626
   35CHL1   H14 2533   2.307   0.800   7.342  2.2024  1.3472  0.7805
   35CHL1   C15 2534   2.130   0.833   7.453 -0.1718  0.0788 -0.0528
   35CHL1  H15A 2535   2.037   0.895   7.452 -0.5186 -0.4318 -0.0580
   35CHL1  H15B 2536   2.091   0.732   7.428  0.6323 -0.6406  1.4768
   35CHL1   C16 2537   2.197   0.826   7.592 -0.1020 -0.6878  0.1002
   35CHL1  H16A 2538   2.125   0.876   7.661 -0.7269 -0.6950 -0.5276
   35CHL1  H16B 2539   2.214   0.720   7.619 -1.2067 -0.8449  0.2463
   35CHL1   C17 2540   2.330   0.911   7.583  0.0180  0.0453  0.3794
   35CHL1   H17 2541   2.404   0.830   7.564 -0.5153 -0.0429 -1.4786
   35CHL1   C13 2542   2.316   0.988   7.453 -0.0928 -0.0191 -0.4006
   35CHL1   C18 2543   2.234   1.114   7.485  0.3784 -0.9460 -0.2145
   35CHL1  H18A 2544   2.188   1.155   7.393 -1.3420  1.3348  1.5288
   35CHL1  H18B 2545   2.146   1.090   7.548  0.6346  1.4377  1.2065
   35CHL1  H18C 2546   2.291   1.189   7.544 -0.4813  1.7643 -2.6040
   35CHL1   C12 2547   2.444   1.028   7.386 -0.6923 -0.4030  0.5942
   35CHL1  H12A 2548   2.499   1.100   7.450 -0.2084 -0.7495  0.5749
   35CHL1  H12B 2549   2.513   0.946   7.356  1.4420  1.7684 -0.8280
   35CHL1   C11 2550   2.419   1.094   7.246 -0.6140  0.3664 -0.4390
   35CHL1  H11A 2551   2.364   1.187   7.269 -0.8974  0.1453 -0.2176
   35CHL1  H11B 2552   2.516   1.124   7.201 -1.0348  1.0834 -0.8689
   35CHL1    C9 2553   2.326   1.007   7.148  0.3488  0.0971 -0.5137
   35CHL1    H9 2554   2.389   0.919   7.124 -0.4998 -0.4800 -0.6643
   35CHL1   C10 2555   2.293   1.067   7.007  0.0286  0.4012 -0.3004
   35CHL1   C19 2556   2.254   1.214   7.019 -0.2215 -0.4422 -0.4771
   35CHL1  H19A 2557   2.242   1.263   6.920 -3.5237 -0.2934 -0.1190
   35CHL1  H19B 2558   2.153   1.219   7.066  0.3790 -1.8433  1.0723
   35CHL1  H19C 2559   2.328   1.276   7.075 -0.7693 -1.8825  2.0305
   35CHL1    C1 2560   2.425   1.060   6.932  0.4348 -0.9530  0.8476
   35CHL1   H1A 2561   2.502   1.119   6.987  2.1476 -0.4663 -1.8519
   35CHL1   H1B 2562   2.477   0.963   6.945  0.1174 -0.9510  2.1946
   35CHL1    C2 2563   2.418   1.102   6.786  0.4746 -1.0849 -0.2104
   35CHL1   H2A 2564   2.521   1.096   6.745  1.2601  2.0346  1.0430
   35CHL1   H2B 2565   2.392   1.210   6.777 -1.0296 -1.3557  0.5801
   35CHL1   C20 2566   2.354   0.985   7.715 -0.0366 -0.3779  0.0525
   35CHL1   H20 2567   2.286   1.072   7.724  0.4205 -0.0195  0.0447
   35CHL1   C21 2568   2.491   1.054   7.704 -0.0199 -0.1007  0.0332
   35CHL1  H21A 2569   2.490   1.140   7.634  0.6209  0.1702  0.3461
   35CHL1  H21B 2570   2.574   0.989   7.671  0.1891  0.0797  0.2010
   35CHL1  H21C 2571   2.518   1.105   7.799  1.0262 -1.4047  0.4636
   35CHL1   C22 2572   2.343   0.892   7.840 -0.1909 -0.8035 -0.5256
   35CHL1  H22A 2573   2.254   0.826   7.842  0.0456 -1.1068  0.9828
   35CHL1  H22B 2574   2.438   0.835   7.846 -0.8499 -1.9194 -0.3310
   35CHL1   C23 2575   2.338   0.968   7.974 -0.3081  0.1775 -0.0520
   35CHL1  H23A 2576   2.444   0.999   7.987 -0.0243 -0.9948  0.6358
   35CHL1  H23B 2577   2.273   1.057   7.964 -0.0476  0.5915  1.6787
   35CHL1   C24 2578   2.310   0.877   8.089  0.4905  0.9384  0.2760
   35CHL1  H24A 2579   2.208   0.835   8.073  0.6274  0.9779 -0.7521
   35CHL1  H24B 2580   2.372   0.786   8.079  0.2087  0.9684 -2.8137
   35CHL1   C25 2581   2.342   0.936   8.231 -0.6134  0.1629 -0.0302
   35CHL1   H25 2582   2.450   0.961   8.230 -0.2541 -1.2214  1.2138
   35CHL1   C26 2583   2.254   1.063   8.247  0.3229 -0.3492  0.3202
   35CHL1  H26A 2584   2.273   1.113   8.345 -1.7311 -0.3509  0.7581
   35CHL1  H26B 2585   2.264   1.145   8.173 -2.5986 -0.5445 -0.3966
   35CHL1  H26C 2586   2.148   1.033   8.236  0.0872  0.0196  1.4117
   35CHL1   C27 2587   2.316   0.834   8.351 -0.2901  0.2535  0.5545
   35CHL1  H27A 2588   2.209   0.809   8.367 -0.2428  0.8478  1.9087
   35CHL1  H27B 2589   2.346   0.879   8.448 -0.5878  0.7606  0.4101
   35CHL1  H27C 2590   2.377   0.742   8.338  2.7618  2.3692 -1.3917
   36CHL1    C3 2591   2.226   0.054   6.913 -0.1741 -1.1415 -0.1128
   36CHL1    H3 2592   2.295  -0.032   6.902 -0.6745 -2.0864  3.1316
   36CHL1    O3 2593   2.215   0.125   6.789 -0.3343  0.4737  0.2186
   36CHL1   H3' 2594   2.162   0.202   6.813  0.0694  0.3183  1.7128
   36CHL1    C4 2595   2.093  -0.010   6.961 -0.7910 -0.0532 -0.8164
   36CHL1   H4A 2596   2.012   0.062   6.984  0.7701  1.6833 -0.4891
   36CHL1   H4B 2597   2.056  -0.072   6.877 -2.1024 -0.1008 -0.2307
   36CHL1    C5 2598   2.120  -0.091   7.089  0.1407  0.1213  0.2621
   36CHL1    C6 2599   2.093  -0.223   7.087  0.0436 -0.2251  0.5810
   36CHL1    H6 2600   2.055  -0.277   6.999 -0.0410 -0.4666  0.7666
   36CHL1    C7 2601   2.110  -0.311   7.206  0.2691  0.5269 -0.0216
   36CHL1   H7A 2602   2.021  -0.377   7.196  1.9723 -1.5900 -2.8915
   36CHL1   H7B 2603   2.206  -0.359   7.177 -0.9108 -2.3799  0.5678
   36CHL1    C8 2604   2.115  -0.234   7.339  0.1359 -0.0348 -0.4916
   36CHL1    H8 2605   2.016  -0.188   7.356  0.5511 -0.0167  2.3316
   36CHL1   C14 2606   2.147  -0.318   7.459 -0.0350  0.8446  0.0575
   36CHL1   H14 2607   2.251  -0.357   7.462  0.6833  2.4021  4.5704
   36CHL1   C15 2608   2.061  -0.447   7.472  0.5872  0.7675  0.4714
   36CHL1  H15A 2609   1.953  -0.423   7.461  0.6586  2.1244  2.2404
   36CHL1  H15B 2610   2.099  -0.532   7.410  0.7328  1.3858 -0.2963
   36CHL1   C16 2611   2.088  -0.482   7.621  0.2148  0.7042 -0.7249
   36CHL1  H16A 2612   1.993  -0.496   7.677 -1.1152 -3.4847 -3.5167
   36CHL1  H16B 2613   2.148  -0.576   7.626 -0.1213  0.5420  1.8675
   36CHL1   C17 2614   2.170  -0.368   7.682 -0.6958  0.5808  0.3976
   36CHL1   H17 2615   2.275  -0.401   7.667 -0.4790  0.6515  1.6239
   36CHL1   C13 2616   2.142  -0.248   7.586  0.0501 -0.2354 -0.6790
   36CHL1   C18 2617   1.998  -0.199   7.612 -0.8284 -0.2190  0.1040
   36CHL1  H18A 2618   1.917  -0.273   7.632 -2.9752  1.6241 -1.2296
   36CHL1  H18B 2619   2.017  -0.127   7.695  1.3261  1.8198 -1.9769
   36CHL1  H18C 2620   1.970  -0.123   7.535 -0.5835 -1.0845 -0.8594
   36CHL1   C12 2621   2.255  -0.137   7.580  0.1022 -0.3670 -0.1137
   36CHL1  H12A 2622   2.260  -0.091   7.680 -0.1311  1.0540 -0.7306
   36CHL1  H12B 2623   2.351  -0.187   7.553  0.0691  0.4908 -1.9846
   36CHL1   C11 2624   2.227  -0.040   7.469  0.0290  0.0090 -0.1808
   36CHL1  H11A 2625   2.132   0.005   7.507  0.4069 -1.1352  2.3199
   36CHL1  H11B 2626   2.302   0.042   7.471 -0.4964  0.7471 -4.0159
   36CHL1    C9 2627   2.218  -0.112   7.329  1.0805 -0.4580 -0.5893
   36CHL1    H9 2628   2.321  -0.149   7.307  0.7048 -1.4176 -0.8066
   36CHL1   C10 2629   2.184  -0.015   7.208 -0.4695 -0.0445  0.9102
   36CHL1   C19 2630   2.076   0.085   7.262 -0.2169 -0.0826  0.0132
   36CHL1  H19A 2631   2.114   0.164   7.330 -1.9478  0.4700  0.3995
   36CHL1  H19B 2632   2.030   0.146   7.182  0.9776  0.9141  0.0586
   36CHL1  H19C 2633   1.997   0.024   7.310 -0.5533 -0.7103 -1.3156
   36CHL1    C1 2634   2.305   0.062   7.155  0.3274 -0.3607 -0.2320
   36CHL1   H1A 2635   2.341   0.131   7.233  0.3148 -0.4216 -0.1716
   36CHL1   H1B 2636   2.389  -0.008   7.135  1.4586  1.6079 -2.9570
   36CHL1    C2 2637   2.296   0.143   7.016  0.2812  0.1110 -0.9546
   36CHL1   H2A 2638   2.391   0.186   6.979 -0.0042  0.2268 -1.5586
   36CHL1   H2B 2639   2.220   0.224   7.027  1.8790  1.7673 -1.6498
   36CHL1   C20 2640   2.155  -0.358   7.832 -0.4209 -0.8312  0.1559
   36CHL1   H20 2641   2.050  -0.328   7.850 -0.8805 -1.3889 -1.4053
   36CHL1   C21 2642   2.243  -0.249   7.883  0.2122  0.7034 -0.2092
   36CHL1  H21A 2643   2.226  -0.258   7.993 -0.8653  1.4304 -0.2982
   36CHL1  H21B 2644   2.210  -0.147   7.854  0.9178  0.3927 -2.2499
   36CHL1  H21C 2645   2.347  -0.263   7.848  0.0637 -1.6320  0.1338
   36CHL1   C22 2646   2.183  -0.484   7.921 -0.2255 -0.0679  0.6276
   36CHL1  H22A 2647   2.185  -0.580   7.864  2.4605  0.5236 -0.4207
   36CHL1  H22B 2648   2.290  -0.488   7.948 -0.2425 -2.6730  0.5867
   36CHL1   C23 2649   2.103  -0.501   8.048 -0.2059 -0.0384  0.2524
   36CHL1  H23A 2650   2.108  -0.419   8.123  1.0039  0.7757 -0.6735
   36CHL1  H23B 2651   1.998  -0.520   8.020 -0.1502  0.2899 -0.1813
   36CHL1   C24 2652   2.151  -0.631   8.122  0.1004  0.2420  0.1588
   36CHL1  H24A 2653   2.129  -0.728   8.072  4.0257 -0.0373 -1.4068
   36CHL1  H24B 2654   2.260  -0.631   8.142  0.3701  0.8409 -1.1876
   36CHL1   C25 2655   2.100  -0.641   8.266  0.0766  0.3464 -0.1834
   36CHL1   H25 2656   2.122  -0.554   8.330  1.5153  0.3312 -0.6286
   36CHL1   C26 2657   1.948  -0.675   8.263 -0.1743 -0.6980 -0.0972
   36CHL1  H26A 2658   1.903  -0.686   8.364 -1.0447  0.9656 -0.2704
   36CHL1  H26B 2659   1.891  -0.610   8.193  1.4051 -0.3778 -1.1241
   36CHL1  H26C 2660   1.946  -0.773   8.209  1.2850 -0.2271 -1.0458
   36CHL1   C27 2661   2.150  -0.765   8.334 -0.0784  0.3879 -0.0544
   36CHL1  H27A 2662   2.097  -0.790   8.429 -0.0527  2.8502  0.6795
   36CHL1  H27B 2663   2.129  -0.853   8.269  0.2009 -0.6891  1.2588
   36CHL1  H27C 2664   2.259  -0.772   8.358  0.1425 -0.2331 -1.2101
   37CHL1    C3 2665   6.730   2.986   6.896 -0.3676  0.1344  0.4337
   37CHL1    H3 2666   6.832   3.030   6.907 -1.1283  2.0166  0.3724
   37CHL1    O3 2667   6.691   2.997   6.761  0.0308 -0.6342  0.3151
   37CHL1   H3' 2668   6.614   3.055   6.757  1.3410  1.3219  1.7939
   37CHL1    C4 2669   6.706   2.843   6.939  0.0871 -0.2760 -0.9107
   37CHL1   H4A 2670   6.608   2.805   6.904 -0.0097 -1.1640  0.2609
   37CHL1   H4B 2671   6.786   2.782   6.891  2.7938  0.8431  1.8417
   37CHL1    C5 2672   6.732   2.833   7.094 -0.4746  0.2019  0.1006
   37CHL1    C6 2673   6.809   2.740   7.148  0.2937  0.0008 -0.3886
   37CHL1    H6 2674   6.851   2.664   7.080 -1.1879 -0.6313 -0.6239
   37CHL1    C7 2675   6.818   2.718   7.295 -0.0678  0.2897 -0.2687
   37CHL1   H7A 2676   6.816   2.612   7.325  0.0341  0.5874  0.8189
   37CHL1   H7B 2677   6.915   2.761   7.327 -0.9563 -0.0036  3.2298
   37CHL1    C8 2678   6.712   2.794   7.379  0.0685 -0.3293 -0.5532
   37CHL1    H8 2679   6.626   2.724   7.376  0.4810 -0.9368  0.7644
   37CHL1   C14 2680   6.771   2.811   7.516  0.4573  0.0621  0.0306
   37CHL1   H14 2681   6.863   2.869   7.494  0.9728 -1.6944 -3.0773
   37CHL1   C15 2682   6.833   2.689   7.584  0.2315  0.3082  0.1291
   37CHL1  H15A 2683   6.773   2.598   7.567  0.7196 -0.0167  0.1320
   37CHL1  H15B 2684   6.936   2.672   7.547 -0.7241 -2.5950 -1.5141
   37CHL1   C16 2685   6.831   2.727   7.735  0.2325 -0.1048 -0.1804
   37CHL1  H16A 2686   6.770   2.667   7.805 -0.0989  0.2150 -0.1938
   37CHL1  H16B 2687   6.930   2.716   7.785 -0.9002 -1.6728  1.8445
   37CHL1   C17 2688   6.778   2.872   7.747  0.1334  0.0880 -0.2254
   37CHL1   H17 2689   6.865   2.940   7.733 -0.9280  1.4468 -0.4513
   37CHL1   C13 2690   6.688   2.886   7.622 -0.6710  0.0377 -0.1576
   37CHL1   C18 2691   6.555   2.811   7.646 -1.1632 -0.4410  0.4252
   37CHL1  H18A 2692   6.490   2.792   7.558  0.4611  0.0343 -0.9233
   37CHL1  H18B 2693   6.574   2.708   7.683 -1.3648 -0.5940  0.1100
   37CHL1  H18C 2694   6.499   2.870   7.722  1.2992 -1.6301  3.3741
   37CHL1   C12 2695   6.667   3.029   7.567  0.2364 -0.2280 -0.2213
   37CHL1  H12A 2696   6.595   3.072   7.639  0.9073  0.7476 -0.1189
   37CHL1  H12B 2697   6.772   3.065   7.572 -0.1774  0.9598  0.1937
   37CHL1   C11 2698   6.611   3.027   7.420 -0.9146 -0.4902  0.4833
   37CHL1  H11A 2699   6.504   2.996   7.430 -1.7987  2.0869 -0.2395
   37CHL1  H11B 2700   6.611   3.133   7.389 -0.5069 -0.8146 -0.6578
   37CHL1    C9 2701   6.695   2.936   7.324 -0.3025  0.3162 -0.4351
   37CHL1    H9 2702   6.801   2.970   7.316  0.1050 -0.9096 -0.5717
   37CHL1   C10 2703   6.650   2.933   7.178 -0.0721 -0.3337  0.6747
   37CHL1   C19 2704   6.497   2.899   7.166  0.1829  0.5458  0.5921
   37CHL1  H19A 2705   6.441   2.960   7.239  0.9627 -1.7662  3.2857
   37CHL1  H19B 2706   6.461   2.912   7.061  0.0061  0.3988  0.6359
   37CHL1  H19C 2707   6.487   2.791   7.190 -0.3875  1.0909  3.0098
   37CHL1    C1 2708   6.670   3.071   7.121  0.1637 -0.0019  0.6265
   37CHL1   H1A 2709   6.605   3.140   7.178  0.7251 -0.2104  1.5423
   37CHL1   H1B 2710   6.773   3.101   7.149  0.2085 -2.7822  4.1730
   37CHL1    C2 2711   6.645   3.087   6.969 -0.8006  0.5363 -0.3748
   37CHL1   H2A 2712   6.664   3.193   6.943 -0.1985  0.1560 -1.5476
   37CHL1   H2B 2713   6.537   3.063   6.955 -0.4137 -1.4858 -0.2557
   37CHL1   C20 2714   6.729   2.893   7.894  0.4625 -0.0561  0.0112
   37CHL1   H20 2715   6.648   2.822   7.921 -0.9480  1.8702  1.0303
   37CHL1   C21 2716   6.660   3.026   7.900 -0.2802 -0.1243 -0.0657
   37CHL1  H21A 2717   6.708   3.114   7.853 -1.5259  1.2155  1.0507
   37CHL1  H21B 2718   6.642   3.056   8.006  2.9235  1.3238  0.1985
   37CHL1  H21C 2719   6.566   3.023   7.842 -1.3561  2.4321  1.3447
   37CHL1   C22 2720   6.846   2.895   7.991 -0.3650  0.2979 -0.3174
   37CHL1  H22A 2721   6.898   2.798   7.982  0.4549  0.1491  3.8576
   37CHL1  H22B 2722   6.918   2.969   7.951  0.9147 -2.5069 -3.6746
   37CHL1   C23 2723   6.809   2.909   8.139 -0.1869  0.3908  0.1731
   37CHL1  H23A 2724   6.776   3.011   8.167  1.1542  0.7145  0.6596
   37CHL1  H23B 2725   6.735   2.836   8.178  1.0153 -0.2007  1.4289
   37CHL1   C24 2726   6.930   2.871   8.222 -0.3793  0.5290 -0.3086
   37CHL1  H24A 2727   6.946   2.763   8.198  0.8477  0.7579 -0.6183
   37CHL1  H24B 2728   7.018   2.925   8.180 -0.7721  1.6164  0.2523
   37CHL1   C25 2729   6.917   2.866   8.380  0.0992  0.3458 -0.3984
   37CHL1   H25 2730   6.820   2.838   8.425  0.6057  1.1097  1.2380
   37CHL1   C26 2731   7.027   2.772   8.440  0.4690  0.2115 -0.0819
   37CHL1  H26A 2732   7.012   2.667   8.406  0.1199  0.6725 -1.4176
   37CHL1  H26B 2733   7.123   2.813   8.404  0.9795  0.7135  1.7473
   37CHL1  H26C 2734   7.030   2.763   8.551 -1.6713 -1.9702 -0.1130
   37CHL1   C27 2735   6.936   3.009   8.432 -0.0860  0.3484 -0.1487
   37CHL1  H27A 2736   6.849   3.065   8.390 -1.0310 -0.8619  0.1532
   37CHL1  H27B 2737   6.939   3.020   8.543 -2.0980  0.1703 -0.0265
   37CHL1  H27C 2738   7.026   3.049   8.381 -0.0777  0.8616  0.2530
   38CHL1    C3 2739   3.749   2.866   6.876  1.4180 -0.3029 -0.7372
   38CHL1    H3 2740   3.670   2.791   6.896 -0.7635  1.1677 -3.1548
   38CHL1    O3 2741   3.766   2.885   6.737 -0.5915 -0.3499 -0.1844
   38CHL1   H3' 2742   3.801   2.803   6.704 -2.1505 -0.9819 -0.3638
   38CHL1    C4 2743   3.720   3.003   6.946 -0.2229  0.2606 -0.1606
   38CHL1   H4A 2744   3.789   3.078   6.901  1.3603 -0.9056  0.2735
   38CHL1   H4B 2745   3.614   3.032   6.927 -1.8048 -3.5186  1.9352
   38CHL1    C5 2746   3.746   3.025   7.092 -0.1701 -0.3140  0.0947
   38CHL1    C6 2747   3.648   3.075   7.174 -0.0442  0.9178 -0.2002
   38CHL1    H6 2748   3.550   3.109   7.136  0.3885  1.3004 -1.0035
   38CHL1    C7 2749   3.668   3.095   7.324 -0.5654 -0.2896 -0.2664
   38CHL1   H7A 2750   3.639   3.194   7.364 -1.4696 -0.9839  0.8782
   38CHL1   H7B 2751   3.591   3.023   7.360 -0.2228 -2.1549 -3.0013
   38CHL1    C8 2752   3.816   3.072   7.367 -0.0787 -0.2287  0.1220
   38CHL1    H8 2753   3.876   3.164   7.347 -0.0644 -0.5705 -1.6275
   38CHL1   C14 2754   3.816   3.042   7.517 -0.2587 -0.2713 -0.2673
   38CHL1   H14 2755   3.778   2.938   7.528  0.0782 -0.6035 -2.0646
   38CHL1   C15 2756   3.728   3.135   7.603 -0.3733  0.5330  0.4737
   38CHL1  H15A 2757   3.734   3.242   7.576  1.5856  0.1834 -0.6468
   38CHL1  H15B 2758   3.622   3.102   7.600 -0.7291  1.6529  0.3859
   38CHL1   C16 2759   3.791   3.117   7.739  0.3274  0.6489  0.0809
   38CHL1  H16A 2760   3.831   3.217   7.765  0.1510  0.4382  1.2488
   38CHL1  H16B 2761   3.733   3.073   7.824  1.2982 -0.3278  0.2581
   38CHL1   C17 2762   3.913   3.015   7.724 -0.4004  0.0886  0.1203
   38CHL1   H17 2763   3.866   2.915   7.738  0.4913 -0.5263 -1.0673
   38CHL1   C13 2764   3.956   3.030   7.574 -0.2137  0.5528  0.5932
   38CHL1   C18 2765   4.031   3.166   7.564 -0.5208  0.0364  0.0255
   38CHL1  H18A 2766   4.071   3.182   7.462 -1.9174  1.5167 -0.3396
   38CHL1  H18B 2767   3.966   3.252   7.591 -1.7437 -0.9783  0.4108
   38CHL1  H18C 2768   4.118   3.163   7.632  0.6673  0.1024 -1.4430
   38CHL1   C12 2769   4.021   2.907   7.508  0.6778  0.5054  0.5008
   38CHL1  H12A 2770   4.124   2.894   7.547 -0.3598  1.3611  3.8134
   38CHL1  H12B 2771   3.970   2.812   7.534 -0.4139  0.7033 -0.7610
   38CHL1   C11 2772   4.024   2.917   7.355  0.2773  0.2362 -0.2337
   38CHL1  H11A 2773   4.088   3.005   7.335 -0.6558  0.5288 -2.2130
   38CHL1  H11B 2774   4.074   2.832   7.303  1.1418  0.6431 -0.0725
   38CHL1    C9 2775   3.888   2.953   7.292  0.3822 -0.5588 -0.4357
   38CHL1    H9 2776   3.813   2.875   7.318 -2.5781  1.5196 -2.1197
   38CHL1   C10 2777   3.877   2.967   7.138 -0.4082  0.4906 -0.4309
   38CHL1   C19 2778   4.005   3.044   7.082  0.2643 -0.3499 -0.3669
   38CHL1  H19A 2779   4.010   3.149   7.118 -1.2993 -0.3304 -0.1176
   38CHL1  H19B 2780   4.102   2.998   7.111  1.2356  1.2749 -0.9033
   38CHL1  H19C 2781   3.997   3.058   6.972  0.1331 -1.3559 -0.4937
   38CHL1    C1 2782   3.880   2.822   7.080  0.2587  1.4955  0.1732
   38CHL1   H1A 2783   3.970   2.767   7.116  0.5104  1.7462 -0.0683
   38CHL1   H1B 2784   3.798   2.767   7.131  0.0766  2.4921  0.9630
   38CHL1    C2 2785   3.875   2.809   6.925  0.0476 -0.4826  0.0017
   38CHL1   H2A 2786   3.883   2.700   6.905  3.7545 -0.5005  0.8743
   38CHL1   H2B 2787   3.968   2.859   6.889  0.0853 -0.8940 -0.4764
   38CHL1   C20 2788   4.023   3.016   7.835  0.6573 -0.8685 -0.3389
   38CHL1   H20 2789   4.075   3.112   7.817 -1.1172 -0.0279 -1.2862
   38CHL1   C21 2790   4.120   2.895   7.831 -0.1029 -1.1348  0.3957
   38CHL1  H21A 2791   4.064   2.803   7.802  0.2711 -1.1629 -0.2675
   38CHL1  H21B 2792   4.176   2.876   7.926  3.4928  2.1778 -0.8076
   38CHL1  H21C 2793   4.195   2.907   7.749 -0.5229 -2.6790 -0.2550
   38CHL1   C22 2794   3.965   3.036   7.981 -0.0154 -0.5088 -0.6337
   38CHL1  H22A 2795   3.874   3.100   7.985 -0.1370 -0.7288  1.1064
   38CHL1  H22B 2796   3.944   2.939   8.029  0.6771 -0.6640 -0.6325
   38CHL1   C23 2797   4.072   3.117   8.063  0.3524  0.1784 -0.0985
   38CHL1  H23A 2798   4.166   3.058   8.061 -0.5396 -1.3017 -2.7623
   38CHL1  H23B 2799   4.091   3.216   8.016  0.8298  0.6153  0.9828
   38CHL1   C24 2800   4.028   3.127   8.210  0.5081  0.1578 -0.3800
   38CHL1  H24A 2801   4.102   3.197   8.254  0.6536 -1.4742  2.2224
   38CHL1  H24B 2802   3.927   3.174   8.218 -0.2026 -1.3077 -0.2755
   38CHL1   C25 2803   4.034   3.004   8.299 -0.6481  0.3059  0.3341
   38CHL1   H25 2804   3.986   2.919   8.246  0.4442 -0.1200  0.0156
   38CHL1   C26 2805   4.177   2.964   8.324 -0.5745  0.1552  0.4553
   38CHL1  H26A 2806   4.184   2.880   8.396  0.4720 -0.5274 -0.4224
   38CHL1  H26B 2807   4.217   2.939   8.224 -1.4270 -1.7528  0.5586
   38CHL1  H26C 2808   4.230   3.054   8.362 -0.8111  1.0674 -1.2610
   38CHL1   C27 2809   3.969   3.031   8.428 -0.1257  0.4233 -0.0213
   38CHL1  H27A 2810   3.955   2.942   8.493  1.1877  0.5807  0.4987
   38CHL1  H27B 2811   4.040   3.093   8.487 -0.0550 -0.6414  1.0506
   38CHL1  H27C 2812   3.872   3.086   8.418 -1.3514 -1.1293  2.2735
   39CHL1    C3 2813   3.220   2.750   6.732 -0.4581  0.2389 -0.7146
   39CHL1    H3 2814   3.287   2.838   6.736 -1.6213  1.1135  1.4660
   39CHL1    O3 2815   3.186   2.726   6.599 -0.1186 -0.0520 -0.2023
   39CHL1   H3' 2816   3.116   2.786   6.572 -0.2579 -0.0150  0.2417
   39CHL1    C4 2817   3.286   2.628   6.801  0.5416  0.3372 -0.7790
   39CHL1   H4A 2818   3.208   2.550   6.806 -2.1010  2.8717  3.1241
   39CHL1   H4B 2819   3.375   2.602   6.740 -0.2842 -0.8128 -1.5277
   39CHL1    C5 2820   3.315   2.665   6.950 -0.2515 -0.5731  0.5081
   39CHL1    C6 2821   3.445   2.655   6.995 -0.1916 -0.2141  0.1796
   39CHL1    H6 2822   3.515   2.614   6.921  0.2932  1.1661 -0.1482
   39CHL1    C7 2823   3.484   2.688   7.139 -0.1735  0.2935  0.4885
   39CHL1   H7A 2824   3.552   2.609   7.179  1.0212  1.5447  1.0145
   39CHL1   H7B 2825   3.554   2.774   7.146  0.4084 -0.2301  1.2948
   39CHL1    C8 2826   3.360   2.701   7.231  0.1231  0.7019 -0.1815
   39CHL1    H8 2827   3.331   2.597   7.257  0.2329  0.9551  1.0447
   39CHL1   C14 2828   3.402   2.769   7.361 -0.5758  0.2000 -0.0429
   39CHL1   H14 2829   3.447   2.866   7.331 -2.4120  0.5589 -1.8540
   39CHL1   C15 2830   3.517   2.709   7.446 -0.0746 -0.3549  0.4872
   39CHL1  H15A 2831   3.501   2.600   7.461 -2.9346  0.0816  1.1895
   39CHL1  H15B 2832   3.621   2.728   7.412  0.4258 -1.5519  1.2635
   39CHL1   C16 2833   3.489   2.785   7.582 -1.0589  0.3164  0.8066
   39CHL1  H16A 2834   3.485   2.703   7.656 -1.2731 -0.7961 -0.3857
   39CHL1  H16B 2835   3.578   2.844   7.612 -0.5719  0.4858 -0.8480
   39CHL1   C17 2836   3.368   2.873   7.564  0.0626  0.0609 -0.3844
   39CHL1   H17 2837   3.402   2.966   7.513  0.1688  1.0614  1.4446
   39CHL1   C13 2838   3.291   2.801   7.457 -0.2586  0.6716  0.0768
   39CHL1   C18 2839   3.233   2.669   7.503  0.0143  0.2559 -0.7428
   39CHL1  H18A 2840   3.146   2.684   7.569  0.1646 -0.3967 -0.3847
   39CHL1  H18B 2841   3.194   2.604   7.421 -1.5526  0.9579 -0.5808
   39CHL1  H18C 2842   3.299   2.608   7.569 -1.9595  0.1581  1.2375
   39CHL1   C12 2843   3.183   2.894   7.386  0.0114 -0.2655 -0.0862
   39CHL1  H12A 2844   3.107   2.914   7.464  2.0276  2.7668  1.2839
   39CHL1  H12B 2845   3.225   2.993   7.359  3.3136 -1.6229 -0.4401
   39CHL1   C11 2846   3.132   2.829   7.259 -0.3197 -0.3855  0.5319
   39CHL1  H11A 2847   3.076   2.736   7.281 -2.1031  0.4304 -0.3293
   39CHL1  H11B 2848   3.065   2.900   7.204 -0.7812 -1.4850 -0.3604
   39CHL1    C9 2849   3.253   2.785   7.165  0.0821 -0.4660  0.4272
   39CHL1    H9 2850   3.294   2.885   7.139 -4.4996  1.5417 -0.2179
   39CHL1   C10 2851   3.206   2.731   7.029 -0.8182  0.2863  0.0045
   39CHL1   C19 2852   3.106   2.616   7.062 -0.3085  0.0538 -0.4201
   39CHL1  H19A 2853   3.015   2.637   7.123 -0.2545 -1.9577  0.4102
   39CHL1  H19B 2854   3.077   2.571   6.965  1.2047  0.3699 -1.0439
   39CHL1  H19C 2855   3.145   2.531   7.122 -1.2329 -0.6095 -0.7373
   39CHL1    C1 2856   3.145   2.850   6.951  0.6735  0.9231 -0.2175
   39CHL1   H1A 2857   3.051   2.870   7.007 -0.8602  2.0283 -3.0164
   39CHL1   H1B 2858   3.206   2.941   6.939  0.8799  0.9800  1.0881
   39CHL1    C2 2859   3.098   2.800   6.810 -0.1515  1.0086  0.4994
   39CHL1   H2A 2860   3.046   2.887   6.763 -1.7912 -0.4900 -0.6101
   39CHL1   H2B 2861   3.024   2.717   6.816  1.2119 -0.5368 -2.1711
   39CHL1   C20 2862   3.292   2.918   7.690  0.3450  1.0569  0.0317
   39CHL1   H20 2863   3.186   2.939   7.664 -0.0625 -3.2020 -2.8358
   39CHL1   C21 2864   3.371   3.042   7.742 -0.6715  0.4800 -0.4039
   39CHL1  H21A 2865   3.310   3.085   7.824 -0.8980  0.1265 -0.3828
   39CHL1  H21B 2866   3.368   3.127   7.671  1.1668  2.3249  1.5516
   39CHL1  H21C 2867   3.477   3.027   7.773 -0.8155 -0.0712 -0.1648
   39CHL1   C22 2868   3.281   2.810   7.803  0.2322  0.2168  0.2148
   39CHL1  H22A 2869   3.240   2.715   7.761 -0.2926 -0.3638  1.9718
   39CHL1  H22B 2870   3.377   2.788   7.853  1.4624 -0.0583 -2.1109
   39CHL1   C23 2871   3.189   2.866   7.915 -0.3514  0.2736  0.1668
   39CHL1  H23A 2872   3.243   2.949   7.966  0.8535  0.0455 -0.6931
   39CHL1  H23B 2873   3.103   2.923   7.875 -0.9674 -1.6136 -1.3660
   39CHL1   C24 2874   3.133   2.754   8.005  0.2800 -0.0350 -0.1589
   39CHL1  H24A 2875   3.070   2.684   7.945  0.7177  0.6845 -1.5164
   39CHL1  H24B 2876   3.217   2.700   8.053  0.5363  0.9741  0.5460
   39CHL1   C25 2877   3.053   2.798   8.131  0.0383 -0.1210 -0.0631
   39CHL1   H25 2878   2.981   2.878   8.104  0.2277 -0.0265 -0.2872
   39CHL1   C26 2879   2.979   2.686   8.194  0.4416  0.0479  0.0653
   39CHL1  H26A 2880   2.890   2.654   8.136 -0.8177  0.3676  1.7314
   39CHL1  H26B 2881   3.032   2.588   8.191  1.2108  0.4874 -2.0410
   39CHL1  H26C 2882   2.955   2.721   8.297  1.9843  0.0762  0.4404
   39CHL1   C27 2883   3.145   2.855   8.246 -0.6630 -0.5365 -0.5407
   39CHL1  H27A 2884   3.093   2.894   8.337  2.1806 -1.8679  1.8349
   39CHL1  H27B 2885   3.212   2.779   8.290 -0.3250 -0.9338 -1.7134
   39CHL1  H27C 2886   3.203   2.938   8.201 -0.6155 -0.0674  0.3459
   40CHL1    C3 2887   0.511   0.812   7.055  0.1510 -0.2536  0.0468
   40CHL1    H3 2888   0.602   0.866   7.087  1.2346 -1.9488 -0.0176
   40CHL1    O3 2889   0.490   0.829   6.913 -0.3092  0.6855 -0.0630
   40CHL1   H3' 2890   0.572   0.801   6.871  0.5333  2.3548  0.3914
   40CHL1    C4 2891   0.537   0.661   7.082 -0.6547  0.1738 -0.3131
   40CHL1   H4A 2892   0.462   0.602   7.026  0.9144 -0.5735 -1.7194
   40CHL1   H4B 2893   0.640   0.645   7.044 -0.2801  1.7837 -0.0459
   40CHL1    C5 2894   0.531   0.618   7.225 -0.5101  0.2297 -0.5043
   40CHL1    C6 2895   0.634   0.544   7.276 -0.7212  0.1529 -0.0338
   40CHL1    H6 2896   0.719   0.520   7.210  0.5785  2.5937  0.6551
   40CHL1    C7 2897   0.632   0.488   7.418 -0.4116 -0.1659 -0.6754
   40CHL1   H7A 2898   0.649   0.379   7.406  0.4447  0.2436 -4.0189
   40CHL1   H7B 2899   0.713   0.539   7.474 -0.0001  0.5913 -1.9312
   40CHL1    C8 2900   0.498   0.505   7.494  0.0279  0.4459 -0.0503
   40CHL1    H8 2901   0.429   0.432   7.448  0.5923 -1.0696  1.4184
   40CHL1   C14 2902   0.518   0.492   7.643 -0.2248  0.1996  0.4346
   40CHL1   H14 2903   0.592   0.566   7.681  1.2304 -2.5571  3.3833
   40CHL1   C15 2904   0.593   0.360   7.692  0.8118 -0.0105 -0.0710
   40CHL1  H15A 2905   0.549   0.276   7.634  0.5114  0.9913 -1.3385
   40CHL1  H15B 2906   0.702   0.367   7.673  0.5866  0.5307 -1.2945
   40CHL1   C16 2907   0.558   0.359   7.842  0.4252  0.6312 -0.2392
   40CHL1  H16A 2908   0.504   0.268   7.876 -0.1914  0.2440 -2.1344
   40CHL1  H16B 2909   0.648   0.361   7.908 -0.2270 -0.1131  0.7006
   40CHL1   C17 2910   0.457   0.472   7.874 -0.8877 -1.1836  0.6889
   40CHL1   H17 2911   0.522   0.560   7.893  0.9516 -1.8915 -1.8015
   40CHL1   C13 2912   0.391   0.504   7.731 -0.5189  1.1623  0.5199
   40CHL1   C18 2913   0.287   0.393   7.686 -0.2407 -0.0962  0.1596
   40CHL1  H18A 2914   0.243   0.418   7.587 -1.4351 -0.5063  0.5709
   40CHL1  H18B 2915   0.318   0.287   7.677 -0.9226 -0.3579  0.7718
   40CHL1  H18C 2916   0.200   0.401   7.755  0.5656  0.9598  1.0965
   40CHL1   C12 2917   0.335   0.647   7.709  0.0211 -0.9257 -0.2705
   40CHL1  H12A 2918   0.242   0.662   7.768  1.2587  1.2709  1.2814
   40CHL1  H12B 2919   0.408   0.715   7.759  0.3438 -1.7062  0.3514
   40CHL1   C11 2920   0.315   0.678   7.554  0.5198 -0.7407  0.2412
   40CHL1  H11A 2921   0.221   0.629   7.522 -0.4591 -0.0624  1.9250
   40CHL1  H11B 2922   0.283   0.784   7.549 -0.7866 -0.9639  2.5393
   40CHL1    C9 2923   0.435   0.640   7.464 -0.1696  0.5969  0.8694
   40CHL1    H9 2924   0.507   0.717   7.499  1.9560 -0.5708 -0.6920
   40CHL1   C10 2925   0.417   0.664   7.308 -0.7268 -0.8951 -0.2870
   40CHL1   C19 2926   0.284   0.589   7.266  0.3584  0.1050 -0.5035
   40CHL1  H19A 2927   0.202   0.657   7.300  1.9595  1.6267  0.4581
   40CHL1  H19B 2928   0.275   0.587   7.156 -0.6725 -2.2360 -0.4346
   40CHL1  H19C 2929   0.275   0.490   7.316  0.4205  1.3821  2.2716
   40CHL1    C1 2930   0.409   0.818   7.283  0.2660 -0.4648  0.2823
   40CHL1   H1A 2931   0.317   0.855   7.333  0.9672  0.2871  1.0283
   40CHL1   H1B 2932   0.487   0.878   7.333  0.2426 -0.3118  0.1369
   40CHL1    C2 2933   0.394   0.856   7.134  0.6515 -0.0055 -0.2242
   40CHL1   H2A 2934   0.375   0.965   7.124 -1.4375 -0.3802 -0.9004
   40CHL1   H2B 2935   0.296   0.809   7.110  0.0490  1.0342  0.1387
   40CHL1   C20 2936   0.376   0.447   8.003  0.3355  0.5697 -0.1848
   40CHL1   H20 2937   0.294   0.377   7.978  0.3787  1.0826 -1.9154
   40CHL1   C21 2938   0.301   0.584   8.050  0.3549 -0.1086  0.0172
   40CHL1  H21A 2939   0.242   0.554   8.139 -0.4188  0.8142 -0.1630
   40CHL1  H21B 2940   0.228   0.631   7.980  0.7416  1.4194  0.5958
   40CHL1  H21C 2941   0.378   0.654   8.087  0.6111  0.2608 -1.1549
   40CHL1   C22 2942   0.455   0.393   8.127 -0.4643 -0.2100  0.2495
   40CHL1  H22A 2943   0.523   0.308   8.105 -2.3462 -1.8524  0.5285
   40CHL1  H22B 2944   0.517   0.478   8.163 -2.3201  1.3931 -0.2110
   40CHL1   C23 2945   0.365   0.338   8.235  0.2673  0.8083 -0.2876
   40CHL1  H23A 2946   0.288   0.411   8.266 -1.0851 -0.4179 -0.6707
   40CHL1  H23B 2947   0.308   0.259   8.182 -1.0470  2.0491 -0.7822
   40CHL1   C24 2948   0.444   0.301   8.359  0.0624 -0.3257  0.4607
   40CHL1  H24A 2949   0.525   0.230   8.331  0.9876  1.0884 -0.5584
   40CHL1  H24B 2950   0.492   0.395   8.396  2.8152 -2.3209  2.4029
   40CHL1   C25 2951   0.362   0.244   8.479 -0.3293 -0.2829  0.3485
   40CHL1   H25 2952   0.424   0.229   8.570  0.2467 -1.2217 -0.1826
   40CHL1   C26 2953   0.245   0.340   8.514  0.6895 -0.3820 -0.9610
   40CHL1  H26A 2954   0.176   0.350   8.427 -0.1129  1.1503 -0.1990
   40CHL1  H26B 2955   0.178   0.292   8.589 -1.0498  0.5739 -1.8467
   40CHL1  H26C 2956   0.283   0.436   8.554  1.4221 -1.7306  1.8329
   40CHL1   C27 2957   0.309   0.098   8.465 -0.8229 -0.0637 -0.1734
   40CHL1  H27A 2958   0.395   0.029   8.481 -0.3254  0.6803  0.3831
   40CHL1  H27B 2959   0.250   0.071   8.555  0.9193 -2.6176  0.3435
   40CHL1  H27C 2960   0.265   0.071   8.366 -1.1085 -2.4408  0.5229
   41CHL1    C3 2961   0.466   1.771   6.721  0.3088  0.3727  0.0877
   41CHL1    H3 2962   0.425   1.672   6.750 -0.2039  0.8037  0.8647
   41CHL1    O3 2963   0.463   1.791   6.581 -0.2820  0.3423 -0.8349
   41CHL1   H3' 2964   0.511   1.873   6.565 -1.1810  0.8271 -1.1592
   41CHL1    C4 2965   0.388   1.880   6.797 -0.0507  0.2473 -0.5038
   41CHL1   H4A 2966   0.442   1.973   6.768 -0.2177  0.4265 -0.2439
   41CHL1   H4B 2967   0.285   1.881   6.754 -0.4423 -1.2880  0.3038
   41CHL1    C5 2968   0.389   1.862   6.950 -0.9392  0.0080 -0.2036
   41CHL1    C6 2969   0.278   1.857   7.023  0.8520  0.6265  0.2370
   41CHL1    H6 2970   0.184   1.872   6.968 -0.0511 -1.1290  1.2444
   41CHL1    C7 2971   0.275   1.848   7.170 -0.1950  0.8441  0.0244
   41CHL1   H7A 2972   0.201   1.917   7.214  0.7009  1.3984  0.6712
   41CHL1   H7B 2973   0.241   1.747   7.203  0.7147  1.5512  3.4180
   41CHL1    C8 2974   0.412   1.860   7.241 -0.2876 -0.1130 -0.0177
   41CHL1    H8 2975   0.439   1.967   7.254  0.3431 -0.2353 -0.2933
   41CHL1   C14 2976   0.410   1.786   7.371  0.4828  0.7998 -0.0881
   41CHL1   H14 2977   0.384   1.680   7.352 -2.7627  1.5212 -0.3298
   41CHL1   C15 2978   0.306   1.829   7.481 -0.5784 -0.6887  0.0180
   41CHL1  H15A 2979   0.299   1.939   7.497 -1.3261 -0.9277  1.5483
   41CHL1  H15B 2980   0.208   1.787   7.451 -0.3721 -0.1160 -1.5383
   41CHL1   C16 2981   0.357   1.768   7.610 -0.1751  0.9806  0.3349
   41CHL1  H16A 2982   0.367   1.854   7.679  0.1947  1.7533 -0.6537
   41CHL1  H16B 2983   0.281   1.694   7.643 -1.0675  0.8751 -1.8043
   41CHL1   C17 2984   0.495   1.697   7.567  0.0623 -0.2144 -0.7782
   41CHL1   H17 2985   0.456   1.596   7.544 -0.1292 -0.1182 -0.8764
   41CHL1   C13 2986   0.545   1.777   7.442  0.2995  0.4417 -0.0991
   41CHL1   C18 2987   0.591   1.916   7.480 -0.2322 -0.6770 -1.1560
   41CHL1  H18A 2988   0.555   1.994   7.411  0.7505 -1.6653 -2.8529
   41CHL1  H18B 2989   0.556   1.942   7.582  0.8954 -0.1523 -0.8826
   41CHL1  H18C 2990   0.702   1.915   7.476  0.0088 -1.5029  2.1748
   41CHL1   C12 2991   0.650   1.717   7.358  0.2587  0.1891  0.1232
   41CHL1  H12A 2992   0.743   1.715   7.418 -0.7334 -0.9548  1.6943
   41CHL1  H12B 2993   0.640   1.609   7.332 -0.2969 -0.4191  2.6246
   41CHL1   C11 2994   0.662   1.797   7.224 -0.1116  0.0975 -0.1912
   41CHL1  H11A 2995   0.699   1.898   7.253  0.0679  0.3737 -1.3343
   41CHL1  H11B 2996   0.742   1.755   7.160 -0.9901 -0.6721 -0.8111
   41CHL1    C9 2997   0.526   1.795   7.159 -0.0813  0.2702  0.5703
   41CHL1    H9 2998   0.487   1.694   7.135  1.2808  0.3672 -2.6195
   41CHL1   C10 2999   0.534   1.849   7.012  0.2721 -0.4419 -0.6870
   41CHL1   C19 3000   0.600   1.991   7.020 -0.3159  0.1321  0.4474
   41CHL1  H19A 3001   0.531   2.062   7.070  0.3675  1.1291  0.0112
   41CHL1  H19B 3002   0.706   1.979   7.051  0.3993  3.0656 -0.5489
   41CHL1  H19C 3003   0.602   2.031   6.917 -0.4918 -3.0064 -0.8745
   41CHL1    C1 3004   0.614   1.750   6.921  0.5522 -0.8595  0.3637
   41CHL1   H1A 3005   0.718   1.742   6.958  0.6290  2.5734  1.1994
   41CHL1   H1B 3006   0.557   1.655   6.932 -1.1505  0.2749  1.8926
   41CHL1    C2 3007   0.611   1.776   6.768  0.7038  0.1211 -0.1660
   41CHL1   H2A 3008   0.675   1.699   6.721  0.4050  0.3626 -0.9846
   41CHL1   H2B 3009   0.651   1.875   6.738 -1.7215  0.6199 -2.0848
   41CHL1   C20 3010   0.591   1.689   7.688  0.0583  0.3645 -0.6383
   41CHL1   H20 3011   0.656   1.780   7.689  1.7508 -0.7438 -2.1282
   41CHL1   C21 3012   0.682   1.569   7.662  1.4074  0.7760  0.3929
   41CHL1  H21A 3013   0.782   1.582   7.709  2.2901 -1.9696 -0.5190
   41CHL1  H21B 3014   0.708   1.553   7.555 -2.8816 -1.0081 -0.6121
   41CHL1  H21C 3015   0.637   1.473   7.696 -0.6773  0.6055 -2.4687
   41CHL1   C22 3016   0.514   1.651   7.819  0.1016 -0.1132  0.0938
   41CHL1  H22A 3017   0.453   1.741   7.843  1.4465  0.7763  0.3095
   41CHL1  H22B 3018   0.440   1.569   7.812  1.0379 -1.0096  0.5487
   41CHL1   C23 3019   0.603   1.628   7.942  0.9514  0.9303  0.4779
   41CHL1  H23A 3020   0.631   1.521   7.938  0.3964  0.8143 -1.6051
   41CHL1  H23B 3021   0.701   1.680   7.934  1.0306  0.8267  0.7980
   41CHL1   C24 3022   0.537   1.642   8.075 -0.1196  0.1000  0.1528
   41CHL1  H24A 3023   0.543   1.747   8.111  1.8591 -0.4099  1.5054
   41CHL1  H24B 3024   0.429   1.622   8.058 -0.1934  1.0364 -0.5084
   41CHL1   C25 3025   0.591   1.556   8.193  0.1347 -0.2049  0.1902
   41CHL1   H25 3026   0.592   1.453   8.152 -3.0720  0.3568 -1.6095
   41CHL1   C26 3027   0.734   1.611   8.226  0.7026 -0.0416  0.7748
   41CHL1  H26A 3028   0.789   1.547   8.298  0.6975 -0.9223  0.0164
   41CHL1  H26B 3029   0.785   1.624   8.128 -1.4882 -0.1701 -0.4640
   41CHL1  H26C 3030   0.729   1.714   8.267 -0.7039  0.8424 -1.3996
   41CHL1   C27 3031   0.500   1.566   8.314 -0.3313  0.1210 -0.0510
   41CHL1  H27A 3032   0.399   1.523   8.295  1.2251 -3.3129 -1.4235
   41CHL1  H27B 3033   0.546   1.527   8.407  0.0119  2.3178  0.7723
   41CHL1  H27C 3034   0.501   1.676   8.335  0.0050  0.1964 -0.4602
   42CHL1    C3 3035   0.529   4.523   6.525 -0.5280 -0.1360 -0.4332
   42CHL1    H3 3036   0.430   4.571   6.540 -0.2032  0.4995 -0.2849
   42CHL1    O3 3037   0.538   4.466   6.392 -0.5827 -0.0658 -0.0027
   42CHL1   H3' 3038   0.626   4.428   6.391 -0.8057 -0.6121  0.2562
   42CHL1    C4 3039   0.639   4.630   6.557 -0.1097  0.4415  0.1189
   42CHL1   H4A 3040   0.739   4.581   6.552 -1.0447 -1.6080  0.3578
   42CHL1   H4B 3041   0.629   4.708   6.478  1.1244  0.4377 -0.0640
   42CHL1    C5 3042   0.628   4.687   6.694  0.6679 -0.3145 -0.7450
   42CHL1    C6 3043   0.611   4.819   6.719  0.3756 -0.2547  0.7668
   42CHL1    H6 3044   0.607   4.895   6.639 -1.3909 -0.1482  0.9225
   42CHL1    C7 3045   0.609   4.878   6.861 -0.0163  0.4863 -0.6867
   42CHL1   H7A 3046   0.676   4.963   6.883 -0.0568  0.0273  1.3567
   42CHL1   H7B 3047   0.504   4.913   6.873 -0.3927 -1.3940  2.6570
   42CHL1    C8 3048   0.638   4.786   6.976 -0.1540  0.4094  0.0042
   42CHL1    H8 3049   0.748   4.771   6.974 -0.3521 -1.2773 -1.8827
   42CHL1   C14 3050   0.593   4.834   7.109 -0.5410  0.6885 -0.2532
   42CHL1   H14 3051   0.482   4.826   7.105 -0.5810 -0.9030  2.1417
   42CHL1   C15 3052   0.631   4.977   7.154 -0.0467 -0.0202 -0.0688
   42CHL1  H15A 3053   0.736   5.005   7.133  0.3509  0.7692  2.5303
   42CHL1  H15B 3054   0.569   5.058   7.110 -2.0877 -2.1089 -1.2702
   42CHL1   C16 3055   0.613   4.972   7.312 -0.6095  0.0360  0.4659
   42CHL1  H16A 3056   0.707   5.002   7.362  0.8330 -1.0680 -1.4688
   42CHL1  H16B 3057   0.533   5.041   7.347 -1.1345 -1.6671  2.8849
   42CHL1   C17 3058   0.577   4.825   7.351 -0.3686  0.5088  0.7835
   42CHL1   H17 3059   0.466   4.826   7.340 -0.1830  1.9877 -1.7216
   42CHL1   C13 3060   0.622   4.738   7.229 -0.0321 -0.0285  0.3040
   42CHL1   C18 3061   0.772   4.709   7.237  0.1262  0.1359 -0.2633
   42CHL1  H18A 3062   0.829   4.795   7.279  0.3771  0.8959 -2.0547
   42CHL1  H18B 3063   0.790   4.618   7.298  2.0518 -1.3172 -2.7892
   42CHL1  H18C 3064   0.814   4.692   7.136  0.2919 -1.6387  0.0719
   42CHL1   C12 3065   0.552   4.608   7.204 -0.1703  0.1222 -0.2557
   42CHL1  H12A 3066   0.580   4.528   7.276 -3.7031  0.4456  1.7168
   42CHL1  H12B 3067   0.444   4.626   7.220 -0.5346 -3.5963  3.1047
   42CHL1   C11 3068   0.581   4.547   7.065  0.2338 -0.1084  0.5167
   42CHL1  H11A 3069   0.680   4.497   7.068 -0.8869 -2.4404  1.4562
   42CHL1  H11B 3070   0.520   4.456   7.048 -0.5366  0.2578  1.2206
   42CHL1    C9 3071   0.574   4.646   6.944  0.2597  0.9163  0.5928
   42CHL1    H9 3072   0.467   4.665   6.926  0.5637 -0.2196 -3.0754
   42CHL1   C10 3073   0.620   4.585   6.809  0.1714  0.2315  0.2426
   42CHL1   C19 3074   0.767   4.539   6.824  0.8243  0.1996 -0.5165
   42CHL1  H19A 3075   0.839   4.620   6.845 -1.1608  1.9067 -0.0069
   42CHL1  H19B 3076   0.770   4.463   6.906  0.2938  1.7370  0.9771
   42CHL1  H19C 3077   0.800   4.490   6.730  0.2253  1.0481 -1.1803
   42CHL1    C1 3078   0.535   4.460   6.772 -0.1470  0.5281  0.5984
   42CHL1   H1A 3079   0.569   4.372   6.831 -0.7417 -0.8409 -1.0532
   42CHL1   H1B 3080   0.431   4.490   6.799  0.9041  1.9073  3.6338
   42CHL1    C2 3081   0.538   4.406   6.634  0.5034  0.2588  0.6517
   42CHL1   H2A 3082   0.444   4.349   6.617  1.4801 -0.9315 -1.0334
   42CHL1   H2B 3083   0.619   4.336   6.604 -1.8259 -2.3002 -0.1340
   42CHL1   C20 3084   0.613   4.791   7.491 -0.2194 -0.2687  0.1620
   42CHL1   H20 3085   0.724   4.792   7.498 -0.2059  0.1274 -0.1343
   42CHL1   C21 3086   0.570   4.646   7.516  0.1996  0.4772 -0.4266
   42CHL1  H21A 3087   0.465   4.639   7.482 -0.1898  1.8836  0.4233
   42CHL1  H21B 3088   0.571   4.620   7.625 -0.0988 -1.0935 -0.7677
   42CHL1  H21C 3089   0.639   4.572   7.469 -1.4694 -1.9819  0.7197
   42CHL1   C22 3090   0.550   4.886   7.594  0.2930 -0.3274  0.2877
   42CHL1  H22A 3091   0.589   4.987   7.569  0.4402 -0.6359 -0.7507
   42CHL1  H22B 3092   0.440   4.888   7.587  0.2271 -2.4368  0.2030
   42CHL1   C23 3093   0.593   4.868   7.737  0.2904  0.2802 -1.1036
   42CHL1  H23A 3094   0.638   4.768   7.749  1.3326  0.9480  1.1094
   42CHL1  H23B 3095   0.684   4.928   7.757  1.0209 -0.7366 -1.3037
   42CHL1   C24 3096   0.480   4.879   7.838 -0.2986 -0.3141  0.2027
   42CHL1  H24A 3097   0.455   4.986   7.853  0.0414 -0.2881  0.6172
   42CHL1  H24B 3098   0.395   4.824   7.792  0.0710  0.4751 -1.5035
   42CHL1   C25 3099   0.519   4.836   7.979 -0.1517  0.0728 -0.5349
   42CHL1   H25 3100   0.617   4.866   8.022 -0.7341  0.0222  0.8842
   42CHL1   C26 3101   0.428   4.894   8.088  0.2016  0.0252 -0.0248
   42CHL1  H26A 3102   0.413   5.003   8.074 -0.8369  0.0307  1.0417
   42CHL1  H26B 3103   0.327   4.847   8.086  0.5490 -0.7982  0.9811
   42CHL1  H26C 3104   0.474   4.869   8.186  1.4859  0.4572 -0.4860
   42CHL1   C27 3105   0.511   4.683   7.991  0.1012  0.1108  0.1723
   42CHL1  H27A 3106   0.410   4.644   7.968 -0.4334  1.9703 -0.8386
   42CHL1  H27B 3107   0.538   4.645   8.092  0.3421  3.4358  1.4951
   42CHL1  H27C 3108   0.593   4.640   7.929  0.4111  0.7454  0.1288
   43CHL1    C3 3109   0.419   3.786   6.678  0.3699  0.2259  0.2201
   43CHL1    H3 3110   0.390   3.679   6.685  0.4448  0.2627  1.3409
   43CHL1    O3 3111   0.439   3.826   6.547 -0.5201 -0.2280  0.0170
   43CHL1   H3' 3112   0.349   3.839   6.515 -0.6530 -0.5124  0.2780
   43CHL1    C4 3113   0.320   3.878   6.752  0.2097  0.0796  0.6455
   43CHL1   H4A 3114   0.351   3.983   6.737  0.6238 -0.3090 -1.6933
   43CHL1   H4B 3115   0.229   3.856   6.692 -0.4422 -0.0589  1.6767
   43CHL1    C5 3116   0.299   3.833   6.896 -0.3536 -0.1650  0.1614
   43CHL1    C6 3117   0.182   3.787   6.948 -0.4772 -0.3797 -0.4089
   43CHL1    H6 3118   0.085   3.778   6.896 -1.4222 -0.4862  1.3205
   43CHL1    C7 3119   0.172   3.752   7.096  0.0351 -0.2817  0.1204
   43CHL1   H7A 3120   0.086   3.803   7.145  0.9178 -0.7534  2.2582
   43CHL1   H7B 3121   0.151   3.643   7.098  0.2020 -0.3048  0.8380
   43CHL1    C8 3122   0.297   3.809   7.182  0.0317  0.0216 -0.8700
   43CHL1    H8 3123   0.277   3.917   7.198  0.3396 -0.0293 -0.1127
   43CHL1   C14 3124   0.291   3.753   7.326 -0.4254 -0.7390 -0.0622
   43CHL1   H14 3125   0.265   3.647   7.307  1.7891 -1.2355 -0.5336
   43CHL1   C15 3126   0.174   3.793   7.408  0.2087 -0.1985 -0.5866
   43CHL1  H15A 3127   0.161   3.903   7.408 -0.2740 -0.2455  0.5128
   43CHL1  H15B 3128   0.081   3.745   7.371 -0.2257 -0.0513  0.2762
   43CHL1   C16 3129   0.216   3.740   7.549 -0.1044 -0.9510  0.5955
   43CHL1  H16A 3130   0.197   3.818   7.625  0.6229 -0.4697  0.2936
   43CHL1  H16B 3131   0.137   3.667   7.578 -1.8419 -0.5227 -2.5411
   43CHL1   C17 3132   0.366   3.698   7.542 -0.8062  0.0514  0.2998
   43CHL1   H17 3133   0.367   3.588   7.529 -0.9679 -0.0982  1.4373
   43CHL1   C13 3134   0.417   3.764   7.411 -0.1142  0.5339 -0.6977
   43CHL1   C18 3135   0.435   3.917   7.437  0.6117  0.6504  0.3801
   43CHL1  H18A 3136   0.434   3.980   7.345  2.0371 -2.0508 -1.6235
   43CHL1  H18B 3137   0.360   3.960   7.507 -0.0835 -1.4729  0.9950
   43CHL1  H18C 3138   0.535   3.920   7.485  0.6717  2.3857  0.2240
   43CHL1   C12 3139   0.540   3.716   7.335 -0.7077  0.5055  0.6182
   43CHL1  H12A 3140   0.631   3.709   7.398 -1.2174 -2.8529  1.1506
   43CHL1  H12B 3141   0.513   3.611   7.312  0.9805  0.1424  0.1468
   43CHL1   C11 3142   0.554   3.770   7.196 -0.8758 -0.1876 -0.6639
   43CHL1  H11A 3143   0.609   3.866   7.209 -1.7508  0.5476 -2.1447
   43CHL1  H11B 3144   0.619   3.697   7.142 -0.5582 -1.9110  1.8542
   43CHL1    C9 3145   0.424   3.763   7.109 -0.3850  0.9885  0.2669
   43CHL1    H9 3146   0.408   3.655   7.090  2.3528  0.3446  1.2078
   43CHL1   C10 3147   0.436   3.835   6.974  0.6805 -0.2916  0.1905
   43CHL1   C19 3148   0.480   3.987   6.993 -0.3861 -0.4466 -0.3416
   43CHL1  H19A 3149   0.470   4.053   6.905 -3.6212 -0.6289 -0.2427
   43CHL1  H19B 3150   0.436   4.041   7.080 -1.5853 -1.2751 -0.4078
   43CHL1  H19C 3151   0.590   3.985   7.008 -0.3205 -1.3767 -0.8760
   43CHL1    C1 3152   0.550   3.764   6.887  0.7328 -0.1838 -0.8013
   43CHL1   H1A 3153   0.645   3.785   6.940 -0.1071  2.9159 -0.3183
   43CHL1   H1B 3154   0.530   3.655   6.894 -1.1884  0.2056  0.6944
   43CHL1    C2 3155   0.557   3.796   6.740  0.0398 -0.0199  0.1587
   43CHL1   H2A 3156   0.627   3.729   6.685  0.5026 -1.8670  2.7739
   43CHL1   H2B 3157   0.616   3.889   6.732 -0.6447  0.9540  4.0716
   43CHL1   C20 3158   0.435   3.725   7.676  0.4899  0.2657 -0.1017
   43CHL1   H20 3159   0.422   3.834   7.691  1.7009  0.7908 -2.4076
   43CHL1   C21 3160   0.584   3.696   7.679  0.1990  0.1363 -0.0044
   43CHL1  H21A 3161   0.606   3.589   7.656  1.4541 -0.3166  2.8978
   43CHL1  H21B 3162   0.630   3.716   7.778  1.8466 -1.4584 -0.3866
   43CHL1  H21C 3163   0.646   3.757   7.609  2.4749  0.2809  1.9901
   43CHL1   C22 3164   0.366   3.649   7.793 -0.1457  0.3739 -0.4965
   43CHL1  H22A 3165   0.258   3.625   7.780  0.2195 -3.7382  2.0734
   43CHL1  H22B 3166   0.420   3.552   7.796 -1.8745 -0.6377 -0.7285
   43CHL1   C23 3167   0.378   3.728   7.922 -0.2179  0.3061  0.2362
   43CHL1  H23A 3168   0.480   3.770   7.933 -0.6897  1.3957  0.5834
   43CHL1  H23B 3169   0.294   3.802   7.923 -3.1320 -2.7314 -0.3097
   43CHL1   C24 3170   0.350   3.639   8.051  0.1652  0.3259  0.4261
   43CHL1  H24A 3171   0.244   3.607   8.051  0.2942 -0.2386  2.0799
   43CHL1  H24B 3172   0.418   3.552   8.038 -0.4286  0.0002 -0.5392
   43CHL1   C25 3173   0.384   3.713   8.188 -0.6311 -0.1396  0.1548
   43CHL1   H25 3174   0.484   3.677   8.221 -0.1904  1.6323  0.8499
   43CHL1   C26 3175   0.397   3.871   8.178  0.2001  0.3760 -0.2976
   43CHL1  H26A 3176   0.435   3.907   8.276  3.1227 -0.1448 -1.1412
   43CHL1  H26B 3177   0.454   3.910   8.091  1.5198  2.3888  1.3746
   43CHL1  H26C 3178   0.294   3.913   8.175 -0.2416 -0.6701  0.0002
   43CHL1   C27 3179   0.288   3.670   8.297 -0.4579  0.2258 -0.2507
   43CHL1  H27A 3180   0.265   3.561   8.298 -1.4885  0.2739  3.9910
   43CHL1  H27B 3181   0.321   3.694   8.401 -3.1846  1.1725  0.4831
   43CHL1  H27C 3182   0.197   3.734   8.291  0.0148  1.1435  1.5510
   44CHL1    C3 3183   0.912   1.251   6.472 -0.0290  0.1934  0.0057
   44CHL1    H3 3184   0.983   1.168   6.492  0.9380  0.5806 -1.6405
   44CHL1    O3 3185   0.894   1.254   6.334 -0.0881  0.2988  0.0514
   44CHL1   H3' 3186   0.817   1.311   6.323 -1.1487 -1.3037 -1.4083
   44CHL1    C4 3187   0.773   1.229   6.546  0.4107 -0.1451  0.0707
   44CHL1   H4A 3188   0.711   1.319   6.528  0.7378 -0.3446 -2.5124
   44CHL1   H4B 3189   0.724   1.135   6.512 -1.0941  0.4517  0.5474
   44CHL1    C5 3190   0.787   1.228   6.695  0.4657  0.1305 -0.3212
   44CHL1    C6 3191   0.748   1.120   6.768  0.1480 -0.2838  0.2493
   44CHL1    H6 3192   0.703   1.037   6.711  1.1359  0.5625 -1.8659
   44CHL1    C7 3193   0.763   1.100   6.912  0.7356 -0.0975  0.7235
   44CHL1   H7A 3194   0.675   1.061   6.968 -0.2260 -0.6421 -1.0749
   44CHL1   H7B 3195   0.840   1.023   6.932 -0.8651 -2.0554 -0.3556
   44CHL1    C8 3196   0.804   1.235   6.985 -0.3946  0.3253 -0.4935
   44CHL1    H8 3197   0.714   1.300   6.984 -0.3368  0.4638 -2.6853
   44CHL1   C14 3198   0.849   1.211   7.128  0.8896 -1.3535 -0.4080
   44CHL1   H14 3199   0.941   1.151   7.115  1.7151 -0.0855 -0.5972
   44CHL1   C15 3200   0.771   1.129   7.225  0.3102  0.4215 -0.1461
   44CHL1  H15A 3201   0.662   1.144   7.206  0.5879  1.4108 -1.0707
   44CHL1  H15B 3202   0.799   1.024   7.200  1.9449  0.7346  0.2909
   44CHL1   C16 3203   0.815   1.163   7.363 -1.0196  0.2651 -0.0614
   44CHL1  H16A 3204   0.724   1.210   7.405 -0.3521  1.9434 -0.4019
   44CHL1  H16B 3205   0.831   1.082   7.437  0.7303  0.6635  0.0411
   44CHL1   C17 3206   0.930   1.272   7.355 -0.2933  0.0031 -0.3857
   44CHL1   H17 3207   1.031   1.225   7.350  0.1763  0.8667  0.6040
   44CHL1   C13 3208   0.903   1.331   7.211 -0.3260  0.0296  0.1868
   44CHL1   C18 3209   0.794   1.439   7.225 -0.1839  0.0152 -0.5629
   44CHL1  H18A 3210   0.712   1.396   7.287  0.8134 -1.5034 -0.2430
   44CHL1  H18B 3211   0.831   1.531   7.274  0.5887  1.0471 -2.9258
   44CHL1  H18C 3212   0.751   1.468   7.127 -1.3125 -2.7290 -0.9767
   44CHL1   C12 3213   1.020   1.389   7.131 -1.3097  0.5240  0.7829
   44CHL1  H12A 3214   1.067   1.476   7.181 -0.9819  0.8144 -0.0193
   44CHL1  H12B 3215   1.098   1.311   7.127 -0.4930  1.3647 -0.3302
   44CHL1   C11 3216   0.981   1.418   6.983  0.2422  0.0139  0.4110
   44CHL1  H11A 3217   0.920   1.509   6.969 -0.0723 -0.1259  0.8597
   44CHL1  H11B 3218   1.075   1.443   6.928 -0.2014 -0.4295 -0.5621
   44CHL1    C9 3219   0.917   1.298   6.903  1.1137 -0.5797 -0.2018
   44CHL1    H9 3220   0.995   1.220   6.892  0.0812 -1.8425  1.1222
   44CHL1   C10 3221   0.872   1.341   6.759 -0.2369  0.3735 -0.1733
   44CHL1   C19 3222   0.782   1.468   6.769 -0.8060  0.5126  0.5003
   44CHL1  H19A 3223   0.724   1.487   6.676  0.7750  2.2180 -0.2231
   44CHL1  H19B 3224   0.712   1.463   6.855 -1.6584 -0.6156 -0.2301
   44CHL1  H19C 3225   0.846   1.558   6.785  2.1325 -1.5217  0.9066
   44CHL1    C1 3226   1.004   1.375   6.670 -0.8040  0.6299 -0.2437
   44CHL1   H1A 3227   1.038   1.476   6.702  0.1382 -0.6445  3.2929
   44CHL1   H1B 3228   1.086   1.306   6.699  0.2786  2.8438  2.5322
   44CHL1    C2 3229   0.973   1.381   6.520  0.3330  0.3611  0.0717
   44CHL1   H2A 3230   1.066   1.403   6.463  1.2565  0.2497  1.4837
   44CHL1   H2B 3231   0.898   1.459   6.498  3.0655  2.6931 -1.6714
   44CHL1   C20 3232   0.947   1.362   7.480  0.7054 -0.2530  0.1751
   44CHL1   H20 3233   0.850   1.405   7.511  0.0480 -1.7893  0.3316
   44CHL1   C21 3234   1.049   1.475   7.457  0.2175  0.4305  0.0839
   44CHL1  H21A 3235   1.006   1.560   7.399  1.7462 -0.5598 -2.7034
   44CHL1  H21B 3236   1.129   1.425   7.398  0.6156  0.2397  0.7821
   44CHL1  H21C 3237   1.094   1.504   7.554  2.0848  0.5106 -0.7756
   44CHL1   C22 3238   0.982   1.273   7.604 -0.0634  0.4816 -0.5642
   44CHL1  H22A 3239   0.904   1.195   7.616 -0.7804  1.2954  0.2771
   44CHL1  H22B 3240   1.087   1.240   7.596 -0.5097 -1.1994  0.0843
   44CHL1   C23 3241   0.975   1.345   7.738 -0.5753 -0.2106  0.4018
   44CHL1  H23A 3242   1.049   1.428   7.734 -2.0293  1.1506  0.9706
   44CHL1  H23B 3243   0.879   1.397   7.757 -0.5977 -0.6045  1.3833
   44CHL1   C24 3244   0.993   1.244   7.852 -0.5557  0.5044 -0.3475
   44CHL1  H24A 3245   0.938   1.150   7.832  1.8788 -0.8416 -1.1176
   44CHL1  H24B 3246   1.102   1.220   7.853 -0.7526 -0.4070  0.0467
   44CHL1   C25 3247   0.955   1.295   7.998 -0.0670 -0.2952  0.8336
   44CHL1   H25 3248   0.851   1.333   7.993  0.1660  0.3304  0.7407
   44CHL1   C26 3249   0.946   1.171   8.095  0.2820 -0.4502  0.5308
   44CHL1  H26A 3250   1.041   1.113   8.089  0.4959  0.0537 -2.0417
   44CHL1  H26B 3251   0.929   1.182   8.204  1.7110 -1.6763  0.9187
   44CHL1  H26C 3252   0.867   1.103   8.056  0.2116 -0.8173  1.2991
   44CHL1   C27 3253   1.051   1.397   8.052 -0.3896  0.1394 -0.4987
   44CHL1  H27A 3254   1.065   1.490   7.994 -1.1483 -0.2458 -1.3284
   44CHL1  H27B 3255   1.025   1.435   8.153  2.4207  2.8118 -0.6641
   44CHL1  H27C 3256   1.153   1.359   8.071 -0.4807 -0.7474 -1.6755
   45CHL1    C3 3257   2.291   6.267   6.885  0.1524  0.1501  0.2645
   45CHL1    H3 3258   2.214   6.330   6.935 -0.4637  0.5635 -1.1512
   45CHL1    O3 3259   2.276   6.268   6.749  0.1137  0.8216  0.0883
   45CHL1   H3' 3260   2.313   6.187   6.713 -1.5301 -0.4416  1.1105
   45CHL1    C4 3261   2.436   6.312   6.907  0.3011 -0.4964 -0.2442
   45CHL1   H4A 3262   2.502   6.240   6.854 -2.2104 -2.0498 -1.3911
   45CHL1   H4B 3263   2.447   6.415   6.865 -1.6058 -0.9784 -2.0651
   45CHL1    C5 3264   2.465   6.318   7.058 -0.4473 -0.7132  0.3659
   45CHL1    C6 3265   2.510   6.426   7.123  0.4137  0.3349 -0.5225
   45CHL1    H6 3266   2.493   6.523   7.074 -1.8190 -0.3128 -1.1802
   45CHL1    C7 3267   2.550   6.429   7.268  0.6826 -0.4137  0.0500
   45CHL1   H7A 3268   2.635   6.500   7.273  0.0249  0.3887  0.1442
   45CHL1   H7B 3269   2.466   6.482   7.317  2.2341 -0.2295  2.6816
   45CHL1    C8 3270   2.570   6.289   7.331 -0.0880 -0.5141  0.1468
   45CHL1    H8 3271   2.666   6.243   7.300 -0.8590 -0.7868 -1.9896
   45CHL1   C14 3272   2.568   6.299   7.476  0.2374 -0.0431  0.1034
   45CHL1   H14 3273   2.467   6.339   7.496 -1.0269 -2.4824 -0.9637
   45CHL1   C15 3274   2.664   6.395   7.544 -0.9839  0.2736 -0.9642
   45CHL1  H15A 3275   2.759   6.381   7.488  0.1238  3.1388  0.0296
   45CHL1  H15B 3276   2.639   6.501   7.524  0.1656  0.6260 -0.5432
   45CHL1   C16 3277   2.678   6.348   7.686  0.1234 -0.2046 -0.1423
   45CHL1  H16A 3278   2.776   6.305   7.718  0.7260  0.7704 -0.6512
   45CHL1  H16B 3279   2.646   6.429   7.756 -4.3766 -0.6812 -1.3505
   45CHL1   C17 3280   2.571   6.228   7.708 -0.2749 -0.1767  0.0550
   45CHL1   H17 3281   2.468   6.267   7.724 -0.2871 -0.3535  0.4035
   45CHL1   C13 3282   2.567   6.170   7.561  0.3702 -0.1856  0.0747
   45CHL1   C18 3283   2.704   6.087   7.539 -0.0673 -1.1026  0.5624
   45CHL1  H18A 3284   2.724   6.066   7.432  1.6788 -0.7168  0.7932
   45CHL1  H18B 3285   2.780   6.150   7.589 -0.5162 -1.6307  1.9551
   45CHL1  H18C 3286   2.675   5.995   7.595 -1.7787 -1.0053 -0.0987
   45CHL1   C12 3287   2.443   6.089   7.515  1.1856 -0.2980  0.5957
   45CHL1  H12A 3288   2.439   5.984   7.551 -0.5102 -0.5581 -0.2191
   45CHL1  H12B 3289   2.351   6.141   7.549  1.3147 -0.4696  1.2083
   45CHL1   C11 3290   2.438   6.069   7.362 -0.0714  0.1168  0.2670
   45CHL1  H11A 3291   2.524   6.004   7.335 -0.6632 -1.0991  1.1868
   45CHL1  H11B 3292   2.353   6.010   7.323 -0.0779  1.1218 -1.3133
   45CHL1    C9 3293   2.452   6.202   7.283  0.3919  0.1624 -0.0867
   45CHL1    H9 3294   2.357   6.252   7.310  0.0357 -0.5724  0.0456
   45CHL1   C10 3295   2.446   6.183   7.124 -0.2474  0.3744  0.0975
   45CHL1   C19 3296   2.555   6.088   7.078 -0.8312 -0.1288 -0.4650
   45CHL1  H19A 3297   2.549   6.060   6.971 -0.0263 -1.7152 -0.1252
   45CHL1  H19B 3298   2.656   6.126   7.104 -0.1086 -0.6774 -2.3118
   45CHL1  H19C 3299   2.550   5.995   7.139  1.6802  0.3844  0.6316
   45CHL1    C1 3300   2.306   6.119   7.087 -0.4839 -0.2764 -0.2908
   45CHL1   H1A 3301   2.320   6.011   7.110 -0.0699  0.2308  2.1164
   45CHL1   H1B 3302   2.224   6.158   7.151  1.4795  1.8947  1.0484
   45CHL1    C2 3303   2.269   6.127   6.937  0.4468 -0.5699  0.1107
   45CHL1   H2A 3304   2.161   6.100   6.933  0.1683  0.0445  2.1502
   45CHL1   H2B 3305   2.335   6.054   6.886  2.9324  1.0234  0.9119
   45CHL1   C20 3306   2.616   6.140   7.827  0.2331  0.0787  0.4647
   45CHL1   H20 3307   2.705   6.082   7.793  0.3995  0.6937 -0.1677
   45CHL1   C21 3308   2.510   6.032   7.849 -0.2235  0.2574 -0.2555
   45CHL1  H21A 3309   2.552   5.944   7.901 -3.4444 -2.2677 -1.5962
   45CHL1  H21B 3310   2.477   5.990   7.751 -0.9931  1.1916 -0.4178
   45CHL1  H21C 3311   2.423   6.079   7.900  0.3745  0.4845  0.5854
   45CHL1   C22 3312   2.661   6.223   7.950 -0.0678  0.4160  1.0367
   45CHL1  H22A 3313   2.761   6.268   7.933  0.5835 -1.8025 -1.8919
   45CHL1  H22B 3314   2.590   6.307   7.961 -0.5958  0.0314  0.6280
   45CHL1   C23 3315   2.658   6.142   8.087  0.0552  0.1929 -0.3430
   45CHL1  H23A 3316   2.559   6.099   8.112  0.8802 -1.5199  0.1211
   45CHL1  H23B 3317   2.731   6.060   8.071 -1.2179 -0.9071 -0.5790
   45CHL1   C24 3318   2.697   6.235   8.205 -0.3985  0.1410  0.7328
   45CHL1  H24A 3319   2.802   6.269   8.198 -0.5810  1.3497  3.0274
   45CHL1  H24B 3320   2.626   6.320   8.204 -0.2051  0.3506  2.5039
   45CHL1   C25 3321   2.686   6.168   8.341 -0.6724 -0.8826 -0.8769
   45CHL1   H25 3322   2.770   6.095   8.343 -0.2834 -0.4449  0.9702
   45CHL1   C26 3323   2.736   6.254   8.462  0.3235  0.9497  0.7674
   45CHL1  H26A 3324   2.661   6.327   8.500 -4.1959 -2.7257 -0.1287
   45CHL1  H26B 3325   2.743   6.172   8.538  1.2853  0.3934  0.1032
   45CHL1  H26C 3326   2.832   6.306   8.443  0.3443  0.7657  0.3503
   45CHL1   C27 3327   2.557   6.095   8.376  0.2001 -0.8368  0.3603
   45CHL1  H27A 3328   2.505   6.036   8.297  1.5190 -1.0815 -0.3654
   45CHL1  H27B 3329   2.583   6.024   8.458 -2.3456 -0.8703  1.2306
   45CHL1  H27C 3330   2.478   6.164   8.413 -0.9832 -1.5891 -0.6707
   46CHL1    C3 3331   0.840   0.235   7.000  0.2002  0.1694  0.5805
   46CHL1    H3 3332   0.759   0.307   7.026  2.0520  1.9270  1.8006
   46CHL1    O3 3333   0.871   0.262   6.863 -0.4426  0.2341 -0.6164
   46CHL1   H3' 3334   0.958   0.224   6.852 -0.5313  0.2342 -1.3749
   46CHL1    C4 3335   0.967   0.267   7.088 -0.1015  0.5479 -0.6781
   46CHL1   H4A 3336   1.059   0.229   7.040 -0.8740 -2.6986  0.1099
   46CHL1   H4B 3337   0.965   0.378   7.086 -0.0801  0.5568 -0.3392
   46CHL1    C5 3338   0.958   0.224   7.234  0.5506  1.1578  0.3195
   46CHL1    C6 3339   0.983   0.309   7.331  0.1513 -0.1020 -0.4171
   46CHL1    H6 3340   1.024   0.407   7.304  0.1439 -0.1276 -0.5220
   46CHL1    C7 3341   0.980   0.274   7.475  0.5746 -0.6457  0.1535
   46CHL1   H7A 3342   1.063   0.323   7.530  1.5346 -1.0862 -0.8777
   46CHL1   H7B 3343   0.883   0.312   7.514 -0.4690 -1.6654 -1.3314
   46CHL1    C8 3344   0.981   0.128   7.495 -0.1527  0.1462  0.3805
   46CHL1    H8 3345   1.088   0.104   7.480  0.1248  1.5468  0.0301
   46CHL1   C14 3346   0.953   0.097   7.642  0.0206  0.1369 -0.3150
   46CHL1   H14 3347   0.856   0.150   7.655 -1.5167 -2.9473  2.0405
   46CHL1   C15 3348   1.051   0.156   7.740 -0.8850 -0.3960 -0.0222
   46CHL1  H15A 3349   1.156   0.136   7.712 -0.4002 -0.6686  1.8804
   46CHL1  H15B 3350   1.035   0.266   7.753 -1.0943 -0.6478  2.2349
   46CHL1   C16 3351   1.017   0.094   7.870 -0.9090  0.5556 -0.6136
   46CHL1  H16A 3352   1.109   0.056   7.918  0.1287  3.3397 -0.2319
   46CHL1  H16B 3353   0.965   0.157   7.946 -1.8194  0.2703 -0.9776
   46CHL1   C17 3354   0.928  -0.033   7.841 -0.1319 -0.0847  0.5134
   46CHL1   H17 3355   0.823   0.003   7.848 -0.0318  1.5816 -3.3529
   46CHL1   C13 3356   0.932  -0.050   7.682  0.6072  1.1648 -0.0136
   46CHL1   C18 3357   1.057  -0.133   7.652  0.2030  0.0560  0.2951
   46CHL1  H18A 3358   1.084  -0.134   7.544 -1.5997  1.3464 -0.2254
   46CHL1  H18B 3359   1.144  -0.101   7.713  0.2023  2.3372 -0.8061
   46CHL1  H18C 3360   1.033  -0.240   7.669 -1.0570  0.1328 -0.8106
   46CHL1   C12 3361   0.808  -0.104   7.603 -0.0859 -0.2008 -0.0956
   46CHL1  H12A 3362   0.805  -0.213   7.624 -1.7749 -0.1519  0.0936
   46CHL1  H12B 3363   0.714  -0.056   7.639  0.3030  1.4817 -1.2468
   46CHL1   C11 3364   0.838  -0.088   7.449  0.8206 -0.3650 -0.1265
   46CHL1  H11A 3365   0.923  -0.156   7.424  1.7803 -1.4378  5.0150
   46CHL1  H11B 3366   0.750  -0.127   7.393  0.9411 -0.2293 -0.4160
   46CHL1    C9 3367   0.871   0.059   7.407 -1.2102  0.0360  0.3325
   46CHL1    H9 3368   0.785   0.120   7.440 -2.6969 -0.9355 -1.5810
   46CHL1   C10 3369   0.911   0.084   7.255  0.5445  0.0191  0.5322
   46CHL1   C19 3370   1.023  -0.015   7.203  0.4458 -0.4310  0.3228
   46CHL1  H19A 3371   1.102  -0.014   7.281  0.5992 -1.4560  0.1871
   46CHL1  H19B 3372   0.975  -0.112   7.180 -1.2472  0.6260 -0.8755
   46CHL1  H19C 3373   1.075   0.012   7.109 -0.5487  1.9609  0.3775
   46CHL1    C1 3374   0.782   0.066   7.175  1.1880  0.1294  0.0035
   46CHL1   H1A 3375   0.749  -0.039   7.192  2.1824  0.0612  1.6787
   46CHL1   H1B 3376   0.706   0.130   7.225 -0.8841 -1.7625 -0.5458
   46CHL1    C2 3377   0.791   0.092   7.024  0.7232  0.1591  0.3515
   46CHL1   H2A 3378   0.694   0.085   6.970  1.3386  2.4531 -1.1758
   46CHL1   H2B 3379   0.865   0.022   6.980  1.6118  0.1336  1.8199
   46CHL1   C20 3380   0.953  -0.158   7.928  0.4391  0.1113 -0.2277
   46CHL1   H20 3381   1.037  -0.226   7.905 -0.4577 -1.2674  0.4828
   46CHL1   C21 3382   0.822  -0.246   7.922 -0.4923  0.4503 -0.3956
   46CHL1  H21A 3383   0.828  -0.327   7.998 -0.4149 -0.5562 -1.4265
   46CHL1  H21B 3384   0.807  -0.308   7.831 -1.0653  0.0794 -0.0518
   46CHL1  H21C 3385   0.734  -0.182   7.945  0.5695  1.7504  0.1664
   46CHL1   C22 3386   0.972  -0.131   8.081 -0.0299  1.2821 -1.1016
   46CHL1  H22A 3387   1.036  -0.042   8.098  0.1477  0.6902  1.9847
   46CHL1  H22B 3388   0.869  -0.104   8.113  0.2027  0.5597  0.3695
   46CHL1   C23 3389   1.034  -0.251   8.159 -0.3760  0.5944 -0.5320
   46CHL1  H23A 3390   0.970  -0.341   8.150 -0.8816  0.9520 -0.5269
   46CHL1  H23B 3391   1.132  -0.276   8.113  1.1147  1.8080  1.8068
   46CHL1   C24 3392   1.053  -0.228   8.311 -0.1927 -0.3003 -1.0450
   46CHL1  H24A 3393   1.138  -0.158   8.326  0.4973 -1.5672  1.5684
   46CHL1  H24B 3394   0.959  -0.185   8.353 -0.2738 -1.0751 -0.4158
   46CHL1   C25 3395   1.086  -0.347   8.403  0.3593  0.3154  0.5376
   46CHL1   H25 3396   1.023  -0.430   8.364  1.1115  0.9892 -2.2792
   46CHL1   C26 3397   1.239  -0.389   8.391  0.5526 -0.1619 -0.4892
   46CHL1  H26A 3398   1.261  -0.464   8.470  0.4245  0.4311  0.1198
   46CHL1  H26B 3399   1.269  -0.419   8.288  0.6943  2.9800 -1.4676
   46CHL1  H26C 3400   1.301  -0.300   8.413 -1.3201  1.3093 -0.8693
   46CHL1   C27 3401   1.053  -0.308   8.547  0.3408 -0.8016 -0.0664
   46CHL1  H27A 3402   1.045  -0.407   8.597  1.5407 -0.6297  0.4947
   46CHL1  H27B 3403   1.127  -0.240   8.594  0.0848 -0.9241  0.5252
   46CHL1  H27C 3404   0.954  -0.257   8.553  0.2345 -1.1482  3.6985
   47CHL1    C3 3405   5.745   6.598   6.930 -0.7958  0.0774  0.6878
   47CHL1    H3 3406   5.807   6.519   6.978 -0.9004 -1.3237 -1.3177
   47CHL1    O3 3407   5.770   6.614   6.793 -0.1347 -0.7111 -0.0741
   47CHL1   H3' 3408   5.705   6.681   6.772 -1.0796 -1.5988 -0.1165
   47CHL1    C4 3409   5.594   6.566   6.948 -0.9850  0.5774  0.6838
   47CHL1   H4A 3410   5.539   6.626   6.872 -1.0581 -1.9906 -1.4158
   47CHL1   H4B 3411   5.587   6.457   6.928 -0.3699  0.4967  0.8976
   47CHL1    C5 3412   5.556   6.579   7.097  1.3197 -0.4006  0.4999
   47CHL1    C6 3413   5.490   6.484   7.164  0.2793 -0.3692 -1.2539
   47CHL1    H6 3414   5.470   6.394   7.103  0.1167 -1.6024  0.5272
   47CHL1    C7 3415   5.444   6.484   7.307  0.8132  0.3483  0.1469
   47CHL1   H7A 3416   5.337   6.457   7.318  1.0782  0.1169  2.6288
   47CHL1   H7B 3417   5.495   6.409   7.371  0.5937  2.2491  2.7059
   47CHL1    C8 3418   5.456   6.622   7.373 -0.5193 -0.0436  1.0331
   47CHL1    H8 3419   5.370   6.681   7.334 -1.2029 -0.2160  2.2040
   47CHL1   C14 3420   5.444   6.615   7.521  0.1499  0.3652  0.1174
   47CHL1   H14 3421   5.535   6.560   7.555  0.6259  1.3693  0.5036
   47CHL1   C15 3422   5.326   6.534   7.573 -0.5891  0.8146 -0.1248
   47CHL1  H15A 3423   5.232   6.551   7.516 -2.9811  0.6863  3.4563
   47CHL1  H15B 3424   5.359   6.428   7.566  1.5584  1.4151  0.1304
   47CHL1   C16 3425   5.300   6.596   7.714 -0.2391 -0.2154  0.4641
   47CHL1  H16A 3426   5.197   6.637   7.726 -0.5717 -1.4565  2.2380
   47CHL1  H16B 3427   5.314   6.517   7.790  1.1231 -0.6272 -0.1802
   47CHL1   C17 3428   5.397   6.713   7.735  0.0465  0.0056  0.0228
   47CHL1   H17 3429   5.487   6.660   7.774 -1.1868 -1.7701  0.5986
   47CHL1   C13 3430   5.441   6.753   7.590  0.3312  0.7142  0.4510
   47CHL1   C18 3431   5.333   6.844   7.528 -0.2269  0.3207  0.3042
   47CHL1  H18A 3432   5.240   6.791   7.558  0.1870  0.2922  1.5711
   47CHL1  H18B 3433   5.333   6.946   7.571  1.6642  0.0557  0.9861
   47CHL1  H18C 3434   5.346   6.866   7.420 -1.4841  0.5909  0.1851
   47CHL1   C12 3435   5.580   6.816   7.569 -0.1644 -0.6503 -0.4417
   47CHL1  H12A 3436   5.584   6.924   7.596 -0.5809 -0.0367 -2.6385
   47CHL1  H12B 3437   5.639   6.761   7.645 -1.8195  2.0441  3.1017
   47CHL1   C11 3438   5.612   6.809   7.414 -0.0689 -0.0116  0.6274
   47CHL1  H11A 3439   5.562   6.896   7.366 -0.2930 -0.8538 -0.7270
   47CHL1  H11B 3440   5.718   6.837   7.395 -0.4885  0.7302 -0.7653
   47CHL1    C9 3441   5.583   6.682   7.331 -0.6396  0.0196 -0.0771
   47CHL1    H9 3442   5.668   6.617   7.362  1.0726  1.6112 -1.2691
   47CHL1   C10 3443   5.592   6.710   7.171 -0.8552  0.1860  0.4117
   47CHL1   C19 3444   5.503   6.826   7.118 -0.1331  0.1756 -0.7868
   47CHL1  H19A 3445   5.393   6.808   7.113 -0.4708  1.5421  0.8069
   47CHL1  H19B 3446   5.511   6.911   7.188 -0.1606 -0.6897  0.3038
   47CHL1  H19C 3447   5.546   6.854   7.019  1.3997  1.4354  0.1923
   47CHL1    C1 3448   5.743   6.742   7.142 -0.0169  0.2785 -0.2947
   47CHL1   H1A 3449   5.775   6.841   7.183  0.0989 -0.6962  2.1390
   47CHL1   H1B 3450   5.805   6.671   7.200 -0.6563  0.3213  0.4476
   47CHL1    C2 3451   5.774   6.730   6.996  0.1300 -0.1936  0.8011
   47CHL1   H2A 3452   5.876   6.767   6.969  0.9230 -1.9862  1.1678
   47CHL1   H2B 3453   5.711   6.810   6.953  1.6673  0.0497 -1.1831
   47CHL1   C20 3454   5.332   6.820   7.826 -0.0913 -0.1202 -0.3232
   47CHL1   H20 3455   5.249   6.869   7.770 -2.2886 -3.2496 -0.0486
   47CHL1   C21 3456   5.443   6.929   7.838 -0.4520 -0.3523  0.0609
   47CHL1  H21A 3457   5.415   6.997   7.921  0.7964  2.4195 -1.6479
   47CHL1  H21B 3458   5.445   6.990   7.746  1.7687  2.0708  1.5573
   47CHL1  H21C 3459   5.542   6.890   7.871  1.1134  0.9927 -2.6940
   47CHL1   C22 3460   5.284   6.760   7.962  0.1356 -0.0122 -0.2471
   47CHL1  H22A 3461   5.208   6.688   7.926  0.0357  0.0855 -0.2316
   47CHL1  H22B 3462   5.363   6.700   8.012  0.3386  1.8141  1.7763
   47CHL1   C23 3463   5.200   6.859   8.050 -0.4454  0.7422 -0.5075
   47CHL1  H23A 3464   5.263   6.944   8.083 -0.0494  0.7582 -1.2844
   47CHL1  H23B 3465   5.119   6.896   7.984 -0.2280  3.1111  0.4792
   47CHL1   C24 3466   5.141   6.793   8.175 -0.6194  0.1755  0.3420
   47CHL1  H24A 3467   5.052   6.729   8.155 -1.3637  0.8723  1.2916
   47CHL1  H24B 3468   5.216   6.719   8.209 -1.5085  0.1476  2.4464
   47CHL1   C25 3469   5.095   6.875   8.295  0.4295  0.1566 -1.0220
   47CHL1   H25 3470   5.159   6.964   8.316 -0.7443  0.9641 -0.7488
   47CHL1   C26 3471   4.956   6.942   8.264  0.5319  0.2877  0.4806
   47CHL1  H26A 3472   4.936   7.014   8.346  1.3787  2.1867 -0.9158
   47CHL1  H26B 3473   4.957   6.986   8.162 -0.9703  0.7111  0.6213
   47CHL1  H26C 3474   4.874   6.867   8.266  1.2144 -0.4631  1.0833
   47CHL1   C27 3475   5.079   6.772   8.412  0.2255  0.9744 -0.2849
   47CHL1  H27A 3476   5.179   6.727   8.426  1.0363  2.7026 -0.1732
   47CHL1  H27B 3477   5.055   6.830   8.503 -0.5346 -0.5006  0.4854
   47CHL1  H27C 3478   4.994   6.705   8.387  0.6545  1.4104 -3.2596
   48CHL1    C3 3479   3.762   4.656   6.342  0.6721 -0.3125  0.3291
   48CHL1    H3 3480   3.716   4.560   6.375  1.6790 -1.6935 -2.0857
   48CHL1    O3 3481   3.752   4.654   6.194 -0.1949 -0.3428 -0.2843
   48CHL1   H3' 3482   3.778   4.744   6.173 -1.1392 -0.5334 -2.5989
   48CHL1    C4 3483   3.687   4.779   6.404  0.3963  0.3614  0.0053
   48CHL1   H4A 3484   3.720   4.875   6.359  0.2691  0.9546  1.1175
   48CHL1   H4B 3485   3.584   4.757   6.368  0.5518  1.1721 -0.9833
   48CHL1    C5 3486   3.702   4.775   6.555  0.2442  0.0126  0.5843
   48CHL1    C6 3487   3.595   4.778   6.640 -0.8923  0.3853 -0.4411
   48CHL1    H6 3488   3.494   4.786   6.597 -1.2400 -3.0395 -0.5447
   48CHL1    C7 3489   3.609   4.766   6.786 -0.7155 -0.2774  0.3193
   48CHL1   H7A 3490   3.535   4.830   6.838 -0.4107  2.3398 -2.2244
   48CHL1   H7B 3491   3.592   4.658   6.808  0.2246 -0.5955 -0.4390
   48CHL1    C8 3492   3.757   4.813   6.834 -0.0782  0.0780 -0.2396
   48CHL1    H8 3493   3.768   4.922   6.816 -0.2782  0.3317  1.0557
   48CHL1   C14 3494   3.771   4.784   6.988 -0.5166  0.5004 -0.5680
   48CHL1   H14 3495   3.754   4.677   7.012  0.0492  0.3840 -0.6684
   48CHL1   C15 3496   3.674   4.850   7.088 -0.5766 -0.1738  0.2302
   48CHL1  H15A 3497   3.675   4.958   7.065  2.0147 -0.0998  0.4610
   48CHL1  H15B 3498   3.571   4.808   7.084  0.1528 -1.9569 -1.0046
   48CHL1   C16 3499   3.745   4.798   7.224  0.6833 -0.3280  0.2149
   48CHL1  H16A 3500   3.733   4.886   7.291  1.3758  1.2907 -1.6821
   48CHL1  H16B 3501   3.690   4.714   7.272  1.2407 -0.7718  0.0794
   48CHL1   C17 3502   3.898   4.764   7.200  0.1102  0.1418 -0.4924
   48CHL1   H17 3503   3.904   4.653   7.205 -1.7811  0.0271  0.4036
   48CHL1   C13 3504   3.914   4.804   7.049 -0.2654  0.3594 -0.5399
   48CHL1   C18 3505   3.966   4.957   7.044 -0.1406 -0.0945 -0.0777
   48CHL1  H18A 3506   3.953   4.996   6.941  1.2542  0.1628 -0.1716
   48CHL1  H18B 3507   3.916   5.018   7.122  1.5762 -1.2301  2.0077
   48CHL1  H18C 3508   4.075   4.962   7.063  0.0707 -2.4921 -0.3951
   48CHL1   C12 3509   4.010   4.708   6.969  0.2367 -0.0812  0.1018
   48CHL1  H12A 3510   4.117   4.726   6.995  0.5772  0.1032 -1.3313
   48CHL1  H12B 3511   4.003   4.598   6.983  0.3172 -0.1415 -0.3013
   48CHL1   C11 3512   3.995   4.734   6.812 -0.2085 -0.5116 -0.5856
   48CHL1  H11A 3513   4.029   4.839   6.802 -2.6089  0.3469 -0.4445
   48CHL1  H11B 3514   4.065   4.666   6.758 -0.0699 -1.2470  0.4829
   48CHL1    C9 3515   3.854   4.729   6.758 -0.0189 -0.2146 -0.6472
   48CHL1    H9 3516   3.807   4.631   6.778 -1.7799  0.8006  0.3702
   48CHL1   C10 3517   3.846   4.753   6.607 -0.5708 -0.4775  0.0234
   48CHL1   C19 3518   3.927   4.891   6.574  0.1674  0.6857  0.0589
   48CHL1  H19A 3519   3.920   4.927   6.469  3.0960  1.4263  0.0366
   48CHL1  H19B 3520   3.900   4.969   6.648  0.8447  0.0199  1.0226
   48CHL1  H19C 3521   4.034   4.864   6.584 -0.1778 -0.7396  0.1235
   48CHL1    C1 3522   3.920   4.638   6.532  0.1885  0.4054  0.3638
   48CHL1   H1A 3523   4.024   4.624   6.568 -0.7917  0.5301  3.5838
   48CHL1   H1B 3524   3.870   4.542   6.555 -2.4130  0.9313 -2.4635
   48CHL1    C2 3525   3.909   4.650   6.379  0.3873  0.9649 -0.0077
   48CHL1   H2A 3526   3.938   4.558   6.324  1.1917  1.6766 -0.8094
   48CHL1   H2B 3527   3.965   4.732   6.330 -0.2406  1.0046 -0.6822
   48CHL1   C20 3528   4.003   4.814   7.298  0.3200 -0.2460  0.1724
   48CHL1   H20 3529   4.002   4.925   7.299 -1.1107 -0.2104 -1.1643
   48CHL1   C21 3530   4.146   4.766   7.263 -0.2402 -0.1650  0.5281
   48CHL1  H21A 3531   4.228   4.794   7.333 -0.1981  0.2984  0.2984
   48CHL1  H21B 3532   4.171   4.822   7.170  0.7490 -0.4505  0.6084
   48CHL1  H21C 3533   4.158   4.656   7.251 -2.0444 -0.3087 -0.2858
   48CHL1   C22 3534   3.963   4.792   7.443  0.1248 -0.4263 -0.7856
   48CHL1  H22A 3535   3.855   4.809   7.459  0.3259 -0.6134  1.0158
   48CHL1  H22B 3536   3.982   4.687   7.476 -2.0269 -0.8457 -0.7276
   48CHL1   C23 3537   4.029   4.883   7.549 -0.0455  0.9274  0.4062
   48CHL1  H23A 3538   4.134   4.847   7.552  0.2246  1.0102 -3.2543
   48CHL1  H23B 3539   4.023   4.988   7.512  2.0047  0.5751 -1.1077
   48CHL1   C24 3540   3.964   4.876   7.693 -0.2534  0.6479 -0.7364
   48CHL1  H24A 3541   3.861   4.915   7.705  0.1006  0.7855  2.7376
   48CHL1  H24B 3542   3.954   4.771   7.726  0.6883  1.0930  1.1255
   48CHL1   C25 3543   4.058   4.940   7.795 -0.6733  0.0037  0.1415
   48CHL1   H25 3544   4.074   5.046   7.765 -1.4661 -0.3872 -1.8021
   48CHL1   C26 3545   3.986   4.942   7.930 -0.1138 -0.1143  0.3118
   48CHL1  H26A 3546   3.879   4.967   7.914 -0.0730 -0.2156 -0.1235
   48CHL1  H26B 3547   3.983   4.844   7.981 -2.7309 -0.6431 -0.6764
   48CHL1  H26C 3548   4.026   5.019   7.999  0.1718 -0.0921  0.1227
   48CHL1   C27 3549   4.194   4.877   7.800 -0.3368 -0.1565 -0.1120
   48CHL1  H27A 3550   4.192   4.767   7.820 -0.8903 -0.3358 -1.1197
   48CHL1  H27B 3551   4.253   4.878   7.706 -1.9367  0.3009 -1.1494
   48CHL1  H27C 3552   4.238   4.942   7.879 -2.7467  1.9359 -0.3544
   49CHL1    C3 3553   1.781   3.826   6.558 -0.2479 -0.3629  0.1531
   49CHL1    H3 3554   1.704   3.785   6.627  0.5150 -1.4009  0.4115
   49CHL1    O3 3555   1.738   3.825   6.419 -0.4231 -0.4796  0.1774
   49CHL1   H3' 3556   1.810   3.867   6.370 -1.3690  0.3003 -0.5899
   49CHL1    C4 3557   1.806   3.972   6.602  0.1578  0.5329  0.6459
   49CHL1   H4A 3558   1.886   4.019   6.541 -0.3680  1.2273  0.4749
   49CHL1   H4B 3559   1.718   4.036   6.576  1.7801  1.6439 -2.6211
   49CHL1    C5 3560   1.863   3.974   6.743  0.3858  0.5374 -0.3495
   49CHL1    C6 3561   1.798   4.064   6.818  0.4440  1.1894 -0.9265
   49CHL1    H6 3562   1.713   4.116   6.772 -0.5327  1.2463  0.8745
   49CHL1    C7 3563   1.822   4.084   6.971 -0.2215  0.9312  0.0937
   49CHL1   H7A 3564   1.831   4.192   6.993 -0.2080  0.8624  0.4243
   49CHL1   H7B 3565   1.743   4.048   7.040  0.9907 -0.2338  0.9308
   49CHL1    C8 3566   1.964   4.015   7.001  0.0656 -0.4694  0.6916
   49CHL1    H8 3567   2.044   4.083   6.964 -0.0408  0.2569  1.7717
   49CHL1   C14 3568   1.982   4.001   7.149 -0.0117 -0.4190 -0.0371
   49CHL1   H14 3569   1.907   3.931   7.194 -0.5480 -0.2202 -0.6098
   49CHL1   C15 3570   1.950   4.125   7.231  0.0064 -0.0341 -0.2404
   49CHL1  H15A 3571   1.997   4.217   7.189 -0.4466  0.7733  0.9640
   49CHL1  H15B 3572   1.841   4.142   7.243  0.4370  3.1944  0.0601
   49CHL1   C16 3573   2.003   4.089   7.370  0.2865 -0.0241 -0.1595
   49CHL1  H16A 3574   2.074   4.167   7.403  0.7318 -0.0699 -0.9783
   49CHL1  H16B 3575   1.929   4.086   7.453  0.2468  0.2589 -0.1867
   49CHL1   C17 3576   2.080   3.956   7.358  0.3615 -0.1385 -0.5940
   49CHL1   H17 3577   2.008   3.875   7.384  0.1307  0.6357  1.4219
   49CHL1   C13 3578   2.109   3.941   7.207 -0.3335 -0.3697 -0.4978
   49CHL1   C18 3579   2.227   4.032   7.170  0.1927  0.2195 -0.3539
   49CHL1  H18A 3580   2.209   4.135   7.206  0.1229 -1.1863  4.3034
   49CHL1  H18B 3581   2.318   3.995   7.223 -1.4236 -1.8262  1.1747
   49CHL1  H18C 3582   2.258   4.029   7.063 -1.0340  1.5285 -0.7682
   49CHL1   C12 3583   2.125   3.794   7.158  0.4418  0.2382  0.1048
   49CHL1  H12A 3584   2.231   3.767   7.180 -0.3871 -1.8558  1.9276
   49CHL1  H12B 3585   2.058   3.737   7.226 -2.2141  1.8495 -1.0151
   49CHL1   C11 3586   2.105   3.791   7.003 -0.4658 -0.4672 -0.0361
   49CHL1  H11A 3587   2.196   3.837   6.958 -0.2314 -0.9767 -0.0887
   49CHL1  H11B 3588   2.104   3.684   6.974  0.8567 -0.1149 -1.5138
   49CHL1    C9 3589   1.984   3.871   6.943  0.7092 -0.4762  0.1620
   49CHL1    H9 3590   1.895   3.816   6.979  0.6572  0.0506  0.8473
   49CHL1   C10 3591   1.980   3.879   6.789  0.2580  0.3233  0.8585
   49CHL1   C19 3592   2.113   3.936   6.731 -0.2576  0.2978 -0.0091
   49CHL1  H19A 3593   2.183   3.850   6.740 -1.7212 -0.9017  0.3801
   49CHL1  H19B 3594   2.105   3.950   6.621 -0.7799 -0.5611 -0.0958
   49CHL1  H19C 3595   2.137   4.036   6.772 -0.5499  0.4934 -0.3037
   49CHL1    C1 3596   1.956   3.738   6.731 -0.4956  0.3380  0.3410
   49CHL1   H1A 3597   2.049   3.678   6.730  0.0650  1.1910 -0.7910
   49CHL1   H1B 3598   1.879   3.689   6.794 -0.7204 -2.2538 -1.7740
   49CHL1    C2 3599   1.908   3.732   6.585  0.0423  0.5898  0.2638
   49CHL1   H2A 3600   1.872   3.628   6.570  2.1009  0.0375 -1.3219
   49CHL1   H2B 3601   1.992   3.748   6.513 -0.8805 -2.6888 -1.7768
   49CHL1   C20 3602   2.191   3.948   7.460 -0.8366 -0.5583 -0.1711
   49CHL1   H20 3603   2.279   4.014   7.445 -1.5989  0.7156  0.7377
   49CHL1   C21 3604   2.254   3.811   7.473 -0.1603  0.1938 -0.0463
   49CHL1  H21A 3605   2.317   3.793   7.383  0.0121  0.5461  0.0027
   49CHL1  H21B 3606   2.178   3.731   7.466 -0.4493  0.4349  0.3347
   49CHL1  H21C 3607   2.313   3.787   7.564 -0.4617 -1.6898 -0.3089
   49CHL1   C22 3608   2.152   3.998   7.604  0.2675 -0.3715 -0.5059
   49CHL1  H22A 3609   2.076   4.080   7.604  0.8366  0.2194  1.5906
   49CHL1  H22B 3610   2.099   3.911   7.648 -0.2120  0.1101 -0.1059
   49CHL1   C23 3611   2.270   4.028   7.698 -0.0059 -0.0695  0.1563
   49CHL1  H23A 3612   2.350   3.952   7.702  0.7596  0.7217  0.1758
   49CHL1  H23B 3613   2.319   4.125   7.673  2.3119 -0.8154  1.5539
   49CHL1   C24 3614   2.221   4.053   7.839 -0.4973 -0.2611  0.1927
   49CHL1  H24A 3615   2.132   4.116   7.820  0.8054  1.5341 -0.2321
   49CHL1  H24B 3616   2.194   3.949   7.869 -1.2495  0.1896  1.1402
   49CHL1   C25 3617   2.320   4.119   7.937 -0.6285  0.5111 -0.9484
   49CHL1   H25 3618   2.268   4.126   8.034  0.8030 -0.1217 -0.1076
   49CHL1   C26 3619   2.439   4.023   7.945 -0.2017  0.5666 -0.2067
   49CHL1  H26A 3620   2.480   3.984   7.849  1.1456 -0.0228  0.5648
   49CHL1  H26B 3621   2.524   4.074   7.995 -0.5054 -0.3913  1.3525
   49CHL1  H26C 3622   2.425   3.928   8.001  1.2340  0.2825 -0.2691
   49CHL1   C27 3623   2.365   4.259   7.909  0.1491 -0.2521 -0.2099
   49CHL1  H27A 3624   2.403   4.288   8.009 -2.0267 -0.5222  0.7567
   49CHL1  H27B 3625   2.446   4.275   7.835  0.6672  0.6895  0.5327
   49CHL1  H27C 3626   2.278   4.327   7.900 -1.1272 -1.8674 -0.7700
   50CHL1    C3 3627   4.072   0.237   6.331  0.4787 -0.4532  0.0618
   50CHL1    H3 3628   4.175   0.242   6.372  0.9728  2.2935 -1.2737
   50CHL1    O3 3629   4.087   0.252   6.192 -0.0023 -0.4185  0.4493
   50CHL1   H3' 3630   3.999   0.273   6.158  0.2845  0.3140  0.1516
   50CHL1    C4 3631   4.008   0.094   6.350  0.3716  0.3484 -1.0653
   50CHL1   H4A 3632   3.909   0.092   6.300  0.5751  2.5664 -1.6906
   50CHL1   H4B 3633   4.070   0.015   6.302  1.4847  0.7262 -0.2936
   50CHL1    C5 3634   3.987   0.060   6.502 -0.0091 -0.4183 -0.1021
   50CHL1    C6 3635   4.035  -0.057   6.554  0.4818 -0.7604 -0.0151
   50CHL1    H6 3636   4.077  -0.136   6.490  0.3906 -2.4161  1.8918
   50CHL1    C7 3637   4.007  -0.105   6.695 -0.5463 -0.1496 -0.1142
   50CHL1   H7A 3638   3.958  -0.205   6.699 -0.3936 -0.1786  1.4970
   50CHL1   H7B 3639   4.101  -0.105   6.753  1.3602  1.7833 -2.9742
   50CHL1    C8 3640   3.909  -0.015   6.775  0.2383 -0.8663  0.2525
   50CHL1    H8 3641   3.809  -0.053   6.745 -0.4337  0.8772  0.1382
   50CHL1   C14 3642   3.922  -0.024   6.923  0.5255  0.0549  0.8733
   50CHL1   H14 3643   4.022   0.022   6.942  1.2814 -0.3717 -1.6482
   50CHL1   C15 3644   3.926  -0.158   6.977 -0.1157  0.5103  0.3133
   50CHL1  H15A 3645   3.858  -0.215   6.909  1.9757 -2.7963  0.7389
   50CHL1  H15B 3646   4.026  -0.207   6.969 -0.5799 -0.3585 -0.4115
   50CHL1   C16 3647   3.879  -0.150   7.123  0.0173 -0.5595 -0.2162
   50CHL1  H16A 3648   3.780  -0.199   7.138  0.6798 -1.7753  0.2586
   50CHL1  H16B 3649   3.959  -0.196   7.185  0.9871  1.2595 -0.0318
   50CHL1   C17 3650   3.861   0.002   7.150 -0.3222 -0.2219  0.0727
   50CHL1   H17 3651   3.956   0.050   7.181 -0.3795  0.9688 -1.4787
   50CHL1   C13 3652   3.827   0.053   7.010  0.2559 -0.3827 -0.3696
   50CHL1   C18 3653   3.680   0.013   6.979  0.0895 -0.0602  0.0175
   50CHL1  H18A 3654   3.653   0.041   6.874 -0.1809 -0.3464  0.0097
   50CHL1  H18B 3655   3.658  -0.096   6.985  1.1411 -0.1844  2.9151
   50CHL1  H18C 3656   3.606   0.068   7.040 -0.0298 -1.0243  0.7684
   50CHL1   C12 3657   3.857   0.199   6.975 -0.0856 -0.1174  0.5400
   50CHL1  H12A 3658   3.783   0.263   7.027 -1.1215 -1.5949  0.9469
   50CHL1  H12B 3659   3.956   0.226   7.017  0.0230  1.0972 -0.4642
   50CHL1   C11 3660   3.845   0.238   6.824  0.0612  0.3092 -0.1452
   50CHL1  H11A 3661   3.744   0.241   6.780  0.7321  0.6970 -1.7407
   50CHL1  H11B 3662   3.886   0.341   6.812  1.9904 -0.6757 -3.4393
   50CHL1    C9 3663   3.926   0.134   6.736  0.3668  0.1797  0.3334
   50CHL1    H9 3664   4.034   0.160   6.749  1.3020 -3.2933  0.4936
   50CHL1   C10 3665   3.912   0.164   6.579 -0.5074 -0.1912 -0.7903
   50CHL1   C19 3666   3.769   0.152   6.531  0.9275  0.1658  0.8795
   50CHL1  H19A 3667   3.723   0.051   6.538  1.5909 -0.0940  1.6515
   50CHL1  H19B 3668   3.700   0.225   6.578  0.2123 -1.0170  1.7284
   50CHL1  H19C 3669   3.751   0.178   6.425 -0.2959  0.0746  1.0454
   50CHL1    C1 3670   3.963   0.308   6.546 -0.9432  0.0603  0.2019
   50CHL1   H1A 3671   3.904   0.380   6.606  0.5236  1.3471  0.1714
   50CHL1   H1B 3672   4.064   0.309   6.592 -0.5609 -2.0986 -0.4642
   50CHL1    C2 3673   3.980   0.342   6.400  0.1551 -0.0376 -0.7709
   50CHL1   H2A 3674   4.038   0.437   6.395  1.9922 -1.0358  0.4783
   50CHL1   H2B 3675   3.877   0.339   6.358 -0.0398  3.9982 -1.0167
   50CHL1   C20 3676   3.765   0.044   7.262 -0.1979 -0.2239  0.4090
   50CHL1   H20 3677   3.659   0.030   7.231 -0.8098  0.2847  2.1892
   50CHL1   C21 3678   3.793   0.194   7.290  0.0300 -0.6988  0.1221
   50CHL1  H21A 3679   3.744   0.255   7.210  2.6549 -1.3645 -2.1183
   50CHL1  H21B 3680   3.893   0.242   7.297 -0.1599 -0.1983 -0.4748
   50CHL1  H21C 3681   3.739   0.220   7.384 -0.5193 -0.5963 -0.2138
   50CHL1   C22 3682   3.791  -0.043   7.388  0.5560 -0.0853 -0.0504
   50CHL1  H22A 3683   3.756  -0.145   7.363 -0.0869  0.0966  0.0788
   50CHL1  H22B 3684   3.901  -0.032   7.398  0.2911  1.4658  1.8189
   50CHL1   C23 3685   3.715  -0.004   7.517 -0.0566  0.0053 -0.4160
   50CHL1  H23A 3686   3.756   0.088   7.563 -0.0207 -0.2563  0.0856
   50CHL1  H23B 3687   3.612   0.025   7.489 -0.5967  1.1076  2.4042
   50CHL1   C24 3688   3.688  -0.111   7.622 -0.4067 -0.0206 -1.0375
   50CHL1  H24A 3689   3.626  -0.064   7.702  1.5791  1.3620 -0.2450
   50CHL1  H24B 3690   3.635  -0.196   7.574 -0.5638  0.0985 -1.0755
   50CHL1   C25 3691   3.807  -0.171   7.698 -0.0833 -0.4876 -0.1674
   50CHL1   H25 3692   3.884  -0.199   7.623  1.0821  0.7605  0.5279
   50CHL1   C26 3693   3.885  -0.066   7.790 -0.4093  0.3654  0.2583
   50CHL1  H26A 3694   3.946  -0.127   7.860 -0.2190 -0.1859 -0.3735
   50CHL1  H26B 3695   3.955  -0.013   7.722  0.1871 -0.9564 -0.1744
   50CHL1  H26C 3696   3.814   0.001   7.844  0.0079  1.4326 -0.4963
   50CHL1   C27 3697   3.754  -0.290   7.775 -0.0948  0.4590 -0.3411
   50CHL1  H27A 3698   3.662  -0.284   7.838 -1.7254  0.5631 -2.5950
   50CHL1  H27B 3699   3.704  -0.364   7.710  1.0276 -0.8987  0.2907
   50CHL1  H27C 3700   3.827  -0.350   7.832 -0.2100  1.8477  1.3632
   51CHL1    C3 3701   3.050   4.905   6.635  0.2594 -0.4407 -0.4289
   51CHL1    H3 3702   3.041   4.795   6.623 -1.2109 -0.3309 -0.5046
   51CHL1    O3 3703   3.018   4.960   6.507  0.0523  0.0727 -0.7998
   51CHL1   H3' 3704   2.967   4.890   6.466 -1.6711  0.3379  0.7264
   51CHL1    C4 3705   2.950   4.964   6.731 -0.0855  0.0208  0.1174
   51CHL1   H4A 3706   2.958   5.075   6.722 -0.1754  0.0978  0.9473
   51CHL1   H4B 3707   2.849   4.933   6.696 -0.3933 -0.3153  1.2570
   51CHL1    C5 3708   2.985   4.915   6.872  0.0850  0.0568 -0.4412
   51CHL1    C6 3709   2.889   4.855   6.938 -0.6379  0.3678  0.5866
   51CHL1    H6 3710   2.793   4.838   6.887 -0.1885  1.6539 -0.7543
   51CHL1    C7 3711   2.908   4.820   7.083  0.7764  0.5867 -0.6303
   51CHL1   H7A 3712   2.820   4.846   7.146  0.1685 -2.1587 -0.2144
   51CHL1   H7B 3713   2.914   4.710   7.092  2.2521  0.4816 -2.3415
   51CHL1    C8 3714   3.039   4.881   7.152  0.2694 -0.3156 -0.2112
   51CHL1    H8 3715   3.022   4.988   7.173 -4.2201 -0.3187 -2.4980
   51CHL1   C14 3716   3.076   4.798   7.273  0.5911  0.2018  0.4107
   51CHL1   H14 3717   3.094   4.699   7.226 -0.2122 -0.8945  2.3114
   51CHL1   C15 3718   2.963   4.757   7.380  0.2710 -0.4818  0.2379
   51CHL1  H15A 3719   2.902   4.846   7.408  2.7052  1.3142  0.1828
   51CHL1  H15B 3720   2.905   4.675   7.332  1.7716 -0.4033 -1.8138
   51CHL1   C16 3721   3.045   4.701   7.496 -1.1321 -0.2644 -0.0905
   51CHL1  H16A 3722   3.030   4.764   7.586 -0.8214  1.1105 -0.9594
   51CHL1  H16B 3723   3.031   4.592   7.506  0.2725 -0.5724 -1.2280
   51CHL1   C17 3724   3.199   4.724   7.467  0.1080 -0.2243  0.1384
   51CHL1   H17 3725   3.230   4.629   7.418  0.1931 -0.3889  0.5071
   51CHL1   C13 3726   3.203   4.833   7.355  0.1628  0.1890  0.3382
   51CHL1   C18 3727   3.189   4.978   7.405  0.4748  0.4102 -0.3902
   51CHL1  H18A 3728   3.111   4.981   7.484 -0.2307  1.5550 -1.0968
   51CHL1  H18B 3729   3.278   5.013   7.461  0.6049 -0.0712 -0.2907
   51CHL1  H18C 3730   3.165   5.041   7.317 -0.4881 -1.4598 -1.5185
   51CHL1   C12 3731   3.322   4.812   7.245 -0.0368 -0.0992 -0.0732
   51CHL1  H12A 3732   3.424   4.835   7.283 -0.8570  0.6225  1.8243
   51CHL1  H12B 3733   3.323   4.704   7.218 -1.0100  0.4463 -2.6354
   51CHL1   C11 3734   3.295   4.899   7.114 -0.4221  0.4160  0.6172
   51CHL1  H11A 3735   3.301   5.007   7.140 -1.6015  1.2281 -2.1206
   51CHL1  H11B 3736   3.375   4.867   7.044 -1.0533 -1.0190  0.5137
   51CHL1    C9 3737   3.154   4.865   7.051  0.0101 -0.5246 -0.1458
   51CHL1    H9 3738   3.158   4.758   7.022 -0.6045 -0.2563 -1.2901
   51CHL1   C10 3739   3.128   4.939   6.919 -0.0489 -0.1058  0.9832
   51CHL1   C19 3740   3.136   5.097   6.944 -0.3344  0.1307  0.2346
   51CHL1  H19A 3741   3.066   5.132   7.023 -0.3436  1.7352 -0.4387
   51CHL1  H19B 3742   3.239   5.111   6.985 -0.7167 -2.1620  2.2105
   51CHL1  H19C 3743   3.120   5.148   6.847  1.0254  0.7188  0.2870
   51CHL1    C1 3744   3.225   4.897   6.808 -0.5682  0.2631 -0.2733
   51CHL1   H1A 3745   3.331   4.920   6.831 -0.5182 -1.9970  2.2544
   51CHL1   H1B 3746   3.224   4.786   6.801  0.9739  0.0889  1.6557
   51CHL1    C2 3747   3.193   4.948   6.670 -0.6388  0.2846  0.4043
   51CHL1   H2A 3748   3.263   4.899   6.598 -0.5772  0.4112  0.3790
   51CHL1   H2B 3749   3.206   5.055   6.647  0.6484 -0.1335 -0.9628
   51CHL1   C20 3750   3.279   4.759   7.598  0.6821 -0.3186  0.5127
   51CHL1   H20 3751   3.231   4.854   7.629  0.1668 -0.4702  0.1833
   51CHL1   C21 3752   3.426   4.782   7.567 -0.2019  0.1420  0.0102
   51CHL1  H21A 3753   3.468   4.702   7.501  0.1248  0.0842  0.2844
   51CHL1  H21B 3754   3.478   4.792   7.664 -2.7273  1.2116  1.3286
   51CHL1  H21C 3755   3.442   4.873   7.505 -0.3445 -1.1340 -2.0242
   51CHL1   C22 3756   3.264   4.663   7.727  0.2511  0.0903  0.2766
   51CHL1  H22A 3757   3.317   4.709   7.813  0.4677 -1.0481  0.7733
   51CHL1  H22B 3758   3.157   4.658   7.758 -0.3135  1.6959 -1.2854
   51CHL1   C23 3759   3.317   4.519   7.700  0.1517 -0.6120 -0.1476
   51CHL1  H23A 3760   3.246   4.478   7.625  0.4095 -1.1824 -0.0845
   51CHL1  H23B 3761   3.414   4.522   7.647 -0.0712  3.8131 -0.6941
   51CHL1   C24 3762   3.306   4.431   7.826 -0.1433  0.4444 -0.7313
   51CHL1  H24A 3763   3.407   4.412   7.869 -1.2669 -0.5095  1.6832
   51CHL1  H24B 3764   3.245   4.482   7.904 -0.3967 -2.4001  1.0418
   51CHL1   C25 3765   3.256   4.285   7.797 -0.4528  0.4551 -0.3854
   51CHL1   H25 3766   3.263   4.234   7.896  1.2893 -0.4092 -0.9155
   51CHL1   C26 3767   3.109   4.271   7.770  0.4015  0.0195 -0.0955
   51CHL1  H26A 3768   3.053   4.315   7.855 -0.2108 -0.8619 -0.0365
   51CHL1  H26B 3769   3.090   4.317   7.671  2.8194 -0.5951 -0.9310
   51CHL1  H26C 3770   3.095   4.161   7.780  0.7515 -0.0590 -0.4202
   51CHL1   C27 3771   3.355   4.217   7.705  1.3254  0.4432 -0.0985
   51CHL1  H27A 3772   3.341   4.259   7.603 -2.6719 -0.7638 -0.2420
   51CHL1  H27B 3773   3.460   4.208   7.738  0.7986 -1.6135  1.2332
   51CHL1  H27C 3774   3.327   4.109   7.714  2.3981  0.1492 -0.1750
   52CHL1    C3 3775   4.607   6.753   6.618 -0.5246  0.8020 -0.3330
   52CHL1    H3 3776   4.541   6.667   6.594  0.6583 -0.9282  2.1698
   52CHL1    O3 3777   4.664   6.802   6.493  0.9023 -0.1871 -1.0002
   52CHL1   H3' 3778   4.584   6.810   6.440  0.4126  0.8507 -0.1320
   52CHL1    C4 3779   4.512   6.859   6.683 -0.2655  0.3315 -0.1034
   52CHL1   H4A 3780   4.569   6.954   6.682 -0.3352  0.3723 -1.2109
   52CHL1   H4B 3781   4.428   6.874   6.612  2.0835  0.0299 -3.1824
   52CHL1    C5 3782   4.480   6.822   6.826  0.2886 -0.2493  0.0742
   52CHL1    C6 3783   4.349   6.817   6.859  0.4073  0.5106  0.1602
   52CHL1    H6 3784   4.272   6.838   6.783 -1.0988 -1.8113  0.9378
   52CHL1    C7 3785   4.303   6.779   6.993 -0.4484 -0.3967  0.0608
   52CHL1   H7A 3786   4.230   6.856   7.028  0.6904  0.7313  0.0448
   52CHL1   H7B 3787   4.254   6.679   6.993  1.4093 -1.3369  0.4968
   52CHL1    C8 3788   4.413   6.778   7.101 -0.2479  0.8735  0.2632
   52CHL1    H8 3789   4.437   6.885   7.121  1.2260  0.5916  0.0691
   52CHL1   C14 3790   4.359   6.697   7.216 -0.1721 -0.1721  0.1085
   52CHL1   H14 3791   4.350   6.592   7.182  2.6724  0.2369 -2.3262
   52CHL1   C15 3792   4.226   6.746   7.285 -0.0529  0.1100 -0.0477
   52CHL1  H15A 3793   4.233   6.857   7.294  1.8725  0.1468 -1.2831
   52CHL1  H15B 3794   4.132   6.716   7.233 -1.3568  2.9206  0.4893
   52CHL1   C16 3795   4.235   6.678   7.424 -0.2735  0.3128  0.0199
   52CHL1  H16A 3796   4.229   6.755   7.504 -3.5159 -0.7988  0.9979
   52CHL1  H16B 3797   4.145   6.616   7.445  0.2533 -0.6121 -0.4045
   52CHL1   C17 3798   4.375   6.606   7.435 -0.8027 -0.7678 -0.3770
   52CHL1   H17 3799   4.369   6.500   7.401  0.1032 -1.4869  1.5858
   52CHL1   C13 3800   4.462   6.684   7.329  0.3068  0.0268 -0.1606
   52CHL1   C18 3801   4.497   6.828   7.383 -0.4733 -0.2467 -0.6527
   52CHL1  H18A 3802   4.566   6.822   7.470  0.1311  1.0896 -1.0196
   52CHL1  H18B 3803   4.548   6.890   7.307 -1.6918  2.2062  0.4351
   52CHL1  H18C 3804   4.409   6.885   7.420 -0.6801 -1.5606  1.0140
   52CHL1   C12 3805   4.586   6.610   7.275 -0.3578 -0.4701  0.1993
   52CHL1  H12A 3806   4.664   6.616   7.355  1.2621  1.7204 -1.4354
   52CHL1  H12B 3807   4.566   6.503   7.255  1.0680 -0.5595 -0.9428
   52CHL1   C11 3808   4.645   6.684   7.152  0.4686  0.3559 -0.0480
   52CHL1  H11A 3809   4.683   6.783   7.184  0.9988  0.0151  0.3996
   52CHL1  H11B 3810   4.726   6.621   7.111  0.8026  0.6405  0.1657
   52CHL1    C9 3811   4.536   6.703   7.048 -0.1855 -0.4709  0.0821
   52CHL1    H9 3812   4.507   6.602   7.010  0.0874 -0.2822 -0.6461
   52CHL1   C10 3813   4.589   6.775   6.916 -0.5489 -0.0447  0.4362
   52CHL1   C19 3814   4.670   6.897   6.967  0.0513 -0.0003  0.4790
   52CHL1  H19A 3815   4.695   6.974   6.891 -2.5217  1.2605  0.8054
   52CHL1  H19B 3816   4.616   6.951   7.048  0.3100 -1.5352  1.7031
   52CHL1  H19C 3817   4.766   6.859   7.007 -1.1835 -3.2939  0.6036
   52CHL1    C1 3818   4.680   6.671   6.838 -0.2626 -0.1519 -0.0412
   52CHL1   H1A 3819   4.779   6.666   6.889  0.5795 -0.5283 -1.6359
   52CHL1   H1B 3820   4.611   6.585   6.826 -0.0429 -0.1562 -1.3758
   52CHL1    C2 3821   4.722   6.713   6.701  0.1577  0.6070  0.1755
   52CHL1   H2A 3822   4.773   6.628   6.651 -1.7998 -0.6443  0.1809
   52CHL1   H2B 3823   4.794   6.797   6.707 -0.7067  1.2842  1.5321
   52CHL1   C20 3824   4.428   6.601   7.579 -0.0066  0.2250  0.9267
   52CHL1   H20 3825   4.488   6.690   7.607  0.5379 -0.3279  1.5563
   52CHL1   C21 3826   4.533   6.484   7.588 -0.1436 -0.3955  0.2010
   52CHL1  H21A 3827   4.474   6.393   7.614 -1.2943  0.4832  0.7713
   52CHL1  H21B 3828   4.609   6.509   7.666  0.7237  2.1258 -1.3387
   52CHL1  H21C 3829   4.597   6.471   7.499 -1.9859  0.2312 -1.2927
   52CHL1   C22 3830   4.319   6.569   7.679 -0.0721 -0.3761  0.3733
   52CHL1  H22A 3831   4.257   6.662   7.682  0.5298  0.2501 -2.5676
   52CHL1  H22B 3832   4.250   6.487   7.649 -1.5282  0.2723  1.8233
   52CHL1   C23 3833   4.369   6.541   7.826  0.4449  0.1383  0.8229
   52CHL1  H23A 3834   4.414   6.440   7.818  0.6384  0.2960 -0.1899
   52CHL1  H23B 3835   4.449   6.611   7.859  2.7043 -1.6688 -0.4712
   52CHL1   C24 3836   4.253   6.527   7.919  0.2670 -0.0897 -0.7269
   52CHL1  H24A 3837   4.196   6.622   7.920  0.0569 -0.2213 -0.0339
   52CHL1  H24B 3838   4.180   6.446   7.895 -2.1326  0.9250  2.4862
   52CHL1   C25 3839   4.293   6.492   8.071  0.7353  0.0972 -0.2086
   52CHL1   H25 3840   4.346   6.582   8.107  0.0315  0.2260  0.5604
   52CHL1   C26 3841   4.172   6.475   8.156  0.5567 -0.2482  0.0874
   52CHL1  H26A 3842   4.204   6.431   8.252  1.0488 -2.3953 -1.0011
   52CHL1  H26B 3843   4.113   6.569   8.164  2.9100  1.3627 -0.2860
   52CHL1  H26C 3844   4.093   6.404   8.125 -0.2514 -0.5836  2.7131
   52CHL1   C27 3845   4.375   6.367   8.074 -0.1539  0.6641 -0.0609
   52CHL1  H27A 3846   4.398   6.327   8.175 -0.8615 -1.5028 -0.7098
   52CHL1  H27B 3847   4.330   6.287   8.011 -1.4455  0.8188  0.6192
   52CHL1  H27C 3848   4.474   6.380   8.027 -0.4929 -0.1703 -1.0383
   53CHL1    C3 3849   2.111   1.934   6.255  0.0853 -0.1841 -0.1534
   53CHL1    H3 3850   2.116   2.044   6.269  0.0899  0.0438 -1.7178
   53CHL1    O3 3851   2.125   1.904   6.113 -0.5279  0.2504  0.1947
   53CHL1   H3' 3852   2.097   1.813   6.101  1.2816 -0.0539 -2.3818
   53CHL1    C4 3853   2.233   1.875   6.325  0.0677 -0.0174  0.0780
   53CHL1   H4A 3854   2.220   1.769   6.294 -1.8115  0.9720 -3.0173
   53CHL1   H4B 3855   2.322   1.930   6.288 -1.2813  0.6189 -2.4788
   53CHL1    C5 3856   2.227   1.868   6.481 -0.2602  0.3415 -0.1575
   53CHL1    C6 3857   2.317   1.924   6.559  0.2567 -0.6573  0.3430
   53CHL1    H6 3858   2.402   1.976   6.512 -1.4497  1.8514 -0.1879
   53CHL1    C7 3859   2.322   1.897   6.702 -0.6782  0.1673  0.2274
   53CHL1   H7A 3860   2.417   1.841   6.720  0.0641  0.6450 -1.9282
   53CHL1   H7B 3861   2.327   1.996   6.752 -2.0271  0.5480 -0.3491
   53CHL1    C8 3862   2.205   1.811   6.762  0.2807 -0.2174 -0.5237
   53CHL1    H8 3863   2.236   1.705   6.752  0.1483 -0.5264  1.7707
   53CHL1   C14 3864   2.183   1.848   6.904  0.2338  0.7755 -0.4011
   53CHL1   H14 3865   2.137   1.949   6.893 -3.0483 -0.7062 -1.6262
   53CHL1   C15 3866   2.303   1.876   6.998 -0.3859 -0.8306 -0.5532
   53CHL1  H15A 3867   2.384   1.800   7.006  1.3646  1.0181  0.3702
   53CHL1  H15B 3868   2.357   1.973   6.990 -1.2571  0.0703  3.0095
   53CHL1   C16 3869   2.225   1.893   7.130  0.0090 -0.0957  0.0831
   53CHL1  H16A 3870   2.272   1.839   7.215  2.2261 -0.8536 -1.5146
   53CHL1  H16B 3871   2.227   1.999   7.163 -2.3964 -0.1840  0.7034
   53CHL1   C17 3872   2.079   1.841   7.111  0.3757 -0.8166 -0.6563
   53CHL1   H17 3873   2.015   1.930   7.096  1.9252  0.3511 -0.5825
   53CHL1   C13 3874   2.079   1.765   6.979  0.0229  0.2132 -0.2050
   53CHL1   C18 3875   2.143   1.625   7.004  0.2327 -0.4981 -0.5255
   53CHL1  H18A 3876   2.175   1.569   6.913 -1.2152 -1.9280 -0.1955
   53CHL1  H18B 3877   2.230   1.636   7.072 -1.3058  1.6635  1.2174
   53CHL1  H18C 3878   2.071   1.563   7.061  1.8821 -1.1113  0.9959
   53CHL1   C12 3879   1.944   1.781   6.902 -0.1400 -0.1237 -0.0233
   53CHL1  H12A 3880   1.850   1.735   6.939 -0.6871  2.2188  1.7181
   53CHL1  H12B 3881   1.925   1.890   6.908  3.2244  0.4951  2.1927
   53CHL1   C11 3882   1.959   1.755   6.752  0.0013  0.1501 -0.4984
   53CHL1  H11A 3883   1.982   1.647   6.738  0.5380  0.3828 -1.5439
   53CHL1  H11B 3884   1.865   1.782   6.699 -0.0782 -2.0984 -1.6341
   53CHL1    C9 3885   2.075   1.832   6.688  0.8755 -0.7134 -0.0026
   53CHL1    H9 3886   2.050   1.939   6.704  1.5116 -0.7235  1.1253
   53CHL1   C10 3887   2.096   1.800   6.537 -0.1313 -0.3821 -0.2974
   53CHL1   C19 3888   2.098   1.650   6.507  0.2414  0.4336  0.2360
   53CHL1  H19A 3889   2.110   1.630   6.398  1.7669  0.2596  0.4142
   53CHL1  H19B 3890   2.182   1.617   6.571 -0.6962 -0.1699  1.1864
   53CHL1  H19C 3891   2.006   1.593   6.533 -0.5110  1.0570 -0.9512
   53CHL1    C1 3892   1.982   1.868   6.463  0.0075 -0.2242 -0.2904
   53CHL1   H1A 3893   1.889   1.812   6.490  0.3929 -0.1293  1.3118
   53CHL1   H1B 3894   1.978   1.971   6.504  1.6625 -0.0838 -0.4222
   53CHL1    C2 3895   1.990   1.868   6.310 -0.0931 -0.1724  0.4573
   53CHL1   H2A 3896   1.901   1.910   6.258  0.3515  0.3397  0.1003
   53CHL1   H2B 3897   1.982   1.762   6.276 -1.6676  0.3670 -1.0109
   53CHL1   C20 3898   2.037   1.766   7.243 -0.0110  0.3045 -0.6911
   53CHL1   H20 3899   2.099   1.676   7.262 -1.7150 -0.3374  2.8264
   53CHL1   C21 3900   1.890   1.727   7.215  0.0262 -0.7859 -0.2535
   53CHL1  H21A 3901   1.846   1.817   7.169  1.4591 -0.4522 -1.0451
   53CHL1  H21B 3902   1.844   1.688   7.308  2.6417  0.2228  1.5869
   53CHL1  H21C 3903   1.902   1.644   7.141  3.8624 -0.2178 -0.5045
   53CHL1   C22 3904   2.035   1.855   7.366 -0.3491  0.0131  0.5129
   53CHL1  H22A 3905   2.130   1.913   7.364  0.4560 -1.2583 -1.5677
   53CHL1  H22B 3906   1.951   1.925   7.347 -0.8636 -0.8011 -0.3277
   53CHL1   C23 3907   2.024   1.788   7.509  0.4110 -0.4671  0.6335
   53CHL1  H23A 3908   1.945   1.710   7.503 -0.1881  0.2220 -1.8107
   53CHL1  H23B 3909   2.118   1.734   7.532  1.0561  0.1549 -0.4269
   53CHL1   C24 3910   1.987   1.888   7.627 -0.4869  0.4499  0.3070
   53CHL1  H24A 3911   2.076   1.949   7.653 -0.8624  0.3153  2.0758
   53CHL1  H24B 3912   1.906   1.961   7.607  1.0371  1.6271 -2.0187
   53CHL1   C25 3913   1.969   1.819   7.769 -0.2199 -0.7113  0.0724
   53CHL1   H25 3914   1.941   1.911   7.824 -0.7286 -0.6648 -0.2518
   53CHL1   C26 3915   1.857   1.713   7.769  0.5409  0.3628 -0.0905
   53CHL1  H26A 3916   1.889   1.617   7.722 -2.4132  0.1550 -1.9009
   53CHL1  H26B 3917   1.808   1.706   7.868 -2.0260  0.8393 -1.2419
   53CHL1  H26C 3918   1.780   1.748   7.697  2.2259 -1.3936 -2.9645
   53CHL1   C27 3919   2.101   1.769   7.822  0.1050  0.5718 -0.5612
   53CHL1  H27A 3920   2.178   1.849   7.823  0.1655  0.5231 -0.9111
   53CHL1  H27B 3921   2.086   1.727   7.923 -3.3934  0.5482 -0.9779
   53CHL1  H27C 3922   2.138   1.693   7.749  0.5189 -0.7263  0.9423
   54CHL1    C3 3923   1.429   3.881   6.842  0.2765 -0.7106 -0.1157
   54CHL1    H3 3924   1.517   3.949   6.836 -1.0476  1.1586  0.3525
   54CHL1    O3 3925   1.367   3.884   6.716 -0.0021 -0.6024  0.0965
   54CHL1   H3' 3926   1.334   3.974   6.708 -3.0395 -1.4905  1.3059
   54CHL1    C4 3927   1.484   3.743   6.873 -0.7052  0.7347 -1.0837
   54CHL1   H4A 3928   1.402   3.670   6.855 -1.6044  2.1660 -3.1268
   54CHL1   H4B 3929   1.569   3.728   6.804  0.9536  2.2767  0.5085
   54CHL1    C5 3930   1.537   3.734   7.014  0.0052 -0.1476 -0.8550
   54CHL1    C6 3931   1.660   3.688   7.052 -0.7561  0.0402  0.7915
   54CHL1    H6 3932   1.719   3.636   6.975 -2.6288 -0.4102 -0.3921
   54CHL1    C7 3933   1.723   3.676   7.186  0.1854 -0.1515  0.9332
   54CHL1   H7A 3934   1.772   3.577   7.187  0.6004  0.0488  2.3473
   54CHL1   H7B 3935   1.812   3.741   7.202  0.9517 -1.1670  0.8934
   54CHL1    C8 3936   1.617   3.719   7.293 -0.5031  0.4402 -0.3553
   54CHL1    H8 3937   1.550   3.636   7.321  0.8954  0.3007  2.9630
   54CHL1   C14 3938   1.696   3.759   7.424  0.6405  0.0393  0.4004
   54CHL1   H14 3939   1.754   3.850   7.397  0.4643  0.2062  0.5766
   54CHL1   C15 3940   1.799   3.656   7.484  0.2179 -1.2119  0.0558
   54CHL1  H15A 3941   1.757   3.553   7.484  1.3518 -1.7851 -2.6411
   54CHL1  H15B 3942   1.894   3.668   7.427 -0.1348 -0.4028 -0.3760
   54CHL1   C16 3943   1.820   3.716   7.617  0.1536  0.5466 -0.3798
   54CHL1  H16A 3944   1.811   3.629   7.686  0.8446  1.1659  0.5223
   54CHL1  H16B 3945   1.915   3.773   7.622  0.2949  0.2563  0.4716
   54CHL1   C17 3946   1.711   3.823   7.653 -0.0970 -0.1635 -0.2784
   54CHL1   H17 3947   1.758   3.918   7.622 -3.0274  0.4385 -3.5843
   54CHL1   C13 3948   1.606   3.807   7.538  1.0292  0.1017  0.0496
   54CHL1   C18 3949   1.510   3.692   7.589  0.2652 -0.5986 -0.1596
   54CHL1  H18A 3950   1.447   3.726   7.674 -0.5725 -0.9146 -0.6418
   54CHL1  H18B 3951   1.446   3.651   7.508 -0.7914  0.6576  0.0012
   54CHL1  H18C 3952   1.566   3.605   7.630 -0.3608 -1.1349 -0.4302
   54CHL1   C12 3953   1.519   3.930   7.491  0.7128 -0.4444  0.4482
   54CHL1  H12A 3954   1.449   3.962   7.571  1.0670 -0.4548  0.7639
   54CHL1  H12B 3955   1.593   4.012   7.478  2.1991 -1.7399  0.3937
   54CHL1   C11 3956   1.440   3.889   7.365 -0.1279 -0.0232 -0.6103
   54CHL1  H11A 3957   1.354   3.822   7.383 -0.1559 -0.0198 -0.7274
   54CHL1  H11B 3958   1.400   3.987   7.333 -0.0946  0.0421 -0.4526
   54CHL1    C9 3959   1.527   3.832   7.249  0.0353  0.0510  0.2748
   54CHL1    H9 3960   1.587   3.921   7.220  0.8447 -0.1391  1.3172
   54CHL1   C10 3961   1.449   3.797   7.120 -0.2142  0.2015 -0.0526
   54CHL1   C19 3962   1.331   3.697   7.162 -1.0153 -0.2397 -0.2552
   54CHL1  H19A 3963   1.371   3.620   7.230 -1.0296  0.3770  0.4611
   54CHL1  H19B 3964   1.252   3.763   7.203 -0.1920 -0.3649  1.6132
   54CHL1  H19C 3965   1.294   3.641   7.074  0.5103 -2.3564  0.3696
   54CHL1    C1 3966   1.380   3.930   7.077 -1.5074  0.7349  0.2684
   54CHL1   H1A 3967   1.302   3.956   7.151 -1.9709 -1.3844  0.5982
   54CHL1   H1B 3968   1.458   4.010   7.075 -0.8886  0.2584  2.4701
   54CHL1    C2 3969   1.324   3.924   6.940  0.1106  0.3077 -0.3253
   54CHL1   H2A 3970   1.287   4.025   6.912  3.3551  1.6981 -0.0537
   54CHL1   H2B 3971   1.245   3.846   6.944  0.5751 -0.1212  1.1914
   54CHL1   C20 3972   1.678   3.817   7.807 -0.0892 -0.2585  0.2659
   54CHL1   H20 3973   1.616   3.725   7.818  1.6408 -1.2810  1.9267
   54CHL1   C21 3974   1.596   3.939   7.837  0.2187 -0.2265  0.1664
   54CHL1  H21A 3975   1.495   3.909   7.802  0.7323 -1.7137 -0.1197
   54CHL1  H21B 3976   1.629   4.035   7.792 -0.7634  0.5437  1.0483
   54CHL1  H21C 3977   1.593   3.962   7.946  0.3205 -1.3682  0.4299
   54CHL1   C22 3978   1.802   3.806   7.899 -0.2567 -0.3809  0.5686
   54CHL1  H22A 3979   1.867   3.721   7.870  1.0693  0.8147 -0.0330
   54CHL1  H22B 3980   1.864   3.898   7.892 -0.2483 -0.5344 -2.3692
   54CHL1   C23 3981   1.773   3.772   8.047  0.3874  0.1301  0.0593
   54CHL1  H23A 3982   1.738   3.858   8.107  2.8781  1.4445 -0.2488
   54CHL1  H23B 3983   1.681   3.709   8.042 -0.0525  0.8412 -1.3372
   54CHL1   C24 3984   1.890   3.702   8.112  0.4088  0.8685  0.5537
   54CHL1  H24A 3985   1.866   3.692   8.220 -0.2528  1.1724  0.4466
   54CHL1  H24B 3986   1.908   3.598   8.079 -2.4660  0.2558  0.6270
   54CHL1   C25 3987   2.030   3.766   8.115  0.2559 -0.1470  0.3606
   54CHL1   H25 3988   2.065   3.754   8.010 -2.2522  0.9317 -0.6718
   54CHL1   C26 3989   2.026   3.916   8.148  0.3227 -0.2964 -0.4600
   54CHL1  H26A 3990   1.993   3.942   8.251 -0.3278  2.3503 -1.2647
   54CHL1  H26B 3991   2.127   3.958   8.131 -0.6267  1.9317 -0.9234
   54CHL1  H26C 3992   1.961   3.973   8.078  1.2084  0.3224 -0.7797
   54CHL1   C27 3993   2.130   3.689   8.205  0.0313  0.0539 -0.5388
   54CHL1  H27A 3994   2.121   3.583   8.174  0.1249 -0.1860  0.2287
   54CHL1  H27B 3995   2.234   3.727   8.191  0.7130 -0.9360  1.4591
   54CHL1  H27C 3996   2.104   3.705   8.312 -1.3641  1.1428 -1.0077
   55CHL1    C3 3997   1.739   0.134   6.710 -0.0552 -0.5570  0.8674
   55CHL1    H3 3998   1.839   0.133   6.759 -0.7745 -0.1924  2.4047
   55CHL1    O3 3999   1.746   0.173   6.569 -0.0695  0.1654  0.3137
   55CHL1   H3' 4000   1.808   0.112   6.530  0.1781 -1.0747  2.4681
   55CHL1    C4 4001   1.688  -0.009   6.733 -0.0922 -0.4502  0.3706
   55CHL1   H4A 4002   1.594  -0.026   6.675 -1.1505 -2.3241  2.4461
   55CHL1   H4B 4003   1.760  -0.071   6.677 -1.8381  0.4056 -3.0869
   55CHL1    C5 4004   1.667  -0.059   6.873  0.8034  0.3878 -0.4354
   55CHL1    C6 4005   1.723  -0.166   6.930  0.3373 -0.6189  0.3291
   55CHL1    H6 4006   1.788  -0.232   6.871 -0.6609 -0.7702 -0.6297
   55CHL1    C7 4007   1.694  -0.208   7.073  0.4001  0.5385  0.2543
   55CHL1   H7A 4008   1.688  -0.318   7.083 -0.2171  0.4099 -1.2539
   55CHL1   H7B 4009   1.786  -0.183   7.130 -0.8025  1.1302  2.0290
   55CHL1    C8 4010   1.583  -0.128   7.140 -0.4776  0.1531 -0.2997
   55CHL1    H8 4011   1.481  -0.166   7.116 -0.7038  0.1100  0.6774
   55CHL1   C14 4012   1.602  -0.143   7.289  0.2596  0.4344 -0.1004
   55CHL1   H14 4013   1.697  -0.093   7.317  0.5071 -0.2449  0.3048
   55CHL1   C15 4014   1.603  -0.279   7.343  0.2866 -0.2250 -0.5651
   55CHL1  H15A 4015   1.508  -0.324   7.309 -1.7083  3.0869  0.1514
   55CHL1  H15B 4016   1.686  -0.350   7.323  0.6712  0.5866 -1.9912
   55CHL1   C16 4017   1.590  -0.252   7.495  0.0970 -1.0440  0.2011
   55CHL1  H16A 4018   1.510  -0.321   7.532 -2.2603  0.9533 -0.8939
   55CHL1  H16B 4019   1.689  -0.271   7.543 -0.7111 -2.3721  1.4265
   55CHL1   C17 4020   1.547  -0.104   7.523  0.5087 -0.4395 -0.1855
   55CHL1   H17 4021   1.639  -0.047   7.549 -0.9378  2.2302 -0.5578
   55CHL1   C13 4022   1.498  -0.065   7.382  0.4330 -0.1420  0.2791
   55CHL1   C18 4023   1.355  -0.115   7.363 -0.2193  0.7723  0.6554
   55CHL1  H18A 4024   1.337  -0.220   7.396  0.3282  0.0906 -1.0946
   55CHL1  H18B 4025   1.294  -0.048   7.427 -1.2436  0.9458 -0.4546
   55CHL1  H18C 4026   1.336  -0.110   7.254  3.3031  1.3483 -0.0372
   55CHL1   C12 4027   1.511   0.076   7.352  0.0822  0.8870 -0.2092
   55CHL1  H12A 4028   1.444   0.135   7.419  0.1107 -0.1111  0.7498
   55CHL1  H12B 4029   1.614   0.115   7.366  0.3635  0.9636 -2.2184
   55CHL1   C11 4030   1.492   0.105   7.198 -1.0028  0.7106 -0.4552
   55CHL1  H11A 4031   1.387   0.082   7.169 -2.1793  0.0041  3.6396
   55CHL1  H11B 4032   1.507   0.214   7.182 -1.3270  0.6153 -1.4334
   55CHL1    C9 4033   1.594   0.023   7.111 -0.4848 -1.0947 -0.0756
   55CHL1    H9 4034   1.698   0.049   7.140  0.3846 -2.0563 -2.1028
   55CHL1   C10 4035   1.586   0.042   6.957  0.6613 -0.8926  0.2365
   55CHL1   C19 4036   1.441   0.027   6.919 -0.3585 -0.5335  0.9218
   55CHL1  H19A 4037   1.365   0.104   6.946 -0.9238 -0.9992  0.6824
   55CHL1  H19B 4038   1.436   0.053   6.811 -1.0575 -0.3455  0.9914
   55CHL1  H19C 4039   1.403  -0.075   6.943  3.0493 -1.5213  2.8971
   55CHL1    C1 4040   1.629   0.189   6.938 -0.5835 -0.4057 -0.1072
   55CHL1   H1A 4041   1.580   0.270   6.995  0.3391 -0.2639  0.4904
   55CHL1   H1B 4042   1.734   0.181   6.971 -0.5470 -0.9357 -0.3354
   55CHL1    C2 4043   1.644   0.228   6.784  0.3176 -0.0412 -0.1770
   55CHL1   H2A 4044   1.688   0.330   6.783  2.2856 -0.8000  1.7294
   55CHL1   H2B 4045   1.543   0.228   6.738  0.4507  0.8272 -0.4904
   55CHL1   C20 4046   1.457  -0.089   7.648 -0.1659 -0.0058  0.1490
   55CHL1   H20 4047   1.358  -0.136   7.627  0.1258 -1.0611  1.0407
   55CHL1   C21 4048   1.438   0.063   7.670 -0.3232  0.1730 -0.1004
   55CHL1  H21A 4049   1.390   0.069   7.769  0.8778  0.6150  0.4750
   55CHL1  H21B 4050   1.371   0.113   7.597  1.0258 -1.1269 -2.3551
   55CHL1  H21C 4051   1.534   0.117   7.688 -1.4723  2.4106 -0.3310
   55CHL1   C22 4052   1.520  -0.151   7.770 -0.1867  0.3046 -1.0646
   55CHL1  H22A 4053   1.551  -0.257   7.755 -0.6936  0.0358 -0.2678
   55CHL1  H22B 4054   1.613  -0.098   7.800  0.5512 -1.2447 -0.5381
   55CHL1   C23 4055   1.428  -0.154   7.897  0.1708 -0.1837  0.3718
   55CHL1  H23A 4056   1.441  -0.056   7.947  1.4728 -2.4577  5.0722
   55CHL1  H23B 4057   1.333  -0.183   7.847  0.7309  0.5917 -1.1813
   55CHL1   C24 4058   1.467  -0.267   7.993  0.4512  0.5544 -0.3471
   55CHL1  H24A 4059   1.392  -0.280   8.074  0.1404 -1.0586 -0.8710
   55CHL1  H24B 4060   1.451  -0.363   7.940 -1.3729 -0.0071  1.1101
   55CHL1   C25 4061   1.609  -0.265   8.045 -0.3034 -0.2015  0.7483
   55CHL1   H25 4062   1.678  -0.239   7.962  2.5263 -0.2098  2.9403
   55CHL1   C26 4063   1.634  -0.163   8.154  0.2675 -0.1839 -0.4765
   55CHL1  H26A 4064   1.590  -0.064   8.132 -0.6384 -0.3865  0.3655
   55CHL1  H26B 4065   1.570  -0.198   8.237  1.8196  0.5054  1.0715
   55CHL1  H26C 4066   1.740  -0.153   8.187  0.5639 -0.9736 -1.1420
   55CHL1   C27 4067   1.647  -0.404   8.098  0.4409 -0.5235  0.2065
   55CHL1  H27A 4068   1.575  -0.439   8.175  2.5609  0.0439  2.5917
   55CHL1  H27B 4069   1.666  -0.482   8.022  1.3004  0.2575 -0.3946
   55CHL1  H27C 4070   1.743  -0.393   8.155 -0.0520  2.3760  0.6455
   56CHL1    C3 4071   2.115   2.231   6.616 -0.0162 -0.7102  0.2580
   56CHL1    H3 4072   2.121   2.123   6.642  0.9426 -0.4974  0.9604
   56CHL1    O3 4073   2.123   2.258   6.472  0.0518  0.6400 -0.0794
   56CHL1   H3' 4074   2.206   2.221   6.441 -0.1212  0.6809 -0.6165
   56CHL1    C4 4075   1.987   2.293   6.663 -0.1961 -0.2865 -0.1938
   56CHL1   H4A 4076   1.985   2.397   6.624 -1.3765  0.6999  2.2918
   56CHL1   H4B 4077   1.910   2.229   6.616 -0.6236 -0.7524  1.0945
   56CHL1    C5 4078   1.984   2.278   6.812  0.7385 -0.3299  0.2853
   56CHL1    C6 4079   1.880   2.221   6.872  0.6516  0.0652 -0.1801
   56CHL1    H6 4080   1.792   2.186   6.816 -0.6045  1.0469  1.0892
   56CHL1    C7 4081   1.869   2.199   7.022 -0.4345  0.1237  0.6786
   56CHL1   H7A 4082   1.765   2.221   7.056 -0.2399  2.4740 -0.0724
   56CHL1   H7B 4083   1.903   2.098   7.053 -0.2782 -0.2445 -0.6194
   56CHL1    C8 4084   1.961   2.299   7.100 -0.2557  0.7347 -0.2631
   56CHL1    H8 4085   1.917   2.401   7.088 -0.3769  0.7557  0.3427
   56CHL1   C14 4086   1.969   2.274   7.249 -0.5999  0.3094 -0.1375
   56CHL1   H14 4087   2.024   2.179   7.268  1.1386  1.6737  2.1715
   56CHL1   C15 4088   1.839   2.259   7.323 -0.5253 -0.9850 -0.2408
   56CHL1  H15A 4089   1.756   2.323   7.286 -1.7591 -2.0772  0.5769
   56CHL1  H15B 4090   1.810   2.153   7.310  0.3063 -1.1175 -1.1658
   56CHL1   C16 4091   1.875   2.297   7.466  0.5742  0.5131 -0.1442
   56CHL1  H16A 4092   1.808   2.381   7.497  0.2440 -0.3410  1.6151
   56CHL1  H16B 4093   1.859   2.217   7.542  4.8517 -2.1071 -1.6834
   56CHL1   C17 4094   2.023   2.336   7.474 -0.6532 -0.8125  0.1545
   56CHL1   H17 4095   2.078   2.244   7.502  1.1794  0.5910  1.4185
   56CHL1   C13 4096   2.054   2.377   7.324 -0.0235 -0.5909  0.3146
   56CHL1   C18 4097   2.001   2.523   7.300 -0.2656  0.5162  0.3367
   56CHL1  H18A 4098   1.894   2.514   7.329  0.1371 -2.3017  1.2410
   56CHL1  H18B 4099   2.047   2.600   7.366 -1.8405  0.1148  1.9789
   56CHL1  H18C 4100   2.007   2.553   7.193  0.1671  1.5836  0.6524
   56CHL1   C12 4101   2.197   2.358   7.274  0.2336 -0.9912  0.7346
   56CHL1  H12A 4102   2.273   2.430   7.310 -0.5606 -0.3163  1.0893
   56CHL1  H12B 4103   2.233   2.254   7.289  2.7686 -0.2346  0.4427
   56CHL1   C11 4104   2.204   2.384   7.122 -0.1166  0.4078  0.1493
   56CHL1  H11A 4105   2.177   2.490   7.102 -1.8582 -0.2050 -0.9134
   56CHL1  H11B 4106   2.309   2.367   7.088  0.0965  0.3709  0.8100
   56CHL1    C9 4107   2.103   2.305   7.038  0.1027 -0.6125 -0.3573
   56CHL1    H9 4108   2.126   2.197   7.027  1.8230 -0.0761 -2.9299
   56CHL1   C10 4109   2.098   2.344   6.892 -0.2985  0.0713  0.2598
   56CHL1   C19 4110   2.096   2.500   6.876 -0.0129  0.3748 -0.1263
   56CHL1  H19A 4111   2.184   2.557   6.912 -0.6377  0.8805  0.6323
   56CHL1  H19B 4112   2.069   2.522   6.771 -0.7391 -0.3763 -0.1109
   56CHL1  H19C 4113   2.011   2.548   6.930  0.8661  0.8089  0.8982
   56CHL1    C1 4114   2.233   2.282   6.835  0.2490 -0.4741 -0.2272
   56CHL1   H1A 4115   2.318   2.331   6.886  0.2935  1.9774 -2.4658
   56CHL1   H1B 4116   2.238   2.172   6.851  0.1913 -0.2379  1.5776
   56CHL1    C2 4117   2.248   2.297   6.681  0.5003  0.2996  0.7043
   56CHL1   H2A 4118   2.332   2.229   6.656 -0.0594  0.3255 -1.4540
   56CHL1   H2B 4119   2.262   2.404   6.655  2.7949 -0.1376 -0.0645
   56CHL1   C20 4120   2.053   2.440   7.585 -0.2868 -0.0011  0.5648
   56CHL1   H20 4121   2.017   2.540   7.552  0.5131  0.3185  0.6344
   56CHL1   C21 4122   2.204   2.446   7.599 -0.1690 -0.2893 -0.3977
   56CHL1  H21A 4123   2.252   2.346   7.600  3.2079  1.1807 -0.3754
   56CHL1  H21B 4124   2.248   2.500   7.686  0.9296 -1.0982 -0.4159
   56CHL1  H21C 4125   2.245   2.509   7.517  1.0689  1.1458  1.2476
   56CHL1   C22 4126   1.995   2.413   7.728  0.2289  0.4371  0.5065
   56CHL1  H22A 4127   2.047   2.469   7.808 -0.1267 -1.2895  2.0212
   56CHL1  H22B 4128   1.886   2.434   7.730 -0.4396 -2.2457 -1.8354
   56CHL1   C23 4129   2.020   2.268   7.772  0.6439  0.0310  0.0027
   56CHL1  H23A 4130   1.961   2.199   7.708  0.1068 -2.1487  2.6200
   56CHL1  H23B 4131   2.126   2.236   7.765  0.5509 -0.0396 -1.3754
   56CHL1   C24 4132   1.941   2.239   7.898 -0.0010  0.1248 -0.3087
   56CHL1  H24A 4133   1.841   2.284   7.881  0.3933  1.1800  0.0641
   56CHL1  H24B 4134   1.921   2.131   7.917 -2.8529  0.7311  0.6499
   56CHL1   C25 4135   2.013   2.281   8.027 -0.6733  0.4116 -0.0740
   56CHL1   H25 4136   2.019   2.392   8.037  0.3204  0.1772  3.2880
   56CHL1   C26 4137   1.963   2.223   8.164  0.0195 -0.5650 -0.4760
   56CHL1  H26A 4138   2.023   2.275   8.241  0.5545  0.3486 -1.4880
   56CHL1  H26B 4139   1.968   2.112   8.156  3.2107 -0.3845 -2.4669
   56CHL1  H26C 4140   1.857   2.257   8.170  0.3946  0.6340 -0.4848
   56CHL1   C27 4141   2.167   2.235   8.018  0.1883 -0.2554  0.4031
   56CHL1  H27A 4142   2.167   2.126   7.994  1.3879 -0.0412 -0.6872
   56CHL1  H27B 4143   2.217   2.279   7.929 -1.0265  1.8962  0.7094
   56CHL1  H27C 4144   2.217   2.263   8.113 -0.4275 -0.7411  0.8806
   57SAPC     N 4145   0.350   5.061  11.037 -0.3887  0.2309  0.7260
   57SAPC   C12 4146   0.428   5.131  10.930  0.0969 -0.1074  0.0000
   57SAPC  H12A 4147   0.479   5.047  10.885 -1.6677 -2.1528  1.6179
   57SAPC  H12B 4148   0.502   5.197  10.973  1.8167 -1.6165 -0.4931
   57SAPC   C13 4149   0.250   4.967  10.974 -0.2327 -0.6697  0.3095
   57SAPC  H13A 4150   0.291   4.913  10.890 -0.6592  0.0770 -0.3976
   57SAPC  H13B 4151   0.200   4.896  11.039 -1.2131 -0.4831 -0.2154
   57SAPC  H13C 4152   0.174   5.029  10.929  2.4060  2.2267 -0.4657
   57SAPC   C14 4153   0.447   4.987  11.127  0.7478 -0.6593 -0.1598
   57SAPC  H14A 4154   0.528   5.047  11.166  0.1931 -0.1983  0.2885
   57SAPC  H14B 4155   0.381   4.940  11.198  0.3203  1.3764  0.8459
   57SAPC  H14C 4156   0.493   4.906  11.073 -0.4467 -0.4967 -1.4840
   57SAPC   C15 4157   0.272   5.155  11.117  0.9469 -0.6274 -0.7277
   57SAPC  H15A 4158   0.348   5.227  11.147 -1.7313  2.1000  0.0046
   57SAPC  H15B 4159   0.191   5.204  11.065 -0.5440 -1.9394  0.2678
   57SAPC  H15C 4160   0.234   5.109  11.207 -1.6286  1.5945 -0.5680
   57SAPC   C11 4161   0.357   5.215  10.829 -0.2253  0.5316  0.3889
   57SAPC  H11A 4162   0.316   5.152  10.748  0.4651  1.5821 -0.8145
   57SAPC  H11B 4163   0.423   5.285  10.773 -3.1095  2.3757 -0.9249
   57SAPC     P 4164   0.120   5.334  10.826  0.2390 -0.1261  0.1347
   57SAPC   O13 4165   0.017   5.247  10.892  0.1347  0.0227  0.2127
   57SAPC   O14 4166   0.094   5.483  10.842  0.4204  0.0295 -0.3869
   57SAPC   O12 4167   0.265   5.306  10.886 -0.4082  0.5161  0.5975
   57SAPC   O11 4168   0.133   5.306  10.677  0.0901  0.1622  0.5243
   57SAPC    C1 4169   0.196   5.394  10.591  0.0011 -0.1413  0.3103
   57SAPC    HA 4170   0.121   5.467  10.553 -0.5584 -0.5900  0.5267
   57SAPC    HB 4171   0.279   5.457  10.628  0.5862  0.9606 -2.6078
   57SAPC    C2 4172   0.242   5.328  10.457 -0.4935 -0.6675 -0.2606
   57SAPC    HS 4173   0.257   5.411  10.384  0.6873 -1.4881 -0.9897
   57SAPC   O21 4174   0.141   5.239  10.409  0.1024  0.1492 -0.2464
   57SAPC   C21 4175   0.042   5.303  10.344  0.7047  0.0044  0.3180
   57SAPC   O22 4176   0.037   5.423  10.325  0.4324 -0.0333  0.3595
   57SAPC   C22 4177  -0.049   5.195  10.280 -0.2073 -0.5255  0.2358
   57SAPC   H2R 4178   0.006   5.132  10.206 -0.2561 -0.5400  0.2119
   57SAPC   H2S 4179  -0.082   5.125  10.359  0.6681  0.5275  1.5787
   57SAPC    C3 4180   0.375   5.255  10.476  0.1889  0.1980 -0.0875
   57SAPC    HX 4181   0.362   5.153  10.517  1.3810  1.0728  2.6706
   57SAPC    HY 4182   0.433   5.308  10.554 -0.3724  0.0869  0.4129
   57SAPC   O31 4183   0.454   5.258  10.356  0.1634 -0.2620  0.2360
   57SAPC   C31 4184   0.509   5.138  10.316 -0.3548 -0.1665 -0.2274
   57SAPC   O32 4185   0.522   5.038  10.389  0.2773 -0.6591  0.1101
   57SAPC   C32 4186   0.551   5.141  10.170 -0.0650  0.1523 -0.3934
   57SAPC   H2X 4187   0.620   5.056  10.157 -0.3980 -0.1936  0.0793
   57SAPC   H2Y 4188   0.615   5.229  10.149  0.9341 -0.0590  1.5273
   57SAPC   C23 4189  -0.166   5.266  10.203  0.0109 -0.1112 -1.0333
   57SAPC   H3R 4190  -0.226   5.334  10.267 -0.1152 -0.6233 -0.6014
   57SAPC   H3S 4191  -0.236   5.182  10.183  1.3239 -1.2123 -1.1262
   57SAPC   C24 4192  -0.121   5.339  10.073  0.3588  0.1179 -0.0268
   57SAPC   H4R 4193  -0.064   5.428  10.105 -0.5932  0.8544 -0.3173
   57SAPC   H4S 4194  -0.212   5.384  10.027 -0.2536  0.0270  1.0510
   57SAPC   C25 4195  -0.036   5.261   9.978  0.5112  0.2473 -0.4411
   57SAPC   H5R 4196  -0.062   5.155   9.989  0.2145  0.3056 -0.5863
   57SAPC   C26 4197   0.065   5.300   9.897  0.3713  0.0652  0.1849
   57SAPC   H6R 4198   0.124   5.226   9.842  1.2717 -0.4126  1.7277
   57SAPC   C27 4199   0.101   5.448   9.896 -0.2600  0.7177 -0.0197
   57SAPC   H7R 4200   0.211   5.460   9.886 -0.2266  0.1153 -0.4911
   57SAPC   H7S 4201   0.084   5.496   9.994  1.5020 -2.8699  2.2810
   57SAPC   C28 4202   0.016   5.497   9.782  0.8456 -0.2332  0.3688
   57SAPC   H8R 4203  -0.069   5.560   9.813  1.1537 -0.0136  0.7821
   57SAPC   C29 4204   0.039   5.483   9.653  0.0219  0.1744  0.1713
   57SAPC   H9R 4205  -0.035   5.515   9.578  0.0625  1.7982  0.7992
   57SAPC  C210 4206   0.152   5.400   9.599  0.5004  0.5344  0.0661
   57SAPC  H10R 4207   0.231   5.356   9.665 -0.2579 -2.9801 -1.1548
   57SAPC  H10S 4208   0.214   5.453   9.524  3.3840 -0.2737  1.6828
   57SAPC  C211 4209   0.093   5.280   9.529  0.0828 -0.0393  0.6264
   57SAPC  H11R 4210   0.083   5.191   9.593  0.8008 -0.2926  0.3995
   57SAPC  C212 4211   0.061   5.266   9.399 -1.1002 -0.9618  0.4790
   57SAPC  H12R 4212   0.037   5.166   9.359  0.1703 -0.8640 -0.5893
   57SAPC  C213 4213   0.072   5.375   9.295 -0.1498 -0.1344 -0.2265
   57SAPC  H13R 4214   0.078   5.477   9.338 -1.2579  0.8093 -2.1406
   57SAPC  H13S 4215  -0.020   5.375   9.233 -1.1213  1.9410  1.1125
   57SAPC  C214 4216   0.197   5.342   9.214 -0.2330 -0.1119  0.0913
   57SAPC  H14R 4217   0.289   5.321   9.270  2.0311 -0.1715 -3.4129
   57SAPC  C215 4218   0.210   5.305   9.087  0.7937  0.6578  0.5531
   57SAPC  H15R 4219   0.309   5.280   9.045  0.0243 -1.2404 -0.2156
   57SAPC  C216 4220   0.100   5.295   8.982  0.4719  0.0908  0.1878
   57SAPC  H16R 4221   0.091   5.395   8.934 -4.9316  1.0149  2.3817
   57SAPC  H16S 4222   0.012   5.270   9.044  2.4671 -2.2912  2.2594
   57SAPC  C217 4223   0.128   5.198   8.865  0.3070 -0.5466 -0.5202
   57SAPC  H17R 4224   0.158   5.098   8.904 -1.5347  0.0548  2.8155
   57SAPC  H17S 4225   0.211   5.236   8.803  0.0939 -0.2496 -0.6256
   57SAPC  C218 4226   0.006   5.178   8.778  0.3088  1.1558 -0.0233
   57SAPC  H18R 4227  -0.031   5.275   8.740  1.2951  1.8502  0.7528
   57SAPC  H18S 4228  -0.069   5.138   8.851  1.1995 -0.6956 -0.0704
   57SAPC  C219 4229   0.028   5.090   8.661 -0.4964 -0.6467  0.4636
   57SAPC  H19R 4230  -0.063   5.054   8.609  0.5491  0.3802 -2.2395
   57SAPC  H19S 4231   0.088   4.998   8.679  0.9845 -0.0926 -1.2991
   57SAPC  C220 4232   0.108   5.159   8.554 -0.7052 -0.7399 -0.3358
   57SAPC  H20R 4233   0.086   5.268   8.557 -2.4373 -1.0734  2.0901
   57SAPC  H20S 4234   0.098   5.116   8.452 -1.9999 -1.6860  0.1616
   57SAPC  H20T 4235   0.214   5.148   8.586 -1.3764 -0.8223  2.0787
   57SAPC   C33 4236   0.441   5.139  10.066 -0.0107  0.2958  0.8517
   57SAPC   H3X 4237   0.395   5.239  10.052 -2.1697 -0.8743 -1.2740
   57SAPC   H3Y 4238   0.350   5.084  10.097 -0.6843 -0.0254 -1.5378
   57SAPC   C34 4239   0.487   5.076   9.934  0.0376  0.2793 -0.0281
   57SAPC   H4X 4240   0.527   4.976   9.963  0.8824  0.3788 -0.8120
   57SAPC   H4Y 4241   0.573   5.131   9.890  1.3404 -1.5239  0.1636
   57SAPC   C35 4242   0.378   5.051   9.829  0.6869 -0.3720  0.1710
   57SAPC   H5X 4243   0.365   5.155   9.793  1.0471  1.0033  3.6076
   57SAPC   H5Y 4244   0.283   5.013   9.874  0.2504  0.2702 -0.1971
   57SAPC   C36 4245   0.420   4.965   9.714 -0.0881  0.4903  0.1249
   57SAPC   H6X 4246   0.421   4.857   9.740  0.4916  0.3113 -0.6281
   57SAPC   H6Y 4247   0.525   4.992   9.686  0.6704  0.3362  2.5547
   57SAPC   C37 4248   0.329   4.981   9.590 -0.1560  0.6551 -0.2448
   57SAPC   H7X 4249   0.340   5.086   9.556 -1.8694  0.4697 -1.5232
   57SAPC   H7Y 4250   0.221   4.957   9.597 -0.0108 -2.3849 -4.3094
   57SAPC   C38 4251   0.372   4.896   9.460 -0.3672  0.2468 -0.6678
   57SAPC   H8X 4252   0.363   4.790   9.493 -0.5211  0.7228  0.8890
   57SAPC   H8Y 4253   0.480   4.902   9.438 -0.1999 -1.7115 -0.5720
   57SAPC   C39 4254   0.305   4.935   9.330  0.6924 -0.8167 -0.4321
   57SAPC   H9X 4255   0.269   5.040   9.341 -0.1234 -1.1886  0.6363
   57SAPC   H9Y 4256   0.211   4.878   9.319  0.7641 -0.9879 -0.1655
   57SAPC  C310 4257   0.388   4.917   9.201  0.2526 -0.2336  0.1107
   57SAPC  H10X 4258   0.427   4.813   9.201 -1.0794 -0.7738 -1.6398
   57SAPC  H10Y 4259   0.472   4.989   9.208 -0.4213  0.4168  2.1217
   57SAPC  C311 4260   0.295   4.936   9.080  0.0234 -0.0154  0.0363
   57SAPC  H11X 4261   0.237   5.030   9.091  0.1328  0.0500  0.0480
   57SAPC  H11Y 4262   0.228   4.850   9.103 -0.2940  0.4947  1.0887
   57SAPC  C312 4263   0.363   4.906   8.948 -0.0312 -0.5759  0.4911
   57SAPC  H12X 4264   0.455   4.968   8.941  0.3928 -1.3562 -1.9680
   57SAPC  H12Y 4265   0.288   4.917   8.867 -1.0486  0.5890  1.5505
   57SAPC  C313 4266   0.417   4.763   8.927  0.2873 -0.3470  0.1718
   57SAPC  H13X 4267   0.348   4.679   8.952  0.1845 -0.6382 -1.0477
   57SAPC  H13Y 4268   0.511   4.739   8.982 -0.0400 -0.4511  0.6914
   57SAPC  C314 4269   0.444   4.744   8.774 -0.5228  0.4056 -1.0372
   57SAPC  H14X 4270   0.349   4.738   8.716 -1.2899  1.1025  0.1120
   57SAPC  H14Y 4271   0.496   4.647   8.757 -0.7641 -0.0061  0.4766
   57SAPC  C315 4272   0.537   4.850   8.717 -0.0842  0.5334 -0.6583
   57SAPC  H15X 4273   0.634   4.856   8.771  0.4244  3.9952 -1.6830
   57SAPC  H15Y 4274   0.493   4.951   8.734  2.3175  1.2172  2.6199
   57SAPC  C316 4275   0.578   4.839   8.567 -0.0029  0.0256 -0.4006
   57SAPC  H16X 4276   0.493   4.856   8.497 -3.2752 -4.6097  1.9157
   57SAPC  H16Y 4277   0.602   4.734   8.542 -0.3255  0.5357 -3.1668
   57SAPC  C317 4278   0.691   4.939   8.521  1.1843  0.4211  0.2275
   57SAPC  H17X 4279   0.772   4.933   8.597  0.0899  1.1141  1.4902
   57SAPC  H17Y 4280   0.653   5.044   8.531 -1.0559 -0.4063  1.2606
   57SAPC  C318 4281   0.740   4.926   8.377 -0.5181  0.9953 -0.4633
   57SAPC  H18X 4282   0.676   4.987   8.310 -0.3120  0.8326 -0.8131
   57SAPC  H18Y 4283   0.724   4.820   8.347  0.0721  1.2165 -1.6108
   57SAPC  H18Z 4284   0.847   4.956   8.373  0.4608 -1.4610  2.5999
   58SAPC     N 4285   1.463   4.073  10.788 -0.7145  0.6056 -0.1472
   58SAPC   C12 4286   1.426   4.138  10.650 -0.8349  0.8700 -0.2196
   58SAPC  H12A 4287   1.329   4.184  10.656 -0.2128  2.2357 -0.2844
   58SAPC  H12B 4288   1.423   4.060  10.576  2.0366 -0.7720  1.2194
   58SAPC   C13 4289   1.605   4.026  10.780 -0.4393  0.5674  0.0578
   58SAPC  H13A 4290   1.662   4.042  10.870 -0.9152  0.7177  0.3395
   58SAPC  H13B 4291   1.622   3.923  10.755  3.7862  1.4338 -1.4097
   58SAPC  H13C 4292   1.661   4.084  10.708  0.5560 -1.3916 -0.8301
   58SAPC   C14 4293   1.449   4.168  10.897  0.3080 -0.2345  0.2953
   58SAPC  H14A 4294   1.467   4.124  10.994  0.4262  0.3257  0.5350
   58SAPC  H14B 4295   1.513   4.254  10.884 -1.3908  0.9764 -0.4339
   58SAPC  H14C 4296   1.349   4.204  10.917  0.8471  2.1041 -0.7946
   58SAPC   C15 4297   1.380   3.951  10.812  0.2340  0.2761  0.3898
   58SAPC  H15A 4298   1.277   3.983  10.825  0.4791  1.1607  0.2126
   58SAPC  H15B 4299   1.393   3.884  10.728  0.1803  0.7036  0.0344
   58SAPC  H15C 4300   1.402   3.898  10.903 -1.4372  1.5938  1.6388
   58SAPC   C11 4301   1.517   4.258  10.608  0.3049  0.0493 -0.3336
   58SAPC  H11A 4302   1.546   4.323  10.693  1.6468 -0.1362 -0.6326
   58SAPC  H11B 4303   1.454   4.314  10.537 -0.5979 -2.2123 -1.4222
   58SAPC     P 4304   1.631   4.141  10.411 -0.2604  0.1550  0.1472
   58SAPC   O13 4305   1.758   4.145  10.338  0.3023 -0.1331 -0.2464
   58SAPC   O14 4306   1.562   4.012  10.423  0.0562 -0.3978 -0.0290
   58SAPC   O12 4307   1.632   4.203  10.558  0.0802  0.0743 -0.1861
   58SAPC   O11 4308   1.533   4.237  10.327  0.0572 -0.3973  0.0376
   58SAPC    C1 4309   1.564   4.373  10.292 -0.3216 -0.4578  0.4076
   58SAPC    HA 4310   1.477   4.440  10.307 -0.6468 -0.4019 -1.5293
   58SAPC    HB 4311   1.642   4.421  10.355  0.5462 -0.6268 -0.5046
   58SAPC    C2 4312   1.597   4.375  10.137 -0.0628 -0.0372  0.0138
   58SAPC    HS 4313   1.645   4.472  10.115  1.1098 -0.4075  0.7926
   58SAPC   O21 4314   1.478   4.358  10.059 -0.2926  0.3323  0.2880
   58SAPC   C21 4315   1.392   4.459  10.063  0.0577 -0.1653  0.0739
   58SAPC   O22 4316   1.405   4.562  10.124  0.0806 -0.3097 -0.0714
   58SAPC   C22 4317   1.276   4.428   9.966  0.4190  0.1705  0.5281
   58SAPC   H2R 4318   1.267   4.321   9.939 -2.3357  0.3871  0.3448
   58SAPC   H2S 4319   1.181   4.454  10.016  0.7692  1.3813  0.6047
   58SAPC    C3 4320   1.707   4.278  10.086 -0.2362  0.5668  0.6939
   58SAPC    HX 4321   1.666   4.178  10.114 -0.7795  1.0823  1.8302
   58SAPC    HY 4322   1.802   4.299  10.139  0.2359  2.3034 -0.7802
   58SAPC   O31 4323   1.715   4.282   9.944  0.4290  0.5171 -1.2459
   58SAPC   C31 4324   1.787   4.187   9.898 -0.7969 -0.3798  0.8156
   58SAPC   O32 4325   1.859   4.113   9.963 -0.2580  0.4612 -0.1378
   58SAPC   C32 4326   1.790   4.196   9.745  0.0406  0.4700 -0.3784
   58SAPC   H2X 4327   1.821   4.301   9.722 -1.6811  1.1722  0.3041
   58SAPC   H2Y 4328   1.687   4.182   9.705 -0.0764  1.7304 -0.5613
   58SAPC   C23 4329   1.286   4.503   9.829  0.3723 -0.2501 -0.4190
   58SAPC   H3R 4330   1.309   4.609   9.852  2.2133 -0.5234 -0.8564
   58SAPC   H3S 4331   1.187   4.498   9.778  1.0214 -0.2345 -1.7192
   58SAPC   C24 4332   1.392   4.452   9.732  0.2722  0.3172  0.7349
   58SAPC   H4R 4333   1.375   4.346   9.704  0.1947  0.2466  1.0445
   58SAPC   H4S 4334   1.490   4.454   9.784  0.5576  0.2973  0.1983
   58SAPC   C25 4335   1.387   4.543   9.613 -0.3008 -0.5154 -0.0429
   58SAPC   H5R 4336   1.418   4.646   9.637 -0.1547 -0.5652 -0.0141
   58SAPC   C26 4337   1.346   4.522   9.486  0.8790  0.2528 -0.3209
   58SAPC   H6R 4338   1.336   4.604   9.414 -1.6185 -0.4165 -0.8435
   58SAPC   C27 4339   1.289   4.390   9.431 -0.3927 -0.1166  0.3768
   58SAPC   H7R 4340   1.222   4.417   9.347 -0.1200  0.8394  0.4532
   58SAPC   H7S 4341   1.222   4.338   9.503 -1.0262  1.0735  0.6711
   58SAPC   C28 4342   1.395   4.289   9.402  0.5127  0.6885 -0.1531
   58SAPC   H8R 4343   1.428   4.222   9.483  1.1380  0.4874 -0.5681
   58SAPC   C29 4344   1.450   4.267   9.283 -0.4257  0.0296  0.7750
   58SAPC   H9R 4345   1.533   4.195   9.273 -0.3454 -0.6395  4.6992
   58SAPC  C210 4346   1.409   4.345   9.155 -0.2889  0.7112  0.2360
   58SAPC  H10R 4347   1.446   4.449   9.140 -0.8065  0.8219 -0.3040
   58SAPC  H10S 4348   1.299   4.360   9.149 -0.1516  1.6619 -0.1012
   58SAPC  C211 4349   1.459   4.271   9.033  0.3849 -0.2361 -0.2900
   58SAPC  H11R 4350   1.568   4.254   9.040  0.4786  0.7809  1.2341
   58SAPC  C212 4351   1.397   4.197   8.939  0.5580 -0.1524  1.0332
   58SAPC  H12R 4352   1.470   4.159   8.867  0.1768  2.7640 -1.0850
   58SAPC  C213 4353   1.248   4.186   8.909 -0.2256 -0.1364 -0.6688
   58SAPC  H13R 4354   1.184   4.178   9.000  1.4490 -0.9034  0.5028
   58SAPC  H13S 4355   1.221   4.088   8.864 -2.0083  0.4928 -1.0494
   58SAPC  C214 4356   1.187   4.302   8.828 -0.0527  0.0304 -1.0815
   58SAPC  H14R 4357   1.227   4.402   8.854 -0.2875  0.0842 -0.9256
   58SAPC  C215 4358   1.093   4.291   8.741 -0.3262 -0.3088  0.1834
   58SAPC  H15R 4359   1.055   4.381   8.691  2.0395  0.3647 -0.5103
   58SAPC  C216 4360   1.011   4.174   8.694 -0.4776 -0.0076  0.0088
   58SAPC  H16R 4361   1.006   4.097   8.774  0.3422  3.3519  3.6078
   58SAPC  H16S 4362   1.072   4.132   8.612 -1.2532  1.5011 -1.3982
   58SAPC  C217 4363   0.871   4.218   8.635 -0.2193  1.1660  0.9902
   58SAPC  H17R 4364   0.854   4.158   8.542 -0.5999  1.8685  0.5959
   58SAPC  H17S 4365   0.865   4.324   8.602  3.0392  1.1913  0.1683
   58SAPC  C218 4366   0.750   4.179   8.726  0.0704 -0.1066  0.5194
   58SAPC  H18R 4367   0.757   4.217   8.830  0.0432  1.4266 -0.0067
   58SAPC  H18S 4368   0.760   4.068   8.727  2.7087  0.0360 -0.5722
   58SAPC  C219 4369   0.613   4.228   8.674  0.7662 -0.7382 -0.2483
   58SAPC  H19R 4370   0.528   4.179   8.726 -0.7874  1.1530 -0.9051
   58SAPC  H19S 4371   0.605   4.197   8.568  0.7418 -0.9510 -0.1855
   58SAPC  C220 4372   0.595   4.380   8.682  0.3714  0.5459 -0.2111
   58SAPC  H20R 4373   0.607   4.416   8.786  1.1325 -0.1133 -0.0670
   58SAPC  H20S 4374   0.493   4.406   8.644  0.6146  1.3576 -0.3239
   58SAPC  H20T 4375   0.667   4.430   8.613  0.1298  0.2105 -0.7165
   58SAPC   C33 4376   1.867   4.078   9.682 -0.6016 -0.2782  0.0596
   58SAPC   H3X 4377   1.839   3.977   9.720  0.9946 -1.1221 -0.8839
   58SAPC   H3Y 4378   1.976   4.088   9.701 -0.8816 -0.5562  2.0158
   58SAPC   C34 4379   1.859   4.076   9.528 -0.2792  0.3475 -0.2248
   58SAPC   H4X 4380   1.909   4.162   9.479  0.5174 -0.9354 -1.7738
   58SAPC   H4Y 4381   1.754   4.070   9.490  0.2004 -0.4316 -1.4884
   58SAPC   C35 4382   1.937   3.955   9.472  0.5041 -0.0417 -0.1698
   58SAPC   H5X 4383   1.888   3.859   9.498 -1.0258  0.1318 -2.1048
   58SAPC   H5Y 4384   2.040   3.948   9.511  0.1741  0.9295  0.9450
   58SAPC   C36 4385   1.938   3.953   9.323  0.0147  0.5337  0.1577
   58SAPC   H6X 4386   1.985   4.037   9.269 -0.6258  0.4249 -0.5871
   58SAPC   H6Y 4387   1.837   3.949   9.276  0.2782 -5.3866 -0.6086
   58SAPC   C37 4388   2.017   3.826   9.280  0.4880 -0.3868 -0.2965
   58SAPC   H7X 4389   1.968   3.730   9.306 -0.4491 -0.0513 -0.7832
   58SAPC   H7Y 4390   2.109   3.831   9.342 -0.1013 -1.6393  0.7284
   58SAPC   C38 4391   2.066   3.839   9.134  0.5466 -0.3708  0.7037
   58SAPC   H8X 4392   2.143   3.761   9.118  1.0288  0.4806 -1.4866
   58SAPC   H8Y 4393   2.116   3.937   9.114 -1.5944  0.3089 -1.9474
   58SAPC   C39 4394   1.951   3.806   9.029 -1.3352 -0.4473  0.1398
   58SAPC   H9X 4395   1.882   3.894   9.031 -0.0551  0.5605  1.3990
   58SAPC   H9Y 4396   1.910   3.707   9.057 -0.8564 -0.8950 -0.7051
   58SAPC  C310 4397   2.008   3.802   8.891 -0.0803  0.4520  0.7189
   58SAPC  H10X 4398   2.065   3.707   8.887  0.9136  1.0055 -3.2540
   58SAPC  H10Y 4399   2.079   3.883   8.866  0.9669 -0.2847  1.2578
   58SAPC  C311 4400   1.909   3.811   8.779 -0.2918 -0.2193  0.0642
   58SAPC  H11X 4401   1.865   3.913   8.785  1.3591  0.5758 -0.6669
   58SAPC  H11Y 4402   1.839   3.724   8.776  0.5121 -0.9315  1.2543
   58SAPC  C312 4403   1.974   3.808   8.641  0.7598 -0.6069  0.4083
   58SAPC  H12X 4404   2.033   3.715   8.629  1.2231 -0.1656 -1.0298
   58SAPC  H12Y 4405   2.041   3.897   8.632 -1.2179  0.7541 -2.4191
   58SAPC  C313 4406   1.874   3.797   8.527 -0.1780 -0.1364  0.4647
   58SAPC  H13X 4407   1.825   3.698   8.539 -0.3297 -0.1775 -0.4468
   58SAPC  H13Y 4408   1.918   3.813   8.426  1.0355 -0.0855  0.9865
   58SAPC  C314 4409   1.770   3.907   8.538  0.0450 -0.5669  0.1640
   58SAPC  H14X 4410   1.806   3.998   8.590 -0.4047 -0.0756 -0.3672
   58SAPC  H14Y 4411   1.686   3.864   8.597 -2.1204  0.1563 -2.2338
   58SAPC  C315 4412   1.710   3.958   8.406 -0.7607  0.0670 -0.0617
   58SAPC  H15X 4413   1.669   3.871   8.351  0.2123 -0.2275 -0.3412
   58SAPC  H15Y 4414   1.788   4.006   8.342 -0.0289 -2.6691 -1.3427
   58SAPC  C316 4415   1.607   4.065   8.428 -0.2144 -1.2039 -0.0876
   58SAPC  H16X 4416   1.654   4.144   8.490 -0.6932 -0.1875 -0.9855
   58SAPC  H16Y 4417   1.518   4.021   8.477  0.3961 -0.9449  1.2832
   58SAPC  C317 4418   1.561   4.120   8.291  0.7728  0.2383  0.1595
   58SAPC  H17X 4419   1.638   4.170   8.228  0.0871  0.3272 -0.6275
   58SAPC  H17Y 4420   1.490   4.201   8.318  0.8059  0.1697  0.4546
   58SAPC  C318 4421   1.478   4.029   8.200  0.4073  0.4186 -0.0844
   58SAPC  H18X 4422   1.537   3.946   8.155 -1.2880 -0.2555 -1.1637
   58SAPC  H18Y 4423   1.446   4.089   8.113  1.5759  1.5778  0.2407
   58SAPC  H18Z 4424   1.384   3.990   8.246 -0.1437  2.5906  0.7515
   59SAPC     N 4425   2.851   4.402  10.832 -0.1809 -0.9912 -0.4048
   59SAPC   C12 4426   2.946   4.314  10.741  0.1706  0.2565 -0.9100
   59SAPC  H12A 4427   2.880   4.243  10.694  0.0701  0.8886 -1.7482
   59SAPC  H12B 4428   3.012   4.255  10.802  1.2524  1.2763 -1.0543
   59SAPC   C13 4429   2.780   4.325  10.931 -0.8969  0.2392 -0.3988
   59SAPC  H13A 4430   2.846   4.262  10.988 -1.0338 -0.0035 -0.5057
   59SAPC  H13B 4431   2.725   4.394  10.994 -0.8986  1.4972 -1.7157
   59SAPC  H13C 4432   2.714   4.263  10.871 -1.2903 -0.0880  0.3544
   59SAPC   C14 4433   2.917   4.511  10.910  0.2892  0.4111 -0.6541
   59SAPC  H14A 4434   2.847   4.583  10.950 -2.0328 -1.0219 -1.8823
   59SAPC  H14B 4435   2.964   4.455  10.990 -1.5060 -0.0633  0.1229
   59SAPC  H14C 4436   2.992   4.559  10.848 -0.7377  0.4719 -1.8959
   59SAPC   C15 4437   2.743   4.465  10.745  0.0780  0.0186  0.0371
   59SAPC  H15A 4438   2.783   4.516  10.659 -0.8044 -0.0221 -0.4129
   59SAPC  H15B 4439   2.679   4.386  10.708 -0.1524 -0.5401  1.5627
   59SAPC  H15C 4440   2.689   4.540  10.801 -0.0475  0.4690 -0.6802
   59SAPC   C11 4441   3.028   4.382  10.633  0.0255 -0.4354  0.1046
   59SAPC  H11A 4442   2.965   4.440  10.563  1.8919  0.6638 -0.7589
   59SAPC  H11B 4443   3.076   4.301  10.574 -0.6229 -0.8387  0.1244
   59SAPC     P 4444   3.278   4.455  10.681  0.0840  0.1478  0.0260
   59SAPC   O13 4445   3.337   4.561  10.764  0.0892 -0.2328  0.3819
   59SAPC   O14 4446   3.303   4.316  10.719 -0.3619  0.1003  0.1161
   59SAPC   O12 4447   3.123   4.475  10.688 -0.7657 -0.4989 -0.3868
   59SAPC   O11 4448   3.329   4.481  10.531 -0.1670  0.3244  0.4925
   59SAPC    C1 4449   3.264   4.579  10.453 -0.0555  0.7380  0.3529
   59SAPC    HA 4450   3.165   4.606  10.496  0.7788  1.1844  2.0695
   59SAPC    HB 4451   3.326   4.671  10.455 -1.9608  2.0718  1.2370
   59SAPC    C2 4452   3.253   4.546  10.295 -0.0508 -0.3772 -0.0967
   59SAPC    HS 4453   3.156   4.492  10.288 -0.1470 -0.1276 -0.7596
   59SAPC   O21 4454   3.358   4.453  10.260  0.5382  0.5300 -0.0260
   59SAPC   C21 4455   3.329   4.376  10.159  0.0069  0.3460 -0.9081
   59SAPC   O22 4456   3.217   4.366  10.118 -0.3147 -0.2826  0.4268
   59SAPC   C22 4457   3.466   4.313  10.116  0.5335  0.5454 -0.0691
   59SAPC   H2R 4458   3.550   4.386  10.124  2.5366 -1.4986 -1.3644
   59SAPC   H2S 4459   3.486   4.232  10.189  1.1894  1.8094  1.2057
   59SAPC    C3 4460   3.249   4.674  10.211 -0.6066  1.3376 -0.1450
   59SAPC    HX 4461   3.354   4.710  10.215  0.1821 -0.9012  0.4185
   59SAPC    HY 4462   3.186   4.752  10.261  1.2280  2.1767  0.9843
   59SAPC   O31 4463   3.204   4.664  10.081 -0.0983  0.0726  0.6331
   59SAPC   C31 4464   3.274   4.666   9.968 -0.0999  0.4899  0.2639
   59SAPC   O32 4465   3.398   4.666   9.973 -0.0283 -0.3414  0.3101
   59SAPC   C32 4466   3.186   4.680   9.842  0.6505  0.5039  0.4032
   59SAPC   H2X 4467   3.146   4.783   9.835 -0.6814 -0.0249 -0.0926
   59SAPC   H2Y 4468   3.108   4.601   9.832 -2.2803  3.4198 -1.9612
   59SAPC   C23 4469   3.463   4.246   9.975 -0.4190  1.0340  0.3254
   59SAPC   H3R 4470   3.375   4.178   9.973 -1.1616  1.9713 -0.2935
   59SAPC   H3S 4471   3.562   4.198   9.961 -0.4378  1.2844 -0.8086
   59SAPC   C24 4472   3.427   4.344   9.862  0.0696  0.2580 -0.4945
   59SAPC   H4R 4473   3.502   4.426   9.861  0.6231 -0.2403 -0.7298
   59SAPC   H4S 4474   3.325   4.385   9.874 -0.1365  0.3400 -2.2805
   59SAPC   C25 4475   3.428   4.272   9.731  0.3202  0.0794  0.2418
   59SAPC   H5R 4476   3.370   4.179   9.737 -2.0839  1.3565 -1.4951
   59SAPC   C26 4477   3.478   4.306   9.612  0.4767  0.5793 -0.0622
   59SAPC   H6R 4478   3.459   4.250   9.520 -0.8528 -0.5947  0.8850
   59SAPC   C27 4479   3.562   4.429   9.569 -0.0331 -0.4798  0.1868
   59SAPC   H7R 4480   3.585   4.492   9.658 -2.2105  0.8260 -0.1006
   59SAPC   H7S 4481   3.500   4.493   9.504 -0.8213 -2.0944 -0.6968
   59SAPC   C28 4482   3.706   4.405   9.516 -0.7850 -0.2425  0.1215
   59SAPC   H8R 4483   3.783   4.383   9.592 -2.0749  0.3548  1.6363
   59SAPC   C29 4484   3.739   4.394   9.384  0.4767 -0.5640  0.0028
   59SAPC   H9R 4485   3.842   4.370   9.353  0.0585  0.9930 -2.8986
   59SAPC  C210 4486   3.648   4.393   9.270  0.4921 -0.7795 -0.0134
   59SAPC  H10R 4487   3.587   4.485   9.279 -0.7315 -1.3737 -1.8139
   59SAPC  H10S 4488   3.579   4.306   9.276  1.7464 -1.7673  0.6622
   59SAPC  C211 4489   3.735   4.417   9.148  0.4109 -0.7162 -0.3837
   59SAPC  H11R 4490   3.841   4.392   9.158  0.9655  0.6935 -2.1433
   59SAPC  C212 4491   3.682   4.466   9.035  0.1768 -0.0903 -0.2159
   59SAPC  H12R 4492   3.736   4.498   8.945 -0.6758  4.0428  0.5134
   59SAPC  C213 4493   3.533   4.480   9.016 -0.3002  0.2341  0.2526
   59SAPC  H13R 4494   3.502   4.586   9.033 -0.3959  0.5141 -1.5135
   59SAPC  H13S 4495   3.473   4.417   9.085 -3.0404  0.6237 -1.6289
   59SAPC  C214 4496   3.485   4.439   8.877 -0.4486  0.2618 -0.1693
   59SAPC  H14R 4497   3.538   4.348   8.844  1.9066  1.0908  1.1262
   59SAPC  C215 4498   3.393   4.504   8.798 -0.2705 -0.2084  0.6146
   59SAPC  H15R 4499   3.387   4.455   8.700 -1.2051 -0.0594  0.5934
   59SAPC  C216 4500   3.319   4.637   8.818  0.3051 -0.3150 -0.0452
   59SAPC  H16R 4501   3.357   4.688   8.909  0.1961 -0.9904  0.3875
   59SAPC  H16S 4502   3.212   4.609   8.832  0.4932 -2.0499 -1.6242
   59SAPC  C217 4503   3.337   4.728   8.703  0.3598  0.4990  0.1248
   59SAPC  H17R 4504   3.265   4.812   8.695 -0.0866 -0.0598 -2.5520
   59SAPC  H17S 4505   3.321   4.676   8.607  0.8955  2.1018 -0.8652
   59SAPC  C218 4506   3.468   4.795   8.701 -0.6851  0.6800 -0.1107
   59SAPC  H18R 4507   3.558   4.731   8.685  1.0535  3.0509 -0.4020
   59SAPC  H18S 4508   3.500   4.840   8.797  3.4581 -1.4196 -0.2797
   59SAPC  C219 4509   3.482   4.900   8.588  0.4199 -0.6794 -1.0287
   59SAPC  H19R 4510   3.575   4.959   8.602  1.1644 -2.0502  0.0756
   59SAPC  H19S 4511   3.399   4.968   8.617  2.0380  0.1628  2.1159
   59SAPC  C220 4512   3.463   4.861   8.446 -0.0480 -0.0033  0.7225
   59SAPC  H20R 4513   3.361   4.829   8.418  0.3213 -0.3623 -0.2610
   59SAPC  H20S 4514   3.537   4.787   8.410 -0.2554  1.0185 -2.0441
   59SAPC  H20T 4515   3.474   4.954   8.385  0.2846  0.7067  1.8283
   59SAPC   C33 4516   3.277   4.667   9.715 -0.3619 -0.6547 -0.6243
   59SAPC   H3X 4517   3.315   4.564   9.697  1.1084 -0.0238 -1.2493
   59SAPC   H3Y 4518   3.369   4.729   9.721 -0.9299  0.0570  1.1893
   59SAPC   C34 4519   3.208   4.716   9.587 -0.0643 -0.2877  0.3953
   59SAPC   H4X 4520   3.181   4.822   9.609  0.4821  0.3951 -1.9819
   59SAPC   H4Y 4521   3.121   4.650   9.572 -0.8631  0.7430  0.3821
   59SAPC   C35 4522   3.295   4.718   9.456  1.0502 -0.3893 -0.1312
   59SAPC   H5X 4523   3.332   4.613   9.458  0.2887 -0.6632 -0.1638
   59SAPC   H5Y 4524   3.383   4.786   9.454  1.6525 -1.1543 -0.6009
   59SAPC   C36 4525   3.210   4.733   9.333  0.7123 -0.5356  0.3339
   59SAPC   H6X 4526   3.145   4.822   9.342 -1.3489 -1.4719 -3.2547
   59SAPC   H6Y 4527   3.145   4.645   9.311 -2.4638  1.4869  0.9084
   59SAPC   C37 4528   3.302   4.758   9.207  0.5352  0.4967  0.0246
   59SAPC   H7X 4529   3.277   4.677   9.134 -1.0893 -0.3415  1.4231
   59SAPC   H7Y 4530   3.406   4.737   9.239  0.3768 -0.6648 -0.1535
   59SAPC   C38 4531   3.309   4.903   9.156  0.4782  0.1608 -0.6857
   59SAPC   H8X 4532   3.370   4.959   9.230 -0.9393 -0.1645  0.7816
   59SAPC   H8Y 4533   3.211   4.955   9.160  0.3398 -0.1809  0.7306
   59SAPC   C39 4534   3.360   4.932   9.012 -0.0133 -0.1608 -0.2993
   59SAPC   H9X 4535   3.286   4.888   8.942 -0.0413  0.4600 -0.6682
   59SAPC   H9Y 4536   3.456   4.875   9.011 -0.9855 -1.9095 -2.8828
   59SAPC  C310 4537   3.388   5.085   8.975  0.3631  0.3719  1.1269
   59SAPC  H10X 4538   3.453   5.080   8.886  0.4640 -0.3742  1.2320
   59SAPC  H10Y 4539   3.448   5.123   9.060  1.6346 -0.4677  0.6304
   59SAPC  C311 4540   3.267   5.181   8.947  0.6220 -0.0118  0.1159
   59SAPC  H11X 4541   3.298   5.287   8.935 -0.3033  0.2295 -0.2604
   59SAPC  H11Y 4542   3.195   5.168   9.031  0.2450 -0.5305 -0.2837
   59SAPC  C312 4543   3.195   5.121   8.821 -0.1965 -0.1930 -0.3948
   59SAPC  H12X 4544   3.173   5.012   8.832  1.2915 -0.4008  0.8497
   59SAPC  H12Y 4545   3.278   5.128   8.747  0.4463  2.5214  0.4824
   59SAPC  C313 4546   3.084   5.206   8.754 -0.5862 -0.4406  0.6413
   59SAPC  H13X 4547   3.102   5.315   8.766 -3.1072  0.3320 -1.5064
   59SAPC  H13Y 4548   2.986   5.186   8.804 -2.2584  1.7294 -1.5475
   59SAPC  C314 4549   3.074   5.172   8.595 -0.2007 -0.0475 -0.4491
   59SAPC  H14X 4550   3.070   5.061   8.586  0.7989 -0.0663 -0.8597
   59SAPC  H14Y 4551   3.166   5.204   8.540  0.2675 -1.1380 -0.3423
   59SAPC  C315 4552   2.946   5.238   8.531 -0.4792 -0.3350  0.5207
   59SAPC  H15X 4553   2.972   5.346   8.527  2.0286 -0.8955 -3.1557
   59SAPC  H15Y 4554   2.860   5.216   8.598 -0.1180 -1.7757  0.5322
   59SAPC  C316 4555   2.889   5.188   8.401  0.0324 -0.4693 -0.4230
   59SAPC  H16X 4556   2.790   5.239   8.401  1.4449  2.5724 -1.7135
   59SAPC  H16Y 4557   2.879   5.078   8.403 -1.0116 -0.3800  1.2545
   59SAPC  C317 4558   2.957   5.229   8.274 -0.2607  0.0992  0.4277
   59SAPC  H17X 4559   3.064   5.200   8.282 -1.1886 -3.9393  0.4695
   59SAPC  H17Y 4560   2.969   5.339   8.264  0.8395 -0.0716 -0.3784
   59SAPC  C318 4561   2.890   5.187   8.140  0.0827 -0.5615 -0.4382
   59SAPC  H18X 4562   2.942   5.237   8.056  0.8582 -1.3818 -0.4587
   59SAPC  H18Y 4563   2.779   5.193   8.142  0.1465  0.8635  1.7909
   59SAPC  H18Z 4564   2.914   5.080   8.121 -0.8575 -0.4102 -2.8123
   60SAPC     N 4565   4.156   3.886  10.461 -0.4597  0.3920  0.5052
   60SAPC   C12 4566   4.290   3.801  10.452 -0.2145  0.0797 -0.6213
   60SAPC  H12A 4567   4.290   3.742  10.543 -1.2854  2.9376  1.3571
   60SAPC  H12B 4568   4.369   3.874  10.444 -0.0237 -0.0331  0.1183
   60SAPC   C13 4569   4.036   3.795  10.456  0.3646  0.3516 -0.3089
   60SAPC  H13A 4570   3.944   3.851  10.459  0.9762  1.4020  2.7572
   60SAPC  H13B 4571   4.040   3.739  10.364  1.5299  1.8044 -1.1913
   60SAPC  H13C 4572   4.034   3.726  10.539 -0.0396  0.7424  0.0106
   60SAPC   C14 4573   4.147   3.967  10.587 -1.0216 -0.3800 -0.2951
   60SAPC  H14A 4574   4.174   3.910  10.674 -0.9989  2.7374  1.9312
   60SAPC  H14B 4575   4.226   4.040  10.589 -1.2425 -0.0668  3.5505
   60SAPC  H14C 4576   4.051   4.017  10.588  0.0606  1.8767 -1.0763
   60SAPC   C15 4577   4.130   3.976  10.346 -0.0096  0.3695  0.4565
   60SAPC  H15A 4578   4.108   3.921  10.256  1.4997 -1.8707  1.3758
   60SAPC  H15B 4579   4.040   4.032  10.364 -0.8675 -0.6268 -0.5629
   60SAPC  H15C 4580   4.213   4.044  10.333  1.0126 -1.0290 -0.6652
   60SAPC   C11 4581   4.289   3.704  10.332 -0.1512  0.4057  0.9511
   60SAPC  H11A 4582   4.392   3.669  10.311 -0.9282 -2.1524  0.9629
   60SAPC  H11B 4583   4.245   3.756  10.245  0.2129 -0.6548  0.1139
   60SAPC     P 4584   4.250   3.464  10.440  0.0162  0.4301  0.5681
   60SAPC   O13 4585   4.243   3.510  10.579 -0.2650 -0.0802  0.7049
   60SAPC   O14 4586   4.180   3.336  10.406 -0.1127 -0.2150  0.0007
   60SAPC   O12 4587   4.209   3.588  10.346 -0.1687 -0.2737 -0.3207
   60SAPC   O11 4588   4.400   3.436  10.410 -0.1976 -0.0316  0.2497
   60SAPC    C1 4589   4.454   3.374  10.296  0.1302  0.2620 -0.3386
   60SAPC    HA 4590   4.388   3.402  10.211 -1.9573  0.3647  1.2354
   60SAPC    HB 4591   4.562   3.396  10.285  0.1909 -0.1263 -0.5182
   60SAPC    C2 4592   4.446   3.214  10.309  0.0260  0.1380 -0.0655
   60SAPC    HS 4593   4.336   3.197  10.316 -0.0163  0.9010  1.8395
   60SAPC   O21 4594   4.510   3.166  10.434 -0.2301 -0.3017 -0.1048
   60SAPC   C21 4595   4.450   3.058  10.494  0.1174  0.0868 -0.3932
   60SAPC   O22 4596   4.343   3.006  10.459 -0.0952  0.3838 -0.5052
   60SAPC   C22 4597   4.531   3.009  10.617 -0.1631  0.2554 -0.9205
   60SAPC   H2R 4598   4.568   3.103  10.663  1.3559 -1.4847  1.7006
   60SAPC   H2S 4599   4.452   2.973  10.686 -1.2124  1.1047 -1.6572
   60SAPC    C3 4600   4.500   3.145  10.178  0.2971  0.2060  0.0234
   60SAPC    HX 4601   4.610   3.163  10.176  0.0241  3.0732  2.6322
   60SAPC    HY 4602   4.452   3.206  10.099  1.3417 -0.7600 -1.3868
   60SAPC   O31 4603   4.456   3.009  10.148 -0.2602 -0.7616 -0.1022
   60SAPC   C31 4604   4.321   2.996  10.120 -0.9739  0.4526  0.0135
   60SAPC   O32 4605   4.241   3.086  10.110  0.0814 -0.3030 -0.6257
   60SAPC   C32 4606   4.302   2.850  10.093  0.4185  1.1610 -0.1694
   60SAPC   H2X 4607   4.341   2.795  10.181  0.1117  0.2204 -0.6086
   60SAPC   H2Y 4608   4.373   2.819  10.014  1.2363 -1.4764  1.4528
   60SAPC   C23 4609   4.651   2.922  10.567  0.3142 -0.3159 -0.3879
   60SAPC   H3R 4610   4.709   2.904  10.660 -1.3352 -0.9968  0.5391
   60SAPC   H3S 4611   4.719   2.973  10.495  1.9917 -1.2986  0.4374
   60SAPC   C24 4612   4.588   2.794  10.514  0.0379  0.3240  0.1459
   60SAPC   H4R 4613   4.512   2.825  10.439  1.1324 -0.1715 -1.2084
   60SAPC   H4S 4614   4.529   2.743  10.593  0.9055 -3.3123 -1.3190
   60SAPC   C25 4615   4.703   2.702  10.471 -0.1705 -0.1593 -0.1064
   60SAPC   H5R 4616   4.738   2.630  10.547 -0.6918 -2.6953 -2.1153
   60SAPC   C26 4617   4.754   2.704  10.348  0.4322  0.2012 -0.1719
   60SAPC   H6R 4618   4.848   2.647  10.338  0.0106 -0.7014  0.8605
   60SAPC   C27 4619   4.728   2.793  10.229  0.2263  0.0533  0.6477
   60SAPC   H7R 4620   4.724   2.898  10.264  0.1259  0.7662 -1.4018
   60SAPC   H7S 4621   4.626   2.770  10.193  0.2045 -0.1776  0.8470
   60SAPC   C28 4622   4.826   2.772  10.115  0.2587  0.3092 -0.3773
   60SAPC   H8R 4623   4.919   2.732  10.158 -0.0437 -1.2236 -1.0931
   60SAPC   C29 4624   4.810   2.806   9.985  0.1156 -0.3855 -0.3025
   60SAPC   H9R 4625   4.890   2.803   9.910 -0.9128 -0.5798 -1.4168
   60SAPC  C210 4626   4.687   2.874   9.931 -0.6885  0.1041 -0.0215
   60SAPC  H10R 4627   4.674   2.984   9.934 -0.6468  0.2719 -3.1217
   60SAPC  H10S 4628   4.598   2.845   9.990 -1.4293  0.4007 -0.9731
   60SAPC  C211 4629   4.656   2.825   9.788  0.3845  0.2481 -0.3913
   60SAPC  H11R 4630   4.629   2.719   9.777  2.3192 -0.5743  1.8028
   60SAPC  C212 4631   4.642   2.902   9.684  0.5439 -0.0994  0.3136
   60SAPC  H12R 4632   4.620   2.853   9.589  0.3798 -0.8052  0.7064
   60SAPC  C213 4633   4.650   3.049   9.675  0.0707 -0.4509 -0.2728
   60SAPC  H13R 4634   4.730   3.083   9.606 -0.0425 -1.3740 -0.8841
   60SAPC  H13S 4635   4.676   3.096   9.772 -2.6381  2.2055 -0.6967
   60SAPC  C214 4636   4.519   3.115   9.640  0.0288  0.2665 -0.6491
   60SAPC  H14R 4637   4.435   3.103   9.711 -0.5869 -1.3752 -1.6134
   60SAPC  C215 4638   4.495   3.183   9.528 -0.0343  0.9734 -0.4296
   60SAPC  H15R 4639   4.390   3.206   9.505 -0.9479 -2.5114 -0.3622
   60SAPC  C216 4640   4.596   3.205   9.415  1.0452 -0.5087  0.0971
   60SAPC  H16R 4641   4.698   3.163   9.431  1.1644 -0.5924 -0.8504
   60SAPC  H16S 4642   4.619   3.312   9.397  1.2022 -0.4762  0.4660
   60SAPC  C217 4643   4.560   3.141   9.280 -0.0353 -0.9621  0.5954
   60SAPC  H17R 4644   4.457   3.165   9.246  1.2080  1.3349 -1.9657
   60SAPC  H17S 4645   4.560   3.030   9.282  0.1303 -0.9805 -0.1913
   60SAPC  C218 4646   4.666   3.180   9.179 -0.2133 -0.4063  0.8250
   60SAPC  H18R 4647   4.760   3.125   9.204  1.6212  1.6819 -1.0093
   60SAPC  H18S 4648   4.685   3.289   9.175 -0.6594 -0.3722 -1.3083
   60SAPC  C219 4649   4.642   3.147   9.028  0.6867 -0.1079  0.2150
   60SAPC  H19R 4650   4.736   3.172   8.973  0.4323  0.6716  0.1233
   60SAPC  H19S 4651   4.562   3.221   9.004 -0.3247 -0.9585  0.8762
   60SAPC  C220 4652   4.599   3.001   8.995  0.1665 -0.2198 -0.9285
   60SAPC  H20R 4653   4.685   2.932   9.008  0.8287  0.9631  1.4123
   60SAPC  H20S 4654   4.562   2.996   8.890 -3.8575  1.8446  0.2098
   60SAPC  H20T 4655   4.514   2.967   9.059 -1.0810  1.9848 -1.3337
   60SAPC   C33 4656   4.158   2.801  10.064 -0.2816 -0.3848 -0.1690
   60SAPC   H3X 4657   4.101   2.869   9.998  1.1464  1.0069 -0.0334
   60SAPC   H3Y 4658   4.100   2.801  10.159 -2.7814 -2.8185 -1.5548
   60SAPC   C34 4659   4.139   2.661   9.991  0.0601  0.3442 -0.2033
   60SAPC   H4X 4660   4.034   2.642   9.959  0.2277 -0.1537 -0.4674
   60SAPC   H4Y 4661   4.154   2.588  10.074 -2.4550 -0.2636 -0.1867
   60SAPC   C35 4662   4.223   2.628   9.871 -0.7393  0.8416 -0.7952
   60SAPC   H5X 4663   4.224   2.518   9.865 -1.5686  0.6252  1.8673
   60SAPC   H5Y 4664   4.329   2.649   9.897  0.4845 -3.3882 -1.6322
   60SAPC   C36 4665   4.172   2.689   9.746 -0.3549 -0.1467 -1.0468
   60SAPC   H6X 4666   4.151   2.798   9.756 -0.1963 -0.1939 -0.0247
   60SAPC   H6Y 4667   4.079   2.628   9.737 -0.3080 -1.5089  4.0413
   60SAPC   C37 4668   4.262   2.655   9.627  0.4710  0.2169  0.0771
   60SAPC   H7X 4669   4.219   2.581   9.556 -1.0838 -2.5177  3.5954
   60SAPC   H7Y 4670   4.339   2.589   9.671 -0.5516 -0.7282  0.4882
   60SAPC   C38 4671   4.332   2.774   9.556 -0.6937 -0.1999 -0.4413
   60SAPC   H8X 4672   4.387   2.823   9.639  0.1226  1.0980 -1.7054
   60SAPC   H8Y 4673   4.260   2.852   9.526 -0.1852  0.3799 -0.1881
   60SAPC   C39 4674   4.443   2.716   9.461 -0.5311 -0.3980  0.0027
   60SAPC   H9X 4675   4.510   2.637   9.500  0.6099  1.3041  1.6367
   60SAPC   H9Y 4676   4.502   2.802   9.424  0.5368  0.3108  3.0790
   60SAPC  C310 4677   4.372   2.664   9.335 -0.1696  0.2695 -0.2137
   60SAPC  H10X 4678   4.291   2.733   9.303 -1.2427 -1.3774 -1.1564
   60SAPC  H10Y 4679   4.332   2.564   9.364  3.6078 -0.8746  1.6986
   60SAPC  C311 4680   4.474   2.628   9.223 -0.1711  0.1686 -0.0764
   60SAPC  H11X 4681   4.546   2.553   9.262  1.2190  1.0529 -0.8463
   60SAPC  H11Y 4682   4.522   2.724   9.193 -2.6213  2.0568  1.6298
   60SAPC  C312 4683   4.406   2.561   9.107 -0.0275 -0.6583 -0.2148
   60SAPC  H12X 4684   4.323   2.624   9.068 -0.2698 -1.4714 -1.0644
   60SAPC  H12Y 4685   4.366   2.464   9.145  1.7050 -0.8813  1.1404
   60SAPC  C313 4686   4.498   2.520   8.990 -0.1630 -0.1087  0.1824
   60SAPC  H13X 4687   4.577   2.455   9.032 -0.6341 -1.5044 -1.0012
   60SAPC  H13Y 4688   4.554   2.612   8.964 -0.1948  0.5058  2.1412
   60SAPC  C314 4689   4.425   2.452   8.872 -0.7461 -0.2911 -1.2129
   60SAPC  H14X 4690   4.321   2.489   8.856 -1.8443 -2.6877 -0.1205
   60SAPC  H14Y 4691   4.414   2.348   8.910 -2.5205  0.3592  0.2221
   60SAPC  C315 4692   4.517   2.449   8.747 -0.2917  0.5615  0.0584
   60SAPC  H15X 4693   4.594   2.370   8.759 -1.1522 -0.2456  0.4187
   60SAPC  H15Y 4694   4.561   2.549   8.729 -0.5703  0.5280 -0.8732
   60SAPC  C316 4695   4.432   2.408   8.632  1.4054 -0.0433 -0.2742
   60SAPC  H16X 4696   4.339   2.468   8.638  1.6676  0.1996  3.5409
   60SAPC  H16Y 4697   4.414   2.299   8.639  0.6088  0.1027  0.0838
   60SAPC  C317 4698   4.505   2.430   8.499  0.5468 -0.1165 -0.0027
   60SAPC  H17X 4699   4.594   2.364   8.491 -0.8013 -1.8111 -1.7613
   60SAPC  H17Y 4700   4.525   2.539   8.483 -1.9299  0.6698  1.6415
   60SAPC  C318 4701   4.430   2.387   8.373  0.8447  0.5103  0.6555
   60SAPC  H18X 4702   4.417   2.277   8.380  0.1031  0.6728  2.3216
   60SAPC  H18Y 4703   4.503   2.398   8.290  0.2839 -2.2823 -0.3145
   60SAPC  H18Z 4704   4.335   2.441   8.353  0.9123  0.3741 -0.0572
   61SAPC     N 4705   5.657   1.321  10.776  0.0268  0.2165  0.0417
   61SAPC   C12 4706   5.619   1.302  10.632  0.3555 -0.3321  0.4106
   61SAPC  H12A 4707   5.664   1.209  10.600 -1.0460 -0.8441 -0.1576
   61SAPC  H12B 4708   5.674   1.375  10.575 -0.1133  0.5177  1.0270
   61SAPC   C13 4709   5.804   1.289  10.800  0.1783 -0.5487 -0.0842
   61SAPC  H13A 4710   5.864   1.337  10.725  2.0600 -1.7020  0.5994
   61SAPC  H13B 4711   5.832   1.326  10.897  0.0652  1.2638 -0.7048
   61SAPC  H13C 4712   5.828   1.184  10.814  0.4705 -0.5702 -0.7236
   61SAPC   C14 4713   5.630   1.473  10.801  0.3095  0.1195 -0.4533
   61SAPC  H14A 4714   5.525   1.479  10.776  0.6340  0.0526 -1.9043
   61SAPC  H14B 4715   5.647   1.491  10.906 -1.0483 -1.9500  0.1815
   61SAPC  H14C 4716   5.685   1.533  10.730 -0.5387 -2.0329 -3.1087
   61SAPC   C15 4717   5.578   1.246  10.876  0.6133 -0.3234 -0.7079
   61SAPC  H15A 4718   5.605   1.142  10.886  2.3903  0.1903  0.1283
   61SAPC  H15B 4719   5.582   1.284  10.977 -3.1219 -2.6595  0.5300
   61SAPC  H15C 4720   5.474   1.249  10.846  0.4964  0.9906 -0.2547
   61SAPC   C11 4721   5.468   1.299  10.600 -0.2123  0.2938  0.1378
   61SAPC  H11A 4722   5.452   1.312  10.491  3.9976  0.0848 -0.6740
   61SAPC  H11B 4723   5.419   1.388  10.644 -1.6059 -1.8866  3.4331
   61SAPC     P 4724   5.254   1.181  10.682  0.4620 -0.0756 -0.3356
   61SAPC   O13 4725   5.210   1.053  10.739  0.3053 -0.3224 -0.2989
   61SAPC   O14 4726   5.230   1.298  10.769  0.5549  0.3748 -0.6720
   61SAPC   O12 4727   5.406   1.176  10.635 -0.5546  0.0163  0.4816
   61SAPC   O11 4728   5.189   1.212  10.540 -0.3352  0.6451  0.3648
   61SAPC    C1 4729   5.178   1.125  10.429 -0.5377 -0.0457  0.0313
   61SAPC    HA 4730   5.260   1.051  10.417 -0.1614  0.1256  1.3657
   61SAPC    HB 4731   5.090   1.059  10.446  1.6426 -3.3404 -0.5599
   61SAPC    C2 4732   5.149   1.199  10.295  0.4655  0.1774 -0.3466
   61SAPC    HS 4733   5.087   1.288  10.319 -1.0602 -0.9925  0.2257
   61SAPC   O21 4734   5.081   1.114  10.202 -0.1236 -0.2024 -0.0262
   61SAPC   C21 4735   4.946   1.105  10.221 -0.1076 -0.2845 -0.0037
   61SAPC   O22 4736   4.886   1.151  10.317 -0.1190 -0.6165 -0.2837
   61SAPC   C22 4737   4.899   1.015  10.102  1.0633 -0.4404 -1.1671
   61SAPC   H2R 4738   4.953   1.044  10.010  3.0522 -3.1375 -0.9720
   61SAPC   H2S 4739   4.915   0.909  10.129 -2.5436 -1.3332 -1.9810
   61SAPC    C3 4740   5.274   1.265  10.231  0.0532 -0.1446  0.1007
   61SAPC    HX 4741   5.338   1.182  10.195  2.6078  1.1335  1.3730
   61SAPC    HY 4742   5.322   1.323  10.313  1.5184 -1.8482  0.5167
   61SAPC   O31 4743   5.238   1.353  10.123 -0.7727 -0.2824 -0.7071
   61SAPC   C31 4744   5.340   1.365  10.035  0.2133  0.1271  0.6108
   61SAPC   O32 4745   5.455   1.336  10.060  0.5700  0.6055  0.4061
   61SAPC   C32 4746   5.295   1.430   9.904  0.1216 -0.3728  0.1991
   61SAPC   H2X 4747   5.378   1.498   9.876 -0.7042  0.3748 -0.4805
   61SAPC   H2Y 4748   5.215   1.504   9.927 -0.8772 -0.9345 -1.2751
   61SAPC   C23 4749   4.746   1.025  10.068  0.3886 -0.1429 -0.2539
   61SAPC   H3R 4750   4.734   1.121  10.013 -0.8050  0.3780  0.8404
   61SAPC   H3S 4751   4.687   1.033  10.163 -0.2172 -2.0915 -0.4379
   61SAPC   C24 4752   4.704   0.920   9.970  0.7923  0.4639  0.1599
   61SAPC   H4R 4753   4.724   0.818  10.009  0.9696  0.8527  1.1061
   61SAPC   H4S 4754   4.774   0.922   9.884 -0.1681 -1.4601 -0.7283
   61SAPC   C25 4755   4.552   0.926   9.925 -0.2484 -0.5843  0.0280
   61SAPC   H5R 4756   4.481   0.899  10.005  0.4300  2.7955  1.9374
   61SAPC   C26 4757   4.507   0.952   9.799 -0.6298 -0.4273 -0.4386
   61SAPC   H6R 4758   4.400   0.942   9.777 -1.1863  2.3921  0.5589
   61SAPC   C27 4759   4.590   0.967   9.668  0.0361  0.1068 -0.4538
   61SAPC   H7R 4760   4.680   1.031   9.676  1.1035 -1.3396 -0.4743
   61SAPC   H7S 4761   4.519   1.032   9.612 -1.8993 -0.9708  0.6282
   61SAPC   C28 4762   4.635   0.839   9.607 -0.4023  0.7665  0.0111
   61SAPC   H8R 4763   4.735   0.803   9.637 -1.5654 -1.6791  1.2534
   61SAPC   C29 4764   4.582   0.762   9.510  0.6081 -0.0634 -0.0861
   61SAPC   H9R 4765   4.632   0.670   9.478 -1.3837 -1.5813  0.9310
   61SAPC  C210 4766   4.438   0.776   9.463 -0.2507 -0.6065  0.4482
   61SAPC  H10R 4767   4.387   0.852   9.526 -1.8984 -2.0002  0.8860
   61SAPC  H10S 4768   4.383   0.682   9.486 -0.4752 -0.2544  1.4107
   61SAPC  C211 4769   4.429   0.805   9.314  0.2467  0.1750 -0.0238
   61SAPC  H11R 4770   4.462   0.908   9.292 -3.8443  1.9066  1.1128
   61SAPC  C212 4771   4.399   0.720   9.217 -0.3364  0.0662 -0.7750
   61SAPC  H12R 4772   4.389   0.751   9.111  0.4688  1.0143 -0.5922
   61SAPC  C213 4773   4.369   0.577   9.240  0.4989 -0.1378  1.0329
   61SAPC  H13R 4774   4.259   0.571   9.225  0.6520 -0.0023 -0.1799
   61SAPC  H13S 4775   4.402   0.552   9.344  2.1832  0.6820  0.7323
   61SAPC  C214 4776   4.442   0.480   9.145 -0.2552 -0.7877 -0.5185
   61SAPC  H14R 4777   4.552   0.476   9.156 -0.2004 -2.2347 -1.4617
   61SAPC  C215 4778   4.399   0.413   9.038 -0.2094 -0.5242  0.0912
   61SAPC  H15R 4779   4.479   0.357   8.987  2.1381  2.3138  0.3582
   61SAPC  C216 4780   4.254   0.383   8.998  0.0346  0.0697 -0.1343
   61SAPC  H16R 4781   4.222   0.444   8.911 -1.6066  1.3231  1.2674
   61SAPC  H16S 4782   4.196   0.409   9.090  0.5959  0.9262 -0.0087
   61SAPC  C217 4783   4.227   0.237   8.957  0.2717 -0.0149 -0.4671
   61SAPC  H17R 4784   4.264   0.165   9.033 -1.6800 -0.9180 -0.2957
   61SAPC  H17S 4785   4.259   0.196   8.859  0.6759 -1.3137  0.1838
   61SAPC  C218 4786   4.074   0.210   8.935 -0.0259 -0.4459  0.3509
   61SAPC  H18R 4787   4.029   0.295   8.881 -1.7816 -1.1359  0.6628
   61SAPC  H18S 4788   4.021   0.213   9.033 -1.1222 -1.1024 -0.2110
   61SAPC  C219 4789   4.038   0.081   8.859  0.4843 -0.1489  0.4283
   61SAPC  H19R 4790   4.039  -0.006   8.928  0.0351  0.2389  0.9430
   61SAPC  H19S 4791   4.100   0.072   8.767  1.0568  3.6959  0.2423
   61SAPC  C220 4792   3.889   0.093   8.815 -0.2220 -0.2121 -0.0486
   61SAPC  H20R 4793   3.886   0.171   8.736 -0.6598 -1.1490 -0.9905
   61SAPC  H20S 4794   3.826   0.124   8.900 -0.1404  0.4595 -0.2298
   61SAPC  H20T 4795   3.850  -0.005   8.778  1.7303 -0.5116 -1.4902
   61SAPC   C33 4796   5.258   1.327   9.792  0.8846  0.7309  0.0384
   61SAPC   H3X 4797   5.207   1.385   9.713  1.5198  0.1032 -0.8559
   61SAPC   H3Y 4798   5.178   1.258   9.826  0.8958  1.2227  1.1253
   61SAPC   C34 4799   5.380   1.266   9.735  0.2017 -0.2266  0.3668
   61SAPC   H4X 4800   5.420   1.189   9.803  0.6141 -0.2635  0.0890
   61SAPC   H4Y 4801   5.456   1.345   9.718  2.0247 -1.9540  0.1004
   61SAPC   C35 4802   5.352   1.207   9.601 -0.2565  0.0710  0.0208
   61SAPC   H5X 4803   5.256   1.152   9.612 -1.5776  2.2275 -0.1853
   61SAPC   H5Y 4804   5.436   1.134   9.589 -0.6098 -0.0780 -1.8165
   61SAPC   C36 4805   5.354   1.311   9.486 -0.6582  0.0747  0.5741
   61SAPC   H6X 4806   5.454   1.357   9.496  0.5224 -2.4323  1.0936
   61SAPC   H6Y 4807   5.280   1.392   9.503  0.3584  0.8513  1.3360
   61SAPC   C37 4808   5.348   1.247   9.349 -0.0369  0.0189 -0.2465
   61SAPC   H7X 4809   5.271   1.168   9.336 -1.3649  1.3010 -0.3596
   61SAPC   H7Y 4810   5.448   1.202   9.332  0.6516  1.0153  0.9541
   61SAPC   C38 4811   5.321   1.356   9.239  0.0919  0.0803 -0.2729
   61SAPC   H8X 4812   5.397   1.435   9.258  0.9964 -0.9349  0.5067
   61SAPC   H8Y 4813   5.218   1.393   9.258 -0.3127 -0.2244 -1.7753
   61SAPC   C39 4814   5.336   1.298   9.093 -1.0489 -0.4986 -0.3565
   61SAPC   H9X 4815   5.432   1.242   9.098  0.1475  1.5402  1.7630
   61SAPC   H9Y 4816   5.343   1.373   9.011 -0.1306  0.4429  0.5438
   61SAPC  C310 4817   5.228   1.202   9.043 -0.2148 -1.1476 -0.8597
   61SAPC  H10X 4818   5.130   1.253   9.041  0.8125  1.1774  1.6816
   61SAPC  H10Y 4819   5.224   1.131   9.128  1.0749  2.5441  2.6372
   61SAPC  C311 4820   5.244   1.143   8.904  0.4530  0.7309 -0.0541
   61SAPC  H11X 4821   5.160   1.071   8.893  0.4398  1.0009 -2.1889
   61SAPC  H11Y 4822   5.337   1.085   8.883  1.1147  2.0648 -0.9232
   61SAPC  C312 4823   5.222   1.240   8.789  0.1733 -0.4674  0.4284
   61SAPC  H12X 4824   5.293   1.325   8.781 -0.5009  0.0471 -0.2989
   61SAPC  H12Y 4825   5.117   1.274   8.803 -0.3786 -1.1580 -1.6588
   61SAPC  C313 4826   5.218   1.168   8.654 -0.1906 -0.4911  0.4068
   61SAPC  H13X 4827   5.128   1.104   8.657 -0.9333  0.4985 -0.2071
   61SAPC  H13Y 4828   5.313   1.113   8.635  1.5516  1.5605  2.4552
   61SAPC  C314 4829   5.206   1.267   8.543 -0.1614  0.0351 -0.1552
   61SAPC  H14X 4830   5.301   1.326   8.540 -0.2898  0.1981 -2.3514
   61SAPC  H14Y 4831   5.130   1.343   8.573  0.2177  0.5855 -0.5721
   61SAPC  C315 4832   5.187   1.205   8.409  0.2265  0.4653  0.4313
   61SAPC  H15X 4833   5.095   1.142   8.409 -0.0912  0.8016 -2.2701
   61SAPC  H15Y 4834   5.271   1.137   8.383  0.3887  1.4528 -1.9069
   61SAPC  C316 4835   5.179   1.310   8.295 -0.4811  0.9290 -0.4865
   61SAPC  H16X 4836   5.193   1.265   8.195 -0.3919  1.4153 -0.6961
   61SAPC  H16Y 4837   5.258   1.383   8.323 -0.4477  0.3859  0.9342
   61SAPC  C317 4838   5.054   1.404   8.294  0.4657  0.4126  0.2120
   61SAPC  H17X 4839   5.021   1.440   8.394 -0.0633 -0.2920  0.2940
   61SAPC  H17Y 4840   4.969   1.351   8.248  0.6665  0.8068 -0.6246
   61SAPC  C318 4841   5.084   1.520   8.214  0.9802 -0.6887  1.2839
   61SAPC  H18X 4842   5.118   1.490   8.112 -1.0381  0.0231  0.3566
   61SAPC  H18Y 4843   5.164   1.585   8.255  1.3116 -0.3893  0.2040
   61SAPC  H18Z 4844   4.990   1.576   8.198  1.7162  0.1776 -0.3119
   62SAPC     N 4845   5.757   6.732  10.525 -0.3912 -0.2969  0.1869
   62SAPC   C12 4846   5.783   6.845  10.419  0.0614  0.6901 -0.0891
   62SAPC  H12A 4847   5.721   6.824  10.333  0.0927 -0.2500  0.1134
   62SAPC  H12B 4848   5.883   6.826  10.383 -0.1788  0.9815 -0.9407
   62SAPC   C13 4849   5.781   6.598  10.452 -0.7338  0.7089  0.0905
   62SAPC  H13A 4850   5.709   6.591  10.371 -0.4444 -0.4382 -0.0886
   62SAPC  H13B 4851   5.884   6.598  10.418 -0.1460 -0.6310  1.7301
   62SAPC  H13C 4852   5.766   6.516  10.521 -0.0095  0.4994  0.0081
   62SAPC   C14 4853   5.851   6.740  10.648  0.5087  0.5822 -0.1597
   62SAPC  H14A 4854   5.853   6.840  10.689  0.6578  0.4824  0.0818
   62SAPC  H14B 4855   5.811   6.682  10.730  1.7899  1.7935  1.3941
   62SAPC  H14C 4856   5.950   6.703  10.626  0.5911  0.2910  0.6583
   62SAPC   C15 4857   5.616   6.723  10.576  0.0495 -0.1901  0.1635
   62SAPC  H15A 4858   5.584   6.818  10.615  2.1295  1.6912 -2.3318
   62SAPC  H15B 4859   5.548   6.708  10.494 -0.9983  2.0153  0.5726
   62SAPC  H15C 4860   5.597   6.645  10.648  0.5580  0.4392  0.9982
   62SAPC   C11 4861   5.774   6.990  10.474  0.5708  0.0066  0.2712
   62SAPC  H11A 4862   5.800   7.051  10.384  1.9132 -1.9476 -0.7219
   62SAPC  H11B 4863   5.850   7.020  10.549 -2.0079  1.1158  2.6579
   62SAPC     P 4864   5.530   7.058  10.423  0.0773 -0.4444  0.0581
   62SAPC   O13 4865   5.468   6.937  10.363 -0.3431 -0.1888  0.5323
   62SAPC   O14 4866   5.442   7.148  10.499  0.2161 -0.7011 -0.0953
   62SAPC   O12 4867   5.642   7.013  10.518  0.2767  0.6735 -0.1275
   62SAPC   O11 4868   5.598   7.143  10.298 -0.2616  0.2733 -0.1589
   62SAPC    C1 4869   5.643   7.275  10.329  0.5037 -0.1689 -0.0238
   62SAPC    HA 4870   5.634   7.304  10.435  0.0710  0.8599 -0.3306
   62SAPC    HB 4871   5.750   7.275  10.298  0.1566 -2.4917 -1.4990
   62SAPC    C2 4872   5.560   7.368  10.234 -0.4382 -0.4376  0.0399
   62SAPC    HS 4873   5.456   7.370  10.271 -0.8512  3.0553 -0.9942
   62SAPC   O21 4874   5.573   7.323  10.094  0.6076  0.5749 -0.3522
   62SAPC   C21 4875   5.474   7.257  10.036 -0.5715 -0.6813  0.5294
   62SAPC   O22 4876   5.365   7.227  10.078  0.0320  0.1446 -0.4549
   62SAPC   C22 4877   5.524   7.206   9.902 -0.7153 -0.3812 -0.5543
   62SAPC   H2R 4878   5.563   7.296   9.849 -0.1593 -0.9683 -1.1648
   62SAPC   H2S 4879   5.601   7.129   9.922  1.0072  1.0115 -1.5043
   62SAPC    C3 4880   5.626   7.506  10.252 -0.0756  0.0424  0.1166
   62SAPC    HX 4881   5.733   7.494  10.225  0.3807  1.3957  1.2073
   62SAPC    HY 4882   5.630   7.540  10.358  0.5859 -0.1330  0.1533
   62SAPC   O31 4883   5.569   7.611  10.171  0.8054 -0.3554 -0.3627
   62SAPC   C31 4884   5.445   7.642  10.198 -0.1494  0.2766  0.6420
   62SAPC   O32 4885   5.385   7.601  10.293 -0.3676  0.1032 -0.0320
   62SAPC   C32 4886   5.394   7.739  10.092  0.3832 -0.6184  0.2265
   62SAPC   H2X 4887   5.454   7.832  10.087  0.5235 -0.7024  0.3481
   62SAPC   H2Y 4888   5.289   7.760  10.118  1.4214  2.4733  2.3632
   62SAPC   C23 4889   5.405   7.149   9.822  0.9398  0.0222  0.3673
   62SAPC   H3R 4890   5.332   7.226   9.789  1.1589 -0.1919 -0.6751
   62SAPC   H3S 4891   5.352   7.068   9.878 -2.0959  1.7904  0.2754
   62SAPC   C24 4892   5.457   7.086   9.692  0.4170  0.7271 -0.0819
   62SAPC   H4R 4893   5.497   6.986   9.721 -0.7223  0.8654  2.1934
   62SAPC   H4S 4894   5.549   7.140   9.662  1.9353 -1.4862  0.3133
   62SAPC   C25 4895   5.370   7.069   9.573  0.6495 -0.0026  0.6586
   62SAPC   H5R 4896   5.264   7.050   9.591  0.3525  2.2188  1.5680
   62SAPC   C26 4897   5.404   7.096   9.452  0.0944  0.5610  0.2783
   62SAPC   H6R 4898   5.327   7.083   9.375  0.3911  1.7219 -0.2310
   62SAPC   C27 4899   5.537   7.136   9.399  0.0049 -0.0705 -0.0261
   62SAPC   H7R 4900   5.595   7.199   9.471 -0.9180  0.4398  0.2896
   62SAPC   H7S 4901   5.530   7.214   9.320  2.1736  0.9384  0.6705
   62SAPC   C28 4902   5.620   7.028   9.342  0.1826 -0.1534 -0.0076
   62SAPC   H8R 4903   5.672   6.971   9.420  1.0911 -2.1233 -1.9716
   62SAPC   C29 4904   5.629   6.995   9.215  0.7306  0.2094  0.3227
   62SAPC   H9R 4905   5.701   6.915   9.191  1.9847  1.5907 -0.7110
   62SAPC  C210 4906   5.554   7.061   9.100  0.2388  0.4233  0.0073
   62SAPC  H10R 4907   5.620   7.061   9.011 -0.2913  0.4341 -0.3935
   62SAPC  H10S 4908   5.525   7.166   9.119 -0.5869  0.1319  0.4261
   62SAPC  C211 4909   5.431   6.972   9.068  0.3252  0.4364 -0.6061
   62SAPC  H11R 4910   5.346   7.007   9.129  0.1714 -1.1332  0.1155
   62SAPC  C212 4911   5.423   6.853   9.000 -0.7113 -0.0693  0.5783
   62SAPC  H12R 4912   5.331   6.793   8.991 -0.1113 -0.9517  0.1702
   62SAPC  C213 4913   5.540   6.798   8.912  0.8360  0.1129 -0.2261
   62SAPC  H13R 4914   5.521   6.689   8.903  1.7530 -0.0052 -0.8112
   62SAPC  H13S 4915   5.646   6.816   8.940  1.0085  0.3474 -1.0171
   62SAPC  C214 4916   5.523   6.864   8.779  0.3050  0.1662  0.3539
   62SAPC  H14R 4917   5.436   6.930   8.771 -1.1451 -1.4372  2.0445
   62SAPC  C215 4918   5.606   6.831   8.681 -0.2554 -0.6514  0.9062
   62SAPC  H15R 4919   5.592   6.862   8.577 -0.3760 -1.9915  0.4972
   62SAPC  C216 4920   5.722   6.726   8.694  0.0576 -0.3337 -0.3453
   62SAPC  H16R 4921   5.763   6.725   8.798 -0.3359 -0.2365 -0.1886
   62SAPC  H16S 4922   5.807   6.775   8.641  2.1614 -1.0334  2.1642
   62SAPC  C217 4923   5.697   6.581   8.639  0.2162  0.4753 -0.3653
   62SAPC  H17R 4924   5.650   6.590   8.538 -0.4653  0.1083 -0.0879
   62SAPC  H17S 4925   5.620   6.538   8.707 -0.7821  2.3394 -0.2379
   62SAPC  C218 4926   5.821   6.493   8.621 -0.3685  0.2371 -0.0093
   62SAPC  H18R 4927   5.853   6.441   8.714  0.2252  0.1003 -0.2848
   62SAPC  H18S 4928   5.909   6.546   8.578 -0.3214 -0.1794 -0.4315
   62SAPC  C219 4929   5.787   6.387   8.511 -0.0308 -0.3793  0.1060
   62SAPC  H19R 4930   5.760   6.437   8.415 -1.3856 -0.9074  0.1912
   62SAPC  H19S 4931   5.706   6.318   8.541 -0.1080 -0.1800  0.3659
   62SAPC  C220 4932   5.901   6.292   8.500  0.2070  0.4447 -0.7020
   62SAPC  H20R 4933   5.925   6.243   8.597 -0.0263  0.5534 -0.5902
   62SAPC  H20S 4934   5.974   6.362   8.454 -1.7062  2.8337 -0.2807
   62SAPC  H20T 4935   5.883   6.210   8.426  0.0782  0.2802 -0.4890
   62SAPC   C33 4936   5.385   7.686   9.943  0.4406  0.4199 -0.0684
   62SAPC   H3X 4937   5.324   7.752   9.878  2.2106  1.5658 -0.6201
   62SAPC   H3Y 4938   5.315   7.599   9.947  0.5296  0.3171 -0.6981
   62SAPC   C34 4939   5.516   7.638   9.869  0.7162  0.7642 -0.0263
   62SAPC   H4X 4940   5.584   7.579   9.934 -0.4685 -1.1017 -0.4010
   62SAPC   H4Y 4941   5.566   7.726   9.824  0.0480  1.2013  0.0761
   62SAPC   C35 4942   5.478   7.528   9.762  0.3287  0.0579  0.0195
   62SAPC   H5X 4943   5.412   7.447   9.797  1.8538 -1.4198 -0.3902
   62SAPC   H5Y 4944   5.567   7.477   9.719 -0.8989  0.1340 -2.8291
   62SAPC   C36 4945   5.429   7.593   9.633  0.2310  0.5073  0.1966
   62SAPC   H6X 4946   5.511   7.654   9.589 -1.6762  1.6962 -1.9376
   62SAPC   H6Y 4947   5.344   7.663   9.646  1.1294  1.3202  1.9430
   62SAPC   C37 4948   5.384   7.484   9.533 -0.4778 -0.6608 -0.2385
   62SAPC   H7X 4949   5.280   7.446   9.541 -0.3541 -0.7767  0.9025
   62SAPC   H7Y 4950   5.445   7.393   9.554 -0.4874 -0.5976  0.0614
   62SAPC   C38 4951   5.415   7.512   9.382 -0.1307  0.0279  0.3762
   62SAPC   H8X 4952   5.409   7.421   9.318 -0.5457  0.8663 -0.8247
   62SAPC   H8Y 4953   5.520   7.546   9.370  0.1049 -1.0553 -0.8881
   62SAPC   C39 4954   5.335   7.619   9.312  0.5426 -0.1501 -0.5692
   62SAPC   H9X 4955   5.381   7.651   9.216  0.3692  1.0649 -0.2644
   62SAPC   H9Y 4956   5.341   7.711   9.375  1.4051  0.4916 -1.5576
   62SAPC  C310 4957   5.189   7.572   9.298 -0.1072 -0.0209 -0.0718
   62SAPC  H10X 4958   5.140   7.573   9.398  0.2299  0.4013  0.0939
   62SAPC  H10Y 4959   5.182   7.465   9.269 -2.6857 -0.0803  0.5326
   62SAPC  C311 4960   5.100   7.656   9.205  0.1025  0.3491  0.0345
   62SAPC  H11X 4961   5.125   7.645   9.098 -2.1954  1.5536 -0.6908
   62SAPC  H11Y 4962   5.104   7.765   9.227 -1.2338  0.9502 -2.3155
   62SAPC  C312 4963   4.947   7.635   9.220  0.3741  0.3766 -0.3406
   62SAPC  H12X 4964   4.933   7.633   9.330  2.3211  4.3514  0.1351
   62SAPC  H12Y 4965   4.919   7.533   9.186 -1.4354  0.0796  1.8244
   62SAPC  C313 4966   4.867   7.741   9.146  0.1578  0.2446 -0.5689
   62SAPC  H13X 4967   4.918   7.837   9.170  1.8637  0.2722 -3.7909
   62SAPC  H13Y 4968   4.766   7.736   9.193  1.2333 -0.5691  1.8178
   62SAPC  C314 4969   4.858   7.721   8.993 -0.8881  0.6410 -0.1686
   62SAPC  H14X 4970   4.826   7.616   8.975 -1.7742  0.9498 -0.4520
   62SAPC  H14Y 4971   4.962   7.725   8.954 -1.3744  0.0760 -1.6098
   62SAPC  C315 4972   4.771   7.822   8.918  0.2188 -0.4447  0.8835
   62SAPC  H15X 4973   4.783   7.917   8.974  0.5350 -1.1136  1.9969
   62SAPC  H15Y 4974   4.663   7.796   8.924 -0.0435 -0.6856 -2.6926
   62SAPC  C316 4975   4.817   7.844   8.776  0.4191  0.1889  0.3425
   62SAPC  H16X 4976   4.812   7.755   8.710 -0.6934 -1.2493  2.2847
   62SAPC  H16Y 4977   4.924   7.872   8.778 -0.3714  4.3589 -2.3066
   62SAPC  C317 4978   4.743   7.962   8.701 -0.8864  0.0933  0.4049
   62SAPC  H17X 4979   4.761   8.036   8.782  0.3102 -1.2357  1.4157
   62SAPC  H17Y 4980   4.638   7.935   8.678 -0.8986  1.1640 -0.9145
   62SAPC  C318 4981   4.814   7.989   8.572  0.0695 -0.5457  0.2620
   62SAPC  H18X 4982   4.768   8.080   8.528  1.8828  0.8099  1.0349
   62SAPC  H18Y 4983   4.815   7.901   8.504 -0.8222  0.0297 -0.5121
   62SAPC  H18Z 4984   4.920   8.018   8.588 -0.1267  1.2069 -1.2649
   63SAPC     N 4985   3.354   0.615   5.497 -0.4453 -0.3847  0.3690
   63SAPC   C12 4986   3.498   0.628   5.551 -0.5653  0.4529  0.2466
   63SAPC  H12A 4987   3.557   0.684   5.480  0.0221  0.5410  0.7946
   63SAPC  H12B 4988   3.542   0.530   5.558 -0.1733  0.6093  0.0143
   63SAPC   C13 4989   3.350   0.529   5.371  0.4210 -0.2113  0.2167
   63SAPC  H13A 4990   3.368   0.424   5.386 -0.5575 -0.3181  0.7076
   63SAPC  H13B 4991   3.247   0.528   5.340 -0.3561 -0.1929  2.6192
   63SAPC  H13C 4992   3.416   0.566   5.294  0.2175 -1.2637 -0.4824
   63SAPC   C14 4993   3.273   0.557   5.608 -1.4597 -0.2538 -0.6196
   63SAPC  H14A 4994   3.265   0.624   5.693 -0.7255  1.2752 -1.6937
   63SAPC  H14B 4995   3.178   0.517   5.577 -1.0303 -2.2566  0.4690
   63SAPC  H14C 4996   3.328   0.470   5.641 -1.9030 -0.4517 -0.3922
   63SAPC   C15 4997   3.291   0.748   5.471 -0.5456  0.0663  0.4928
   63SAPC  H15A 4998   3.195   0.730   5.426  0.2936 -2.4714 -0.5170
   63SAPC  H15B 4999   3.260   0.802   5.559 -3.5456 -0.3394 -0.2264
   63SAPC  H15C 5000   3.338   0.817   5.403 -2.0283  0.4870 -0.1298
   63SAPC   C11 5001   3.518   0.699   5.685 -0.0042  0.2172 -0.3411
   63SAPC  H11A 5002   3.468   0.649   5.771 -0.8411 -1.0810 -1.5462
   63SAPC  H11B 5003   3.474   0.801   5.675 -1.9490  0.0205  3.9356
   63SAPC     P 5004   3.746   0.837   5.722 -0.1026 -0.0858  0.2494
   63SAPC   O13 5005   3.888   0.796   5.691 -0.2913 -0.2709 -0.1423
   63SAPC   O14 5006   3.684   0.941   5.638  0.5892  0.6487  0.0412
   63SAPC   O12 5007   3.657   0.705   5.707 -0.2840  0.3404 -0.1793
   63SAPC   O11 5008   3.730   0.870   5.878 -0.1155  0.0152 -0.0148
   63SAPC    C1 5009   3.768   0.770   5.978  0.2177  0.0715 -0.5106
   63SAPC    HA 5010   3.737   0.667   5.954  1.4869 -0.7669  1.2080
   63SAPC    HB 5011   3.878   0.779   5.993  0.4683 -0.2488 -2.0186
   63SAPC    C2 5012   3.682   0.785   6.107  0.2419 -0.3818  0.2928
   63SAPC    HS 5013   3.635   0.886   6.109  0.6956 -0.1228 -1.3979
   63SAPC   O21 5014   3.769   0.757   6.219  0.1542  0.1335  0.0671
   63SAPC   C21 5015   3.736   0.830   6.328  0.8087  0.5545  0.1990
   63SAPC   O22 5016   3.654   0.923   6.332 -0.3776 -0.0165 -0.1252
   63SAPC   C22 5017   3.825   0.787   6.442  0.3563  0.2297 -0.3760
   63SAPC   H2R 5018   3.810   0.677   6.451 -1.1075  0.5366  1.7508
   63SAPC   H2S 5019   3.932   0.807   6.420  0.5621 -1.3614 -0.9681
   63SAPC    C3 5020   3.555   0.694   6.112  0.0903  0.5652  0.1281
   63SAPC    HX 5021   3.580   0.587   6.100  0.9465  0.4025  2.8402
   63SAPC    HY 5022   3.493   0.717   6.022  0.3229 -2.6997 -0.9685
   63SAPC   O31 5023   3.473   0.705   6.225  0.5982  0.0052  0.0460
   63SAPC   C31 5024   3.380   0.804   6.223  1.4416 -0.3565  0.3248
   63SAPC   O32 5025   3.367   0.883   6.130  0.2850 -0.6803 -0.2120
   63SAPC   C32 5026   3.290   0.787   6.350  0.6338  0.5653  0.5366
   63SAPC   H2X 5027   3.234   0.692   6.356  1.1610  0.2289  0.2388
   63SAPC   H2Y 5028   3.213   0.862   6.322  0.6251  0.1817 -0.5155
   63SAPC   C23 5029   3.789   0.842   6.581  0.1314 -0.5628  0.0263
   63SAPC   H3R 5030   3.697   0.795   6.622 -0.5684  3.1366  3.3062
   63SAPC   H3S 5031   3.761   0.950   6.576 -0.4924 -0.6929  0.5881
   63SAPC   C24 5032   3.907   0.855   6.683  0.2159 -0.1294  0.7694
   63SAPC   H4R 5033   3.871   0.913   6.770  0.4390  2.1362 -0.5608
   63SAPC   H4S 5034   3.980   0.922   6.632  0.2754 -1.4724 -1.0028
   63SAPC   C25 5035   3.958   0.718   6.726 -0.6035  0.4909  0.1957
   63SAPC   H5R 5036   4.024   0.656   6.663 -1.6492 -1.9971  1.4158
   63SAPC   C26 5037   3.931   0.656   6.845 -0.0636  0.4033 -0.2975
   63SAPC   H6R 5038   3.957   0.549   6.846 -0.5983  0.2748 -0.1604
   63SAPC   C27 5039   3.850   0.698   6.963 -0.2445 -0.0780 -0.1525
   63SAPC   H7R 5040   3.773   0.623   6.993  0.7622 -0.7270  0.9079
   63SAPC   H7S 5041   3.807   0.794   6.928  1.6319  1.3113  1.1302
   63SAPC   C28 5042   3.944   0.731   7.083  0.6471  0.5053  0.3419
   63SAPC   H8R 5043   4.049   0.747   7.056  0.5063 -0.7067 -1.0702
   63SAPC   C29 5044   3.911   0.772   7.209 -0.4039  0.1930  0.6037
   63SAPC   H9R 5045   3.991   0.803   7.278  1.0100  0.6229 -1.1460
   63SAPC  C210 5046   3.769   0.777   7.259 -0.6605  0.3887  0.1658
   63SAPC  H10R 5047   3.696   0.762   7.176  1.3361 -2.4395 -1.2633
   63SAPC  H10S 5048   3.740   0.867   7.317  0.8710  0.9609  0.0782
   63SAPC  C211 5049   3.752   0.660   7.359  0.5186  0.0021 -0.2622
   63SAPC  H11R 5050   3.796   0.562   7.335 -1.8706 -1.6242  1.4690
   63SAPC  C212 5051   3.702   0.673   7.488 -0.0583 -0.4600 -0.2350
   63SAPC  H12R 5052   3.696   0.573   7.533  0.5717 -0.7235 -0.7261
   63SAPC  C213 5053   3.634   0.794   7.552 -0.2139 -0.1319 -0.1124
   63SAPC  H13R 5054   3.559   0.760   7.627 -1.7140  2.3219 -0.3943
   63SAPC  H13S 5055   3.577   0.853   7.477 -1.3733 -0.5051  0.4473
   63SAPC  C214 5056   3.742   0.870   7.618 -0.8180  0.4220 -0.3514
   63SAPC  H14R 5057   3.815   0.913   7.547 -1.6488  0.6147 -1.0990
   63SAPC  C215 5058   3.773   0.865   7.751 -0.4023  0.3652  0.7972
   63SAPC  H15R 5059   3.856   0.922   7.794  1.4242 -2.5940  1.4262
   63SAPC  C216 5060   3.692   0.793   7.856 -0.4265 -0.1999 -0.2199
   63SAPC  H16R 5061   3.602   0.737   7.821  0.3412 -0.9057 -1.1144
   63SAPC  H16S 5062   3.663   0.879   7.919  3.6627  1.0697  0.2210
   63SAPC  C217 5063   3.777   0.692   7.936  0.0223  0.8534 -0.0935
   63SAPC  H17R 5064   3.872   0.735   7.973  0.3968  1.0009 -1.1963
   63SAPC  H17S 5065   3.808   0.620   7.858  1.6070  1.1749  0.1984
   63SAPC  C218 5066   3.689   0.622   8.049 -0.5661  0.0449  0.5169
   63SAPC  H18R 5067   3.598   0.568   8.013  0.1090 -0.1913 -0.9078
   63SAPC  H18S 5068   3.665   0.704   8.121  1.1439  0.7363  0.3435
   63SAPC  C219 5069   3.784   0.521   8.127  0.5948 -0.4972  0.0824
   63SAPC  H19R 5070   3.861   0.588   8.171  1.1082  1.7100 -3.7118
   63SAPC  H19S 5071   3.835   0.449   8.060  1.6946  0.3105  0.0180
   63SAPC  C220 5072   3.714   0.448   8.240  0.1968  0.4500 -0.2422
   63SAPC  H20R 5073   3.625   0.506   8.275  0.1513  0.1801  0.0945
   63SAPC  H20S 5074   3.781   0.415   8.322 -0.8071 -1.7252 -0.2293
   63SAPC  H20T 5075   3.677   0.355   8.192  2.5004  0.0639 -1.3929
   63SAPC   C33 5076   3.368   0.812   6.474 -0.0134 -0.7464  0.1823
   63SAPC   H3X 5077   3.403   0.918   6.468  0.6727 -1.0491 -1.9567
   63SAPC   H3Y 5078   3.457   0.746   6.472 -0.6943 -1.6922  0.5000
   63SAPC   C34 5079   3.280   0.778   6.596  0.0061  0.4317  0.1060
   63SAPC   H4X 5080   3.243   0.673   6.592  2.2563 -0.4206 -0.0982
   63SAPC   H4Y 5081   3.190   0.843   6.594  0.3692  0.9300 -1.6021
   63SAPC   C35 5082   3.360   0.804   6.720  0.1636  0.7787  0.3952
   63SAPC   H5X 5083   3.386   0.912   6.730 -1.0630  1.0351  1.0830
   63SAPC   H5Y 5084   3.455   0.748   6.719 -0.9333 -1.2066 -1.1024
   63SAPC   C36 5085   3.286   0.747   6.838 -0.0855  0.0033  0.0910
   63SAPC   H6X 5086   3.283   0.637   6.825 -2.2908  0.3459 -3.9822
   63SAPC   H6Y 5087   3.179   0.775   6.833 -0.1328 -0.3505 -1.6769
   63SAPC   C37 5088   3.345   0.778   6.973  0.1848  0.0189 -0.6978
   63SAPC   H7X 5089   3.396   0.876   6.977  0.6895 -0.1717  4.3407
   63SAPC   H7Y 5090   3.413   0.696   7.004  0.2820  0.7669  1.1908
   63SAPC   C38 5091   3.239   0.779   7.083  0.2654 -0.8845  0.1996
   63SAPC   H8X 5092   3.188   0.681   7.073 -0.1048 -0.5592 -1.3473
   63SAPC   H8Y 5093   3.165   0.857   7.057  0.4052 -0.8650 -0.1353
   63SAPC   C39 5094   3.308   0.823   7.213 -0.1774  0.2814  0.0936
   63SAPC   H9X 5095   3.368   0.916   7.205  1.5311 -0.8679 -1.2570
   63SAPC   H9Y 5096   3.387   0.746   7.233 -0.5993  0.0434  0.8876
   63SAPC  C310 5097   3.214   0.834   7.333  0.8118 -0.1457  0.1132
   63SAPC  H10X 5098   3.123   0.775   7.308 -0.2448  1.4442  0.0111
   63SAPC  H10Y 5099   3.179   0.940   7.331 -0.5399 -0.5743  0.2972
   63SAPC  C311 5100   3.274   0.813   7.469 -0.3734 -0.5099 -0.3952
   63SAPC  H11X 5101   3.342   0.898   7.492 -0.6010 -0.5261  0.3690
   63SAPC  H11Y 5102   3.340   0.724   7.467 -1.0524 -1.0402  0.2456
   63SAPC  C312 5103   3.181   0.808   7.595 -0.3848 -0.0616  0.5390
   63SAPC  H12X 5104   3.118   0.721   7.566 -0.9650  0.4537  0.2218
   63SAPC  H12Y 5105   3.107   0.887   7.618 -1.7561 -1.0592 -0.2761
   63SAPC  C313 5106   3.266   0.778   7.716  0.3399  0.2733 -0.2843
   63SAPC  H13X 5107   3.305   0.878   7.747 -1.5010  0.6165  1.1150
   63SAPC  H13Y 5108   3.363   0.728   7.695  0.2075 -0.0136 -0.2127
   63SAPC  C314 5109   3.204   0.724   7.844 -1.2116  0.4000  0.5286
   63SAPC  H14X 5110   3.184   0.615   7.844  0.1657  0.1178 -0.8029
   63SAPC  H14Y 5111   3.101   0.764   7.854 -2.5010 -1.8038 -2.4254
   63SAPC  C315 5112   3.292   0.755   7.953 -0.0856  0.3715  0.4001
   63SAPC  H15X 5113   3.316   0.863   7.965  4.3298 -0.4576  0.7477
   63SAPC  H15Y 5114   3.387   0.697   7.954 -1.0795 -1.3394  2.4495
   63SAPC  C316 5115   3.229   0.712   8.087 -0.2203 -0.2797  0.3934
   63SAPC  H16X 5116   3.216   0.602   8.089  0.4472 -0.4554 -1.8188
   63SAPC  H16Y 5117   3.130   0.761   8.098  0.2551  0.7848  0.1011
   63SAPC  C317 5118   3.312   0.753   8.210  0.6440  0.0423  0.4689
   63SAPC  H17X 5119   3.318   0.863   8.218 -1.6862  0.1890  0.7648
   63SAPC  H17Y 5120   3.420   0.732   8.192  0.3872 -1.8387  0.9118
   63SAPC  C318 5121   3.256   0.690   8.337 -0.4379  0.0821  0.3133
   63SAPC  H18X 5122   3.344   0.695   8.405  1.0874 -1.7282 -1.3886
   63SAPC  H18Y 5123   3.224   0.585   8.327 -2.0144  0.3679  1.8557
   63SAPC  H18Z 5124   3.183   0.750   8.395  0.5140  0.5659  1.0547
   64SAPC     N 5125   6.051   2.286   5.840 -0.3239  0.6392 -0.2547
   64SAPC   C12 5126   6.096   2.336   5.978 -0.7453 -0.2899  0.1201
   64SAPC  H12A 5127   6.027   2.298   6.052 -0.4921  1.4774  1.3358
   64SAPC  H12B 5128   6.086   2.444   5.980  0.6880 -0.1357  0.1370
   64SAPC   C13 5129   5.905   2.335   5.833  0.2969  0.3069  0.0075
   64SAPC  H13A 5130   5.916   2.441   5.852 -1.7782  0.3523  1.3790
   64SAPC  H13B 5131   5.863   2.319   5.735  0.9669  1.0748 -0.4163
   64SAPC  H13C 5132   5.849   2.293   5.915 -0.3941  1.3903  0.1257
   64SAPC   C14 5133   6.134   2.355   5.738  0.5530 -0.1414  0.2454
   64SAPC  H14A 5134   6.238   2.325   5.744  0.5746 -0.0380  0.3834
   64SAPC  H14B 5135   6.091   2.332   5.641 -0.3357  0.5153  0.4734
   64SAPC  H14C 5136   6.130   2.462   5.753  0.4214 -0.2233  0.7905
   64SAPC   C15 5137   6.061   2.140   5.827  0.7731  0.0111  0.2518
   64SAPC  H15A 5138   6.164   2.118   5.802  0.1318  0.2593 -3.1534
   64SAPC  H15B 5139   6.026   2.089   5.915  1.4569  1.4516  1.3919
   64SAPC  H15C 5140   6.015   2.106   5.735 -0.5923 -1.1287  1.3231
   64SAPC   C11 5141   6.239   2.298   6.023 -0.0032  1.2306  0.0254
   64SAPC  H11A 5142   6.253   2.188   6.016  0.8884  1.2398  1.2792
   64SAPC  H11B 5143   6.239   2.319   6.132 -1.0436  0.7435  0.1213
   64SAPC     P 5144   6.491   2.325   5.973  0.4128  0.1024 -0.3010
   64SAPC   O13 5145   6.525   2.221   5.866  0.7662 -0.4222 -0.4296
   64SAPC   O14 5146   6.574   2.444   5.968 -0.7468  0.0474 -0.0639
   64SAPC   O12 5147   6.341   2.372   5.956  0.5545  0.2816 -0.5490
   64SAPC   O11 5148   6.494   2.261   6.120 -0.6574  0.3138  0.2152
   64SAPC    C1 5149   6.479   2.332   6.240  0.1231 -0.3589  0.4225
   64SAPC    HA 5150   6.424   2.427   6.227  0.4372 -0.4454 -1.8748
   64SAPC    HB 5151   6.432   2.267   6.318  1.1667 -0.1665  1.2411
   64SAPC    C2 5152   6.621   2.368   6.289  0.1293 -0.1063  0.4309
   64SAPC    HS 5153   6.677   2.398   6.198  0.0582 -1.6950 -0.1797
   64SAPC   O21 5154   6.674   2.249   6.353 -0.8397  0.1692 -0.3017
   64SAPC   C21 5155   6.803   2.241   6.349  0.5002  0.0124 -0.9154
   64SAPC   O22 5156   6.882   2.321   6.302  0.1835 -0.3609  0.0292
   64SAPC   C22 5157   6.840   2.119   6.432  0.2594  0.4235  0.3774
   64SAPC   H2R 5158   6.754   2.074   6.485 -1.0865  0.1918 -1.8677
   64SAPC   H2S 5159   6.871   2.039   6.361  0.7662  0.2251  0.8117
   64SAPC    C3 5160   6.601   2.491   6.382  0.1504  0.3666  0.5327
   64SAPC    HX 5161   6.557   2.567   6.314 -1.4030  0.5842  1.7452
   64SAPC    HY 5162   6.703   2.525   6.410  0.9077 -1.1553 -0.2324
   64SAPC   O31 5163   6.520   2.463   6.487  0.7644 -0.1342  0.5712
   64SAPC   C31 5164   6.559   2.494   6.606 -0.0349  0.0618 -0.0912
   64SAPC   O32 5165   6.646   2.571   6.638 -0.4885  0.0002  0.2296
   64SAPC   C32 5166   6.479   2.418   6.710  0.3304  0.0427 -0.8051
   64SAPC   H2X 5167   6.454   2.313   6.681  0.5462 -0.5037  0.9200
   64SAPC   H2Y 5168   6.389   2.481   6.722  1.2754  1.5228 -1.2165
   64SAPC   C23 5169   6.960   2.152   6.530  0.2604 -0.2882 -0.1153
   64SAPC   H3R 5170   7.037   2.200   6.465  0.4957  1.0961  1.1395
   64SAPC   H3S 5171   7.017   2.061   6.559  0.0541 -0.6753 -0.8805
   64SAPC   C24 5172   6.941   2.253   6.641 -0.9138  0.4879 -1.6613
   64SAPC   H4R 5173   6.885   2.341   6.603  0.5813  2.0976 -0.2898
   64SAPC   H4S 5174   7.040   2.295   6.666 -0.8941 -1.2609  1.8468
   64SAPC   C25 5175   6.872   2.191   6.767  0.6122 -0.7999  0.3910
   64SAPC   H5R 5176   6.792   2.121   6.737  0.8768 -0.2848 -1.7349
   64SAPC   C26 5177   6.919   2.202   6.891  0.4763 -0.3290 -0.4220
   64SAPC   H6R 5178   6.867   2.165   6.980 -0.7883 -1.3293 -1.5345
   64SAPC   C27 5179   7.039   2.284   6.931 -0.4632  0.3038  0.7060
   64SAPC   H7R 5180   7.086   2.335   6.844  1.2609  0.6224  1.7743
   64SAPC   H7S 5181   7.121   2.214   6.956 -0.6341 -0.1500  0.0139
   64SAPC   C28 5182   7.009   2.383   7.036 -0.5317 -0.0059 -0.3836
   64SAPC   H8R 5183   6.970   2.478   6.997  0.0163 -0.6508 -2.6593
   64SAPC   C29 5184   7.019   2.363   7.168  0.1498  0.6066  0.2778
   64SAPC   H9R 5185   6.982   2.445   7.232 -0.5790 -0.2339  0.9676
   64SAPC  C210 5186   7.073   2.241   7.240  0.5467 -0.1873  0.5962
   64SAPC  H10R 5187   7.087   2.160   7.166 -0.0393  0.1542  0.0927
   64SAPC  H10S 5188   6.995   2.194   7.304  0.1533 -1.1559 -0.5607
   64SAPC  C211 5189   7.206   2.271   7.318 -0.7716  0.0962  0.5275
   64SAPC  H11R 5190   7.294   2.301   7.258 -0.4936  0.6968  1.2131
   64SAPC  C212 5191   7.217   2.283   7.446 -0.6763 -0.7134  0.6179
   64SAPC  H12R 5192   7.320   2.297   7.483 -0.5654  2.0762 -0.4524
   64SAPC  C213 5193   7.127   2.263   7.562  0.5358  0.0165 -0.3346
   64SAPC  H13R 5194   7.044   2.194   7.537 -0.7119  1.6431 -0.8744
   64SAPC  H13S 5195   7.069   2.355   7.584  1.2899 -0.3350  4.0846
   64SAPC  C214 5196   7.179   2.234   7.701  0.1965 -0.0362 -0.6013
   64SAPC  H14R 5197   7.280   2.191   7.710  0.1439 -0.1203 -0.3896
   64SAPC  C215 5198   7.115   2.263   7.816 -0.3450  0.5975  0.0838
   64SAPC  H15R 5199   7.163   2.251   7.914  0.1262  0.6763 -0.1375
   64SAPC  C216 5200   6.977   2.323   7.811 -0.6453 -0.0315 -0.1722
   64SAPC  H16R 5201   6.909   2.277   7.736 -1.0544 -0.2447  0.3247
   64SAPC  H16S 5202   6.982   2.433   7.795  2.5034 -0.1140 -0.3534
   64SAPC  C217 5203   6.899   2.305   7.945  0.4705  0.5862  0.6112
   64SAPC  H17R 5204   6.917   2.198   7.965 -0.3757  0.5179  1.0614
   64SAPC  H17S 5205   6.789   2.316   7.933  0.3895  1.7843  2.1604
   64SAPC  C218 5206   6.941   2.384   8.062  0.8503  0.1832 -0.2810
   64SAPC  H18R 5207   6.953   2.494   8.047  1.3714  0.2575  0.6027
   64SAPC  H18S 5208   7.038   2.340   8.094 -0.7686 -2.6143  1.1493
   64SAPC  C219 5209   6.855   2.373   8.190 -0.0367 -0.6749  0.8801
   64SAPC  H19R 5210   6.923   2.394   8.275 -0.1250 -1.9922  1.2932
   64SAPC  H19S 5211   6.824   2.267   8.202 -1.2298 -0.6283 -1.2119
   64SAPC  C220 5212   6.729   2.468   8.197  0.0829  0.4509 -0.2984
   64SAPC  H20R 5213   6.663   2.439   8.281 -0.5691  1.2175 -0.5272
   64SAPC  H20S 5214   6.678   2.470   8.099  1.0310 -0.7157 -0.8380
   64SAPC  H20T 5215   6.760   2.573   8.218  1.9900  0.2856 -1.9600
   64SAPC   C33 5216   6.544   2.406   6.845  0.2149  0.8482 -0.5342
   64SAPC   H3X 5217   6.568   2.508   6.882 -0.6528  0.8947 -0.0678
   64SAPC   H3Y 5218   6.636   2.343   6.847 -1.2406 -1.4225 -1.0043
   64SAPC   C34 5219   6.445   2.341   6.936  0.3044 -0.0100 -0.4995
   64SAPC   H4X 5220   6.390   2.257   6.888 -0.0748  0.1930 -0.4214
   64SAPC   H4Y 5221   6.366   2.414   6.965  2.0927  1.1597  1.7966
   64SAPC   C35 5222   6.512   2.295   7.069 -0.1330  0.4290 -0.0378
   64SAPC   H5X 5223   6.606   2.241   7.045 -0.5750 -0.5781  0.4481
   64SAPC   H5Y 5224   6.444   2.241   7.138  1.0422  0.1239  0.9072
   64SAPC   C36 5225   6.564   2.411   7.157 -0.0473  0.0486  0.6448
   64SAPC   H6X 5226   6.484   2.486   7.168 -0.5786 -0.3985 -0.0478
   64SAPC   H6Y 5227   6.648   2.462   7.105 -1.6553 -0.0345 -2.2395
   64SAPC   C37 5228   6.616   2.361   7.293 -0.0870  0.0773 -0.5301
   64SAPC   H7X 5229   6.669   2.438   7.353  0.0462 -0.3271 -0.1225
   64SAPC   H7Y 5230   6.685   2.277   7.270 -0.1422 -0.5168  1.2882
   64SAPC   C38 5231   6.496   2.315   7.382 -0.1158  0.0459 -0.9522
   64SAPC   H8X 5232   6.464   2.217   7.340  0.6539 -0.4254 -0.4613
   64SAPC   H8Y 5233   6.409   2.384   7.388  1.0030  1.4481 -0.3530
   64SAPC   C39 5234   6.541   2.286   7.524  0.2568  0.0880  0.1863
   64SAPC   H9X 5235   6.584   2.379   7.566  1.8287 -0.5372  0.0290
   64SAPC   H9Y 5236   6.620   2.208   7.513 -0.5246 -0.7135  0.0899
   64SAPC  C310 5237   6.426   2.228   7.604  0.2352 -0.7992  0.0268
   64SAPC  H10X 5238   6.363   2.154   7.552 -2.3268  1.6900 -0.6668
   64SAPC  H10Y 5239   6.362   2.319   7.615 -1.0704 -1.5066 -1.3780
   64SAPC  C311 5240   6.450   2.182   7.749  0.1714 -0.4420 -0.4436
   64SAPC  H11X 5241   6.362   2.210   7.812 -0.1097 -0.2214 -0.9186
   64SAPC  H11Y 5242   6.538   2.233   7.793 -1.0690  0.5490  1.0169
   64SAPC  C312 5243   6.470   2.029   7.764  0.0900  0.3050 -0.3539
   64SAPC  H12X 5244   6.546   1.984   7.697  2.4047  1.1746  1.5167
   64SAPC  H12Y 5245   6.373   1.985   7.735 -1.6886  1.5643  3.1014
   64SAPC  C313 5246   6.512   1.986   7.903  0.5755 -0.5226  0.0803
   64SAPC  H13X 5247   6.445   2.040   7.974 -1.0976 -1.7181 -0.5386
   64SAPC  H13Y 5248   6.616   2.021   7.921 -0.7329  1.9766  4.2559
   64SAPC  C314 5249   6.505   1.837   7.929  0.8080 -0.1216  0.2447
   64SAPC  H14X 5250   6.532   1.774   7.842 -0.3915 -0.5156  0.1339
   64SAPC  H14Y 5251   6.399   1.806   7.942 -0.0969  3.2287  2.1467
   64SAPC  C315 5252   6.591   1.790   8.048  0.2269  0.5176  1.2481
   64SAPC  H15X 5253   6.698   1.788   8.019  0.4883  0.6011  2.1718
   64SAPC  H15Y 5254   6.572   1.684   8.075  0.5667  0.3587  0.8690
   64SAPC  C316 5255   6.566   1.869   8.176  0.7386  0.4695 -0.5118
   64SAPC  H16X 5256   6.563   1.979   8.159  0.1906  1.1295  3.0076
   64SAPC  H16Y 5257   6.659   1.864   8.236 -0.0971  2.4393  1.0585
   64SAPC  C317 5258   6.449   1.819   8.262 -0.8359 -0.7279  0.6934
   64SAPC  H17X 5259   6.356   1.856   8.214  0.5419  1.0872 -0.7511
   64SAPC  H17Y 5260   6.484   1.875   8.352  1.6671 -1.3731  0.2045
   64SAPC  C318 5261   6.442   1.675   8.294 -0.4820 -0.2986  1.0123
   64SAPC  H18X 5262   6.391   1.617   8.214 -1.2234  0.3527  1.0046
   64SAPC  H18Y 5263   6.373   1.662   8.380 -2.0113 -0.7384 -0.2211
   64SAPC  H18Z 5264   6.541   1.632   8.320 -0.1622  0.0815  0.4537
   65SAPC     N 5265   6.017   3.772   5.892 -0.7803 -0.2181 -0.0799
   65SAPC   C12 5266   5.980   3.794   6.045 -0.6567 -0.5494  0.8490
   65SAPC  H12A 5267   6.073   3.818   6.095 -1.4204 -0.6663  2.3770
   65SAPC  H12B 5268   5.965   3.695   6.084  0.3068 -0.2399  2.0805
   65SAPC   C13 5269   5.930   3.678   5.820  0.2958 -0.0407 -0.4861
   65SAPC  H13A 5270   5.928   3.692   5.713 -1.0247 -0.3870 -0.5185
   65SAPC  H13B 5271   5.960   3.577   5.842  1.5029  0.3292 -0.3586
   65SAPC  H13C 5272   5.827   3.703   5.841 -0.0780 -0.7690 -1.4076
   65SAPC   C14 5273   6.017   3.905   5.828  0.1351 -0.3007  0.1892
   65SAPC  H14A 5274   5.922   3.957   5.832 -0.5232 -1.5383  1.1645
   65SAPC  H14B 5275   6.087   3.972   5.875 -1.7117  0.9165  1.3254
   65SAPC  H14C 5276   6.044   3.897   5.724 -0.6060 -2.1000  0.1003
   65SAPC   C15 5277   6.149   3.714   5.878  0.3710  0.7370  0.4795
   65SAPC  H15A 5278   6.224   3.762   5.939  1.2677 -1.4836  1.2272
   65SAPC  H15B 5279   6.142   3.616   5.923 -2.5170 -0.6346 -2.5477
   65SAPC  H15C 5280   6.186   3.706   5.776  2.0402  1.6331  0.9845
   65SAPC   C11 5281   5.850   3.874   6.076 -0.3869  0.0781  0.0867
   65SAPC  H11A 5282   5.872   3.980   6.051 -0.2991  0.4666  1.7468
   65SAPC  H11B 5283   5.832   3.876   6.185 -1.9352  1.9460 -0.1345
   65SAPC     P 5284   5.633   3.723   6.080  0.0706  0.4779  0.0843
   65SAPC   O13 5285   5.495   3.751   6.031 -0.1223 -0.1782  0.6905
   65SAPC   O14 5286   5.675   3.586   6.056 -0.3766  0.2651  0.2836
   65SAPC   O12 5287   5.737   3.818   6.005  0.3190 -0.1876 -0.2487
   65SAPC   O11 5288   5.645   3.764   6.224  0.0499 -0.3183 -0.7281
   65SAPC    C1 5289   5.578   3.875   6.286 -0.4343 -0.2651 -0.5468
   65SAPC    HA 5290   5.641   3.966   6.274  0.0705 -0.8134 -2.3130
   65SAPC    HB 5291   5.481   3.893   6.236  0.1172 -0.8116 -1.8584
   65SAPC    C2 5292   5.556   3.855   6.438 -0.3678 -0.5905  0.4959
   65SAPC    HS 5293   5.474   3.926   6.463  0.9167  0.8346  0.8068
   65SAPC   O21 5294   5.679   3.871   6.512 -0.3431 -0.7515  0.0935
   65SAPC   C21 5295   5.709   3.999   6.531 -0.2038 -1.0367  0.0994
   65SAPC   O22 5296   5.652   4.095   6.482  0.6979 -0.4915 -0.0480
   65SAPC   C22 5297   5.825   4.008   6.628 -0.0733 -0.3311 -0.6223
   65SAPC   H2R 5298   5.799   3.940   6.712 -0.4748 -1.4980 -1.6626
   65SAPC   H2S 5299   5.912   3.966   6.573 -1.1652 -0.5769 -2.2236
   65SAPC    C3 5300   5.510   3.708   6.470 -0.2104  0.8168 -0.0762
   65SAPC    HX 5301   5.590   3.641   6.434 -0.1676 -1.1130  3.2469
   65SAPC    HY 5302   5.417   3.698   6.410 -0.1353 -0.8979  0.0506
   65SAPC   O31 5303   5.470   3.678   6.608  0.0369  0.1336  0.3225
   65SAPC   C31 5304   5.499   3.548   6.645  0.5724  0.5300  0.0285
   65SAPC   O32 5305   5.531   3.467   6.562  0.3083  0.3889  0.4350
   65SAPC   C32 5306   5.491   3.521   6.798  0.2148 -0.1569 -0.3757
   65SAPC   H2X 5307   5.406   3.571   6.851  2.5793  1.6696  1.9557
   65SAPC   H2Y 5308   5.582   3.556   6.851 -0.9892  2.5479  0.1235
   65SAPC   C23 5309   5.842   4.153   6.687 -0.1665 -0.1277  0.0466
   65SAPC   H3R 5310   5.756   4.197   6.741  1.3646  2.6693  0.3570
   65SAPC   H3S 5311   5.864   4.222   6.603  0.5287 -0.2099  0.1589
   65SAPC   C24 5312   5.974   4.180   6.768  0.0004  0.4758  0.0741
   65SAPC   H4R 5313   5.994   4.289   6.779  0.3493  0.3474  0.7896
   65SAPC   H4S 5314   6.058   4.143   6.706 -0.1148  2.6234 -1.4732
   65SAPC   C25 5315   5.968   4.103   6.904 -0.9524 -0.5305  0.2295
   65SAPC   H5R 5316   6.013   4.002   6.907 -1.7609 -0.8929  0.6072
   65SAPC   C26 5317   5.910   4.147   7.019  0.1227  0.0108  0.7210
   65SAPC   H6R 5318   5.913   4.092   7.114 -3.3225 -2.4513 -0.3918
   65SAPC   C27 5319   5.850   4.286   7.015 -0.0477 -0.6574  0.4128
   65SAPC   H7R 5320   5.771   4.301   6.938 -0.7300 -0.1213  1.1953
   65SAPC   H7S 5321   5.925   4.365   6.994  1.9422 -2.6239 -0.2491
   65SAPC   C28 5322   5.789   4.301   7.152 -0.4715 -0.1482  0.0028
   65SAPC   H8R 5323   5.856   4.303   7.239 -1.8343 -0.2843  1.1013
   65SAPC   C29 5324   5.662   4.335   7.192  0.0146 -0.2691  0.6023
   65SAPC   H9R 5325   5.638   4.350   7.298 -1.6562  3.5866 -0.1370
   65SAPC  C210 5326   5.552   4.345   7.092 -0.7087  0.2120  0.5234
   65SAPC  H10R 5327   5.461   4.287   7.117 -0.4951 -0.9200 -1.1449
   65SAPC  H10S 5328   5.576   4.306   6.991 -0.7631 -2.0089  1.3029
   65SAPC  C211 5329   5.516   4.490   7.069  0.9868 -0.0579  0.2933
   65SAPC  H11R 5330   5.594   4.567   7.079  0.2533  1.2345 -2.7273
   65SAPC  C212 5331   5.393   4.532   7.038  0.1201 -0.3009 -0.0206
   65SAPC  H12R 5332   5.373   4.638   7.014 -1.4635  0.0054  2.3782
   65SAPC  C213 5333   5.278   4.449   6.993  0.1487  0.6132 -0.3355
   65SAPC  H13R 5334   5.210   4.421   7.076  1.4468  2.7432  1.5710
   65SAPC  H13S 5335   5.311   4.350   6.953 -0.3838  0.4968 -0.5043
   65SAPC  C214 5336   5.189   4.511   6.893 -0.1617  0.0408  0.2879
   65SAPC  H14R 5337   5.236   4.593   6.837 -0.5794 -0.1373 -0.3438
   65SAPC  C215 5338   5.073   4.461   6.849 -0.3001  0.5158 -0.3332
   65SAPC  H15R 5339   5.022   4.512   6.766  0.7757  0.1854 -1.2230
   65SAPC  C216 5340   5.012   4.334   6.884 -0.6600  0.1928 -0.9355
   65SAPC  H16R 5341   4.959   4.350   6.981  1.5912 -3.4695  1.1350
   65SAPC  H16S 5342   5.082   4.251   6.907 -0.4922  0.6407  0.3015
   65SAPC  C217 5343   4.910   4.277   6.775 -0.5914  0.5915  0.4459
   65SAPC  H17R 5344   4.952   4.294   6.674  0.9412 -2.4592  0.4490
   65SAPC  H17S 5345   4.813   4.331   6.775 -1.4897 -0.9688  0.1269
   65SAPC  C218 5346   4.867   4.128   6.807 -0.9718 -0.3932  0.1356
   65SAPC  H18R 5347   4.963   4.080   6.836 -1.5465 -2.2121 -0.7796
   65SAPC  H18S 5348   4.833   4.078   6.713 -2.1178 -0.3008  0.4845
   65SAPC  C219 5349   4.756   4.117   6.917 -0.4296  0.2291  0.0573
   65SAPC  H19R 5350   4.657   4.134   6.870  0.1827  1.4146 -0.8480
   65SAPC  H19S 5351   4.765   4.202   6.988 -0.4837  0.5206 -0.2817
   65SAPC  C220 5352   4.778   3.983   6.989 -0.1042  0.1134 -0.5168
   65SAPC  H20R 5353   4.702   3.961   7.067  1.0689 -1.2898  0.2629
   65SAPC  H20S 5354   4.878   3.974   7.036  0.5066 -1.1393 -1.9716
   65SAPC  H20T 5355   4.770   3.896   6.921  0.0147  0.1124 -0.5289
   65SAPC   C33 5356   5.474   3.366   6.824 -0.2560  0.6612  0.1338
   65SAPC   H3X 5357   5.413   3.305   6.755 -1.1491  1.4730  0.1754
   65SAPC   H3Y 5358   5.436   3.349   6.927  1.1793 -0.2251  0.5413
   65SAPC   C34 5359   5.607   3.290   6.818 -0.4989  0.0065  0.3943
   65SAPC   H4X 5360   5.655   3.298   6.718  2.6860 -0.4077  1.7658
   65SAPC   H4Y 5361   5.588   3.183   6.837 -0.8284 -0.4155 -1.9998
   65SAPC   C35 5362   5.726   3.331   6.915  0.3209  0.5128 -0.3876
   65SAPC   H5X 5363   5.788   3.415   6.875 -0.0799  0.3902 -1.2969
   65SAPC   H5Y 5364   5.792   3.242   6.916  0.6898  0.7849 -0.3087
   65SAPC   C36 5365   5.687   3.365   7.065  0.2580 -0.0614  0.1843
   65SAPC   H6X 5366   5.629   3.284   7.114 -0.4283  2.0107  3.0248
   65SAPC   H6Y 5367   5.631   3.460   7.081 -1.3068 -0.9078 -0.0470
   65SAPC   C37 5368   5.805   3.380   7.159 -0.9361  1.1869  0.2859
   65SAPC   H7X 5369   5.885   3.441   7.111  0.1675  0.6621  1.4098
   65SAPC   H7Y 5370   5.858   3.286   7.184 -0.2253  1.0147 -1.6837
   65SAPC   C38 5371   5.767   3.435   7.298  0.2323  0.7661 -0.4290
   65SAPC   H8X 5372   5.667   3.398   7.332  0.7398  0.1965  0.4600
   65SAPC   H8Y 5373   5.755   3.544   7.285  1.3709  1.0863  1.0527
   65SAPC   C39 5374   5.862   3.412   7.405 -0.2152  0.2790 -0.1998
   65SAPC   H9X 5375   5.969   3.441   7.395 -0.1782  0.4020  0.4930
   65SAPC   H9Y 5376   5.870   3.302   7.420  0.5779  0.0669 -1.9628
   65SAPC  C310 5377   5.813   3.469   7.540  0.1710  0.3418  0.3636
   65SAPC  H10X 5378   5.719   3.415   7.562  0.0268  0.9208  1.2246
   65SAPC  H10Y 5379   5.808   3.579   7.535 -0.0967  0.2851 -0.9053
   65SAPC  C311 5380   5.917   3.433   7.647  0.0108  0.0027 -0.0043
   65SAPC  H11X 5381   6.017   3.476   7.623  0.2141  0.7966  2.0641
   65SAPC  H11Y 5382   5.936   3.324   7.646 -0.0852 -0.0112 -0.7349
   65SAPC  C312 5383   5.888   3.477   7.791  0.5353  0.1614  0.1967
   65SAPC  H12X 5384   5.789   3.440   7.825 -0.4930  1.4157 -1.3054
   65SAPC  H12Y 5385   5.877   3.587   7.780 -0.1780  0.2519  1.5669
   65SAPC  C313 5386   5.997   3.459   7.893 -0.2617  0.0112 -0.2116
   65SAPC  H13X 5387   6.039   3.358   7.876 -0.7179 -0.0644 -0.9259
   65SAPC  H13Y 5388   5.966   3.473   7.999 -0.0836 -0.8737 -0.0328
   65SAPC  C314 5389   6.120   3.550   7.861 -0.4027 -0.2213  0.0232
   65SAPC  H14X 5390   6.136   3.569   7.753  1.3679 -2.4347 -0.1844
   65SAPC  H14Y 5391   6.208   3.499   7.906 -0.7420 -0.6342  0.2268
   65SAPC  C315 5392   6.105   3.692   7.933  0.1402 -0.1891  0.7331
   65SAPC  H15X 5393   6.088   3.678   8.042  1.0033  1.2091  1.0664
   65SAPC  H15Y 5394   6.020   3.744   7.885  0.0219 -0.3469  0.7719
   65SAPC  C316 5395   6.236   3.789   7.920  0.0605 -0.1371  0.5338
   65SAPC  H16X 5396   6.260   3.807   7.813 -0.4584 -0.0271  0.4339
   65SAPC  H16Y 5397   6.325   3.733   7.956 -0.2949 -2.6421 -2.1341
   65SAPC  C317 5398   6.216   3.922   7.988 -0.5329  0.2783 -0.5053
   65SAPC  H17X 5399   6.211   3.898   8.097  3.2086 -1.5855 -0.5925
   65SAPC  H17Y 5400   6.122   3.956   7.940 -0.0009  0.4846 -1.4251
   65SAPC  C318 5401   6.339   4.021   7.964  0.2840  0.0246 -0.0028
   65SAPC  H18X 5402   6.433   3.967   7.988  0.4670  1.2851  2.4498
   65SAPC  H18Y 5403   6.333   4.105   8.037 -2.0956  0.1397 -0.2444
   65SAPC  H18Z 5404   6.340   4.049   7.857  1.8993 -0.7516 -0.2216
   66SAPC     N 5405   4.054   2.705   5.927 -0.3604  0.1842 -0.0111
   66SAPC   C12 5406   4.081   2.569   5.870  0.4653  0.5235  0.2913
   66SAPC  H12A 5407   4.114   2.502   5.948 -0.8429  0.2852  0.6701
   66SAPC  H12B 5408   4.167   2.573   5.805  0.7474 -0.7003  0.5712
   66SAPC   C13 5409   4.186   2.752   5.978  0.2935  0.0480  0.1044
   66SAPC  H13A 5410   4.220   2.686   6.057 -0.4904  0.4271  0.7709
   66SAPC  H13B 5411   4.262   2.744   5.902  1.2591 -3.4754  1.2447
   66SAPC  H13C 5412   4.176   2.848   6.026 -0.0438 -1.5515  3.5365
   66SAPC   C14 5413   4.014   2.800   5.813 -0.2237 -0.1769 -0.4508
   66SAPC  H14A 5414   3.942   2.746   5.753 -2.1805  1.5857  0.1955
   66SAPC  H14B 5415   3.978   2.897   5.842 -1.8365 -0.7910 -0.2734
   66SAPC  H14C 5416   4.095   2.812   5.744  0.2009  0.0535  0.0817
   66SAPC   C15 5417   3.960   2.701   6.029  0.2744  0.3800  0.0058
   66SAPC  H15A 5418   3.943   2.793   6.083 -3.4619 -2.4124  4.3471
   66SAPC  H15B 5419   3.870   2.675   5.977  1.0080 -2.7433  0.0985
   66SAPC  H15C 5420   3.976   2.615   6.093 -0.2720 -0.7102 -1.2810
   66SAPC   C11 5421   3.968   2.496   5.793 -0.2951  0.1549 -0.0675
   66SAPC  H11A 5422   4.018   2.404   5.756  1.1876  1.7087 -2.1795
   66SAPC  H11B 5423   3.936   2.540   5.696  1.6822  0.5972 -0.5524
   66SAPC     P 5424   3.854   2.340   5.975 -0.3923 -0.2788  0.2919
   66SAPC   O13 5425   3.754   2.247   5.915 -0.3517  0.8501  0.1498
   66SAPC   O14 5426   3.993   2.296   5.994  0.2170 -0.1452 -0.5566
   66SAPC   O12 5427   3.853   2.460   5.874  0.1565  0.0025 -0.0441
   66SAPC   O11 5428   3.792   2.395   6.111  0.5816 -0.4252  1.1495
   66SAPC    C1 5429   3.856   2.363   6.233 -0.3506  0.2840 -0.8289
   66SAPC    HA 5430   3.871   2.254   6.244 -0.9932  0.0270 -2.3165
   66SAPC    HB 5431   3.959   2.405   6.241  0.2913 -1.5401  3.0227
   66SAPC    C2 5432   3.779   2.401   6.362 -0.5559 -0.1354  0.8890
   66SAPC    HS 5433   3.835   2.356   6.446  0.6936 -1.6212 -0.6748
   66SAPC   O21 5434   3.657   2.340   6.360  0.3516  0.0531  0.4753
   66SAPC   C21 5435   3.590   2.344   6.472  0.1422 -0.1987  0.1508
   66SAPC   O22 5436   3.629   2.396   6.574 -0.3964  0.1934  0.0191
   66SAPC   C22 5437   3.456   2.271   6.452  0.5810 -0.4178  0.2631
   66SAPC   H2R 5438   3.418   2.299   6.351  0.9428 -0.9989 -0.0383
   66SAPC   H2S 5439   3.478   2.162   6.456 -1.5448 -0.8548  2.1584
   66SAPC    C3 5440   3.766   2.552   6.374  0.7563 -0.2015 -0.3550
   66SAPC    HX 5441   3.704   2.587   6.460  0.1164  1.6455 -1.5218
   66SAPC    HY 5442   3.712   2.583   6.283 -1.0611  2.1064  1.3795
   66SAPC   O31 5443   3.903   2.613   6.379  0.1981  0.0141 -0.1154
   66SAPC   C31 5444   3.935   2.670   6.491 -0.3469  0.9918  0.4067
   66SAPC   O32 5445   3.865   2.679   6.589  0.3391 -0.0943  0.0581
   66SAPC   C32 5446   4.067   2.745   6.478 -0.1099 -0.0267  0.6621
   66SAPC   H2X 5447   4.054   2.821   6.398  2.8013  2.3231  2.2217
   66SAPC   H2Y 5448   4.151   2.676   6.459 -0.1210  0.1290  0.0341
   66SAPC   C23 5449   3.356   2.311   6.562 -0.4409 -0.1779  0.3041
   66SAPC   H3R 5450   3.308   2.408   6.538  2.1918  1.4269  1.0917
   66SAPC   H3S 5451   3.409   2.332   6.657  0.7175  3.3850 -0.9730
   66SAPC   C24 5452   3.253   2.206   6.578 -0.0120  0.6735  0.7114
   66SAPC   H4R 5453   3.292   2.105   6.598 -1.6968 -0.3435 -0.7878
   66SAPC   H4S 5454   3.215   2.197   6.474  1.2061 -0.2462  0.3274
   66SAPC   C25 5455   3.144   2.247   6.665 -0.1813 -0.1025  0.0602
   66SAPC   H5R 5456   3.074   2.316   6.616 -0.2774 -1.0427 -1.1952
   66SAPC   C26 5457   3.128   2.223   6.801  1.0669  0.3927 -0.2010
   66SAPC   H6R 5458   3.044   2.273   6.851 -0.6800 -1.2452 -1.3552
   66SAPC   C27 5459   3.232   2.150   6.878  0.6233 -0.0055 -0.3590
   66SAPC   H7R 5460   3.307   2.105   6.810  0.9228  0.5555 -0.4122
   66SAPC   H7S 5461   3.192   2.070   6.944  2.1343 -1.4289 -1.1113
   66SAPC   C28 5462   3.323   2.249   6.946  0.3376  0.4485  0.5135
   66SAPC   H8R 5463   3.393   2.308   6.885  1.0968  1.4250  2.2233
   66SAPC   C29 5464   3.334   2.270   7.080  0.2983  0.7062  0.0176
   66SAPC   H9R 5465   3.398   2.357   7.103  2.1607 -0.7699  0.7154
   66SAPC  C210 5466   3.254   2.201   7.192 -0.9153  0.2258  0.3046
   66SAPC  H10R 5467   3.245   2.092   7.173  0.4255  0.0449  0.5998
   66SAPC  H10S 5468   3.149   2.236   7.186 -2.3232 -3.6574 -0.5200
   66SAPC  C211 5469   3.303   2.222   7.333  0.2814 -0.2596  0.2894
   66SAPC  H11R 5470   3.409   2.234   7.360  0.2950 -0.4663  0.3310
   66SAPC  C212 5471   3.220   2.213   7.440  0.3867 -0.1684 -0.6683
   66SAPC  H12R 5472   3.275   2.203   7.535  0.0948 -0.8730 -0.5684
   66SAPC  C213 5473   3.071   2.199   7.457  0.2130  0.4668 -0.4569
   66SAPC  H13R 5474   3.041   2.112   7.519  0.3539  0.1904 -0.7740
   66SAPC  H13S 5475   3.016   2.202   7.360  2.9197  1.6324 -2.0753
   66SAPC  C214 5476   3.043   2.330   7.537  0.5289 -0.1063 -0.3784
   66SAPC  H14R 5477   2.996   2.406   7.471  0.0153  0.1874  0.3111
   66SAPC  C215 5478   3.077   2.348   7.665 -0.0979  0.1395  0.4016
   66SAPC  H15R 5479   3.058   2.450   7.702 -0.2684  0.4527 -0.5228
   66SAPC  C216 5480   3.138   2.255   7.773 -0.7917  0.2753 -0.2505
   66SAPC  H16R 5481   3.248   2.255   7.792 -1.0048 -4.4542  2.6286
   66SAPC  H16S 5482   3.112   2.151   7.743 -1.3147 -0.0919  1.3885
   66SAPC  C217 5483   3.072   2.282   7.910 -0.3023 -0.1153  0.8244
   66SAPC  H17R 5484   3.112   2.379   7.945  0.8349  0.2512 -1.3179
   66SAPC  H17S 5485   3.118   2.208   7.979 -0.0598  0.7799  1.6413
   66SAPC  C218 5486   2.920   2.271   7.926  0.3422  0.3201 -0.1424
   66SAPC  H18R 5487   2.889   2.171   7.887  0.1178  0.1609  0.4297
   66SAPC  H18S 5488   2.879   2.346   7.856 -1.3802  0.3022  0.7941
   66SAPC  C219 5489   2.872   2.284   8.073  0.6162 -0.5168 -0.1969
   66SAPC  H19R 5490   2.855   2.392   8.092  1.6849 -0.0628 -1.6158
   66SAPC  H19S 5491   2.953   2.244   8.138  0.9560 -0.8094 -0.7966
   66SAPC  C220 5492   2.735   2.210   8.094  0.2975 -1.0146  0.0999
   66SAPC  H20R 5493   2.715   2.215   8.203  0.1303 -2.2379  0.1473
   66SAPC  H20S 5494   2.764   2.104   8.077 -2.0606 -1.7216  0.0910
   66SAPC  H20T 5495   2.647   2.244   8.035  0.8403  0.2059 -0.0279
   66SAPC   C33 5496   4.087   2.829   6.612  0.6363  0.3177 -0.8756
   66SAPC   H3X 5497   4.101   2.756   6.695 -1.2055  2.2260  1.2386
   66SAPC   H3Y 5498   4.005   2.901   6.633  0.0088 -0.6324 -0.0201
   66SAPC   C34 5499   4.218   2.903   6.615  0.4902  0.3583 -0.1664
   66SAPC   H4X 5500   4.213   2.981   6.536 -0.8472  0.3234 -0.1438
   66SAPC   H4Y 5501   4.305   2.839   6.592  1.3454  1.5494 -0.3499
   66SAPC   C35 5502   4.230   2.975   6.752 -0.2832 -0.2101 -0.4534
   66SAPC   H5X 5503   4.240   2.902   6.835  0.9373 -1.2198 -1.4323
   66SAPC   H5Y 5504   4.140   3.037   6.773 -1.4223 -1.2041 -2.1446
   66SAPC   C36 5505   4.362   3.059   6.753  0.7491  0.7024  0.0642
   66SAPC   H6X 5506   4.360   3.130   6.668  0.8042 -0.3157 -0.8076
   66SAPC   H6Y 5507   4.447   2.994   6.721  0.1999 -0.3052  0.5998
   66SAPC   C37 5508   4.390   3.143   6.878  0.4061  0.3538  0.1388
   66SAPC   H7X 5509   4.319   3.229   6.877  1.5514  1.3267  0.1199
   66SAPC   H7Y 5510   4.487   3.196   6.870 -0.6504  2.1738 -1.4417
   66SAPC   C38 5511   4.398   3.065   7.010 -0.2335 -0.9904  0.1032
   66SAPC   H8X 5512   4.478   2.988   7.001 -0.7540 -1.5647  0.3005
   66SAPC   H8Y 5513   4.298   3.023   7.038 -0.8421 -0.5462 -1.3174
   66SAPC   C39 5514   4.430   3.154   7.136 -0.1247  0.1289 -0.2111
   66SAPC   H9X 5515   4.363   3.243   7.134 -0.4684 -0.1364 -1.5047
   66SAPC   H9Y 5516   4.535   3.186   7.152  0.6192 -2.2932  0.1404
   66SAPC  C310 5517   4.421   3.062   7.265  0.1432 -0.2626 -0.2917
   66SAPC  H10X 5518   4.497   2.981   7.266 -1.3496 -1.7199 -0.0360
   66SAPC  H10Y 5519   4.320   3.017   7.250  1.0444 -1.8657 -1.9758
   66SAPC  C311 5520   4.423   3.150   7.390 -0.4589 -0.1033  0.8997
   66SAPC  H11X 5521   4.356   3.238   7.376  2.6598  2.7866  2.4950
   66SAPC  H11Y 5522   4.526   3.191   7.386 -1.1330  1.6356 -1.1460
   66SAPC  C312 5523   4.406   3.070   7.514 -0.1459 -0.3840  0.6297
   66SAPC  H12X 5524   4.464   2.975   7.514  0.1192 -0.2283 -0.3561
   66SAPC  H12Y 5525   4.300   3.039   7.522  0.2555 -3.0096 -2.3033
   66SAPC  C313 5526   4.458   3.144   7.640  0.1268 -0.7172 -1.0439
   66SAPC  H13X 5527   4.410   3.244   7.643  0.2036 -0.6850 -0.9078
   66SAPC  H13Y 5528   4.560   3.178   7.615  0.3199 -0.8070 -0.3870
   66SAPC  C314 5529   4.452   3.076   7.774  0.4499 -0.1534 -0.2995
   66SAPC  H14X 5530   4.508   2.980   7.773  1.8846  0.4778  3.2651
   66SAPC  H14Y 5531   4.345   3.061   7.798  0.2834  1.3757  0.0261
   66SAPC  C315 5532   4.509   3.159   7.894 -0.0440 -0.3625  0.9445
   66SAPC  H15X 5533   4.461   3.259   7.888  1.8655  0.5707  0.4086
   66SAPC  H15Y 5534   4.620   3.168   7.891  0.1112 -1.9606 -1.6540
   66SAPC  C316 5535   4.478   3.101   8.025  0.4896 -0.0938 -0.4521
   66SAPC  H16X 5536   4.537   3.008   8.042  0.1624 -0.1288  0.5634
   66SAPC  H16Y 5537   4.372   3.069   8.033  0.6919 -0.4356  1.2968
   66SAPC  C317 5538   4.494   3.195   8.152  0.4359  0.5301 -0.7575
   66SAPC  H17X 5539   4.456   3.142   8.242  1.1294  1.0491 -0.1413
   66SAPC  H17Y 5540   4.414   3.271   8.147 -2.5857 -2.2621  1.3375
   66SAPC  C318 5541   4.628   3.249   8.170 -0.1008 -0.0526  0.1857
   66SAPC  H18X 5542   4.662   3.307   8.081 -3.1764  1.2890 -0.2322
   66SAPC  H18Y 5543   4.698   3.167   8.197 -2.4462 -2.1336  0.2663
   66SAPC  H18Z 5544   4.628   3.323   8.253  2.1161  0.7095 -0.4253
   67SAPC     N 5545   6.523   4.350   6.018 -0.1618  0.4332 -0.0918
   67SAPC   C12 5546   6.374   4.336   6.003  0.3370  1.0695 -0.0173
   67SAPC  H12A 5547   6.345   4.248   5.947  0.8887  0.1312  1.1266
   67SAPC  H12B 5548   6.343   4.419   5.941  0.4823  0.9744 -0.2199
   67SAPC   C13 5549   6.569   4.450   6.120  0.2263  0.2086 -0.2642
   67SAPC  H13A 5550   6.512   4.442   6.211 -0.2701  1.3615 -0.4519
   67SAPC  H13B 5551   6.675   4.438   6.133  0.2252  0.0100 -0.4399
   67SAPC  H13C 5552   6.552   4.550   6.082  2.5709  1.0088  0.5877
   67SAPC   C14 5553   6.575   4.218   6.067 -0.3443  0.5399 -0.2526
   67SAPC  H14A 5554   6.682   4.202   6.066 -0.5245 -0.7619 -1.5398
   67SAPC  H14B 5555   6.540   4.182   6.163  1.0731 -1.8359 -0.5271
   67SAPC  H14C 5556   6.543   4.144   5.995 -2.8172 -0.2449  1.4946
   67SAPC   C15 5557   6.595   4.386   5.886  0.0803 -0.2489 -0.6161
   67SAPC  H15A 5558   6.550   4.332   5.805  0.7262 -1.2935 -0.3027
   67SAPC  H15B 5559   6.597   4.492   5.863  0.4921  0.6965  3.1582
   67SAPC  H15C 5560   6.701   4.364   5.887  0.4452  1.3756  0.0243
   67SAPC   C11 5561   6.291   4.328   6.135 -0.1182  0.1430  0.2180
   67SAPC  H11A 5562   6.307   4.415   6.202  1.8366 -0.9020  1.1897
   67SAPC  H11B 5563   6.324   4.238   6.191  1.1577  0.7954  0.5524
   67SAPC     P 5564   6.072   4.223   6.021  0.0800  0.0831  0.2552
   67SAPC   O13 5565   5.956   4.292   5.973  0.3110  0.6270 -0.0971
   67SAPC   O14 5566   6.156   4.154   5.916 -0.3001  0.2873 -0.0368
   67SAPC   O12 5567   6.149   4.326   6.105 -0.1550 -0.1631 -0.8473
   67SAPC   O11 5568   6.028   4.122   6.131  0.0518 -0.0644 -0.1390
   67SAPC    C1 5569   5.951   4.168   6.249  0.2770  0.5078 -0.7529
   67SAPC    HA 5570   5.908   4.270   6.242 -0.2838  0.3151 -0.1778
   67SAPC    HB 5571   5.857   4.110   6.261 -0.4658  2.1685  2.9333
   67SAPC    C2 5572   6.038   4.137   6.374 -0.6514  0.0572 -0.6962
   67SAPC    HS 5573   5.966   4.135   6.459  1.0638 -1.9270  0.8072
   67SAPC   O21 5574   6.149   4.223   6.395 -1.0383  0.0505 -0.0419
   67SAPC   C21 5575   6.114   4.349   6.429  0.4298  0.0377 -0.4099
   67SAPC   O22 5576   6.000   4.400   6.423  0.2925  0.8656  0.1068
   67SAPC   C22 5577   6.236   4.414   6.491 -0.6028  0.3928 -0.4281
   67SAPC   H2R 5578   6.311   4.335   6.514  1.2706  2.2346  0.1064
   67SAPC   H2S 5579   6.289   4.490   6.429  0.9406  0.3477  0.7538
   67SAPC    C3 5580   6.079   3.993   6.364  0.2371  0.1408 -0.1984
   67SAPC    HX 5581   6.161   3.989   6.289 -1.1409  0.9934 -1.8420
   67SAPC    HY 5582   5.990   3.943   6.319 -0.1991  0.9371 -0.2578
   67SAPC   O31 5583   6.111   3.923   6.489 -0.0347 -0.7111 -0.2845
   67SAPC   C31 5584   6.244   3.941   6.529  0.2359  0.5670  0.4844
   67SAPC   O32 5585   6.333   3.989   6.458  0.1033  0.5187  0.4230
   67SAPC   C32 5586   6.249   3.898   6.678 -0.4766 -0.5557  0.7023
   67SAPC   H2X 5587   6.271   3.789   6.667 -2.8414 -0.9111 -1.4507
   67SAPC   H2Y 5588   6.151   3.920   6.725 -1.7895 -2.0582 -1.1522
   67SAPC   C23 5589   6.185   4.492   6.621  0.4290 -0.6724  0.2571
   67SAPC   H3R 5590   6.123   4.430   6.688  0.6617  0.1727  1.2890
   67SAPC   H3S 5591   6.134   4.583   6.583  2.0846  0.5675  0.8801
   67SAPC   C24 5592   6.294   4.540   6.717  0.5321  0.0775 -0.1767
   67SAPC   H4R 5593   6.237   4.580   6.804 -1.0704 -0.7952 -0.7825
   67SAPC   H4S 5594   6.352   4.624   6.674  3.2584 -1.2114  0.7253
   67SAPC   C25 5595   6.390   4.425   6.749  0.5756  0.8204  0.5255
   67SAPC   H5R 5596   6.470   4.393   6.680 -0.0411 -0.3177  0.3064
   67SAPC   C26 5597   6.380   4.341   6.858  0.6017  0.0855 -0.4077
   67SAPC   H6R 5598   6.463   4.270   6.875  1.1139  1.1059  1.6149
   67SAPC   C27 5599   6.277   4.340   6.974 -0.3277 -0.5874 -0.4199
   67SAPC   H7R 5600   6.190   4.274   6.955  1.0736 -2.1937 -1.5406
   67SAPC   H7S 5601   6.238   4.443   6.986 -1.6990 -1.2470  1.0741
   67SAPC   C28 5602   6.348   4.304   7.103  0.4486  0.2121 -0.1839
   67SAPC   H8R 5603   6.456   4.324   7.112  0.3598  1.6841 -1.8515
   67SAPC   C29 5604   6.296   4.250   7.211  0.3430  0.3700 -0.4601
   67SAPC   H9R 5605   6.357   4.238   7.302 -0.0626 -1.6769 -0.4111
   67SAPC  C210 5606   6.152   4.201   7.223 -0.4162  1.0079  0.5315
   67SAPC  H10R 5607   6.135   4.107   7.167  1.5749  0.9481 -0.0447
   67SAPC  H10S 5608   6.085   4.276   7.176 -0.5845  0.7942  0.4310
   67SAPC  C211 5609   6.120   4.168   7.366  0.5335  0.2236  1.3537
   67SAPC  H11R 5610   6.083   4.255   7.423 -2.0413  1.3587 -1.7521
   67SAPC  C212 5611   6.152   4.057   7.434 -0.2394  0.1263  0.2723
   67SAPC  H12R 5612   6.106   4.049   7.534  0.1195 -1.7766  0.3201
   67SAPC  C213 5613   6.233   3.938   7.385  0.4559  0.3218 -0.0194
   67SAPC  H13R 5614   6.341   3.952   7.409  0.4447 -0.1068  0.3114
   67SAPC  H13S 5615   6.236   3.944   7.274 -0.1998  2.6503  0.0490
   67SAPC  C214 5616   6.179   3.805   7.431 -1.0020 -0.0545  1.1030
   67SAPC  H14R 5617   6.142   3.806   7.535 -0.1752  0.0425  1.4006
   67SAPC  C215 5618   6.163   3.700   7.356 -0.4775 -0.0715  0.1046
   67SAPC  H15R 5619   6.125   3.611   7.408 -1.9972  0.8662  0.6650
   67SAPC  C216 5620   6.198   3.679   7.207  0.0280 -0.2568  0.5290
   67SAPC  H16R 5621   6.256   3.587   7.189 -1.1627 -0.5026 -2.7148
   67SAPC  H16S 5622   6.275   3.751   7.174  0.1687  0.0154  1.4221
   67SAPC  C217 5623   6.071   3.672   7.118  0.3884 -0.7695 -0.1647
   67SAPC  H17R 5624   6.017   3.769   7.116 -2.0874 -2.0633 -0.3909
   67SAPC  H17S 5625   6.006   3.591   7.158  1.3517 -1.2648  0.4343
   67SAPC  C218 5626   6.098   3.634   6.975  0.6691 -0.1823  0.3324
   67SAPC  H18R 5627   6.145   3.534   6.976 -1.1598 -1.0832  0.7138
   67SAPC  H18S 5628   6.171   3.696   6.919  1.7631 -1.1134  0.6979
   67SAPC  C219 5629   5.970   3.632   6.894 -0.5935  0.6414  0.7401
   67SAPC  H19R 5630   5.943   3.739   6.886  2.3840  1.3745 -0.5873
   67SAPC  H19S 5631   5.892   3.580   6.954 -0.0573  0.5530  1.3725
   67SAPC  C220 5632   5.996   3.571   6.757 -0.5348  0.3169  0.5111
   67SAPC  H20R 5633   5.919   3.610   6.687 -0.3922 -0.4313 -0.0722
   67SAPC  H20S 5634   5.992   3.461   6.765 -2.9885  0.4836  2.9643
   67SAPC  H20T 5635   6.093   3.610   6.718 -0.0493 -0.3071  1.0666
   67SAPC   C33 5636   6.359   3.955   6.764  0.2617 -0.5739  0.2163
   67SAPC   H3X 5637   6.352   4.064   6.784 -0.2204 -0.0936 -2.2567
   67SAPC   H3Y 5638   6.452   3.942   6.703 -0.0325  0.3237 -0.4366
   67SAPC   C34 5639   6.405   3.883   6.889  0.3438  0.3304  0.3076
   67SAPC   H4X 5640   6.423   3.773   6.887  1.4382  0.3509  3.3228
   67SAPC   H4Y 5641   6.332   3.903   6.971  0.9446 -0.1426  0.9631
   67SAPC   C35 5642   6.523   3.958   6.939 -0.3702  0.4770  0.3844
   67SAPC   H5X 5643   6.505   4.065   6.915 -1.2895 -0.1874 -2.1901
   67SAPC   H5Y 5644   6.618   3.928   6.889 -0.5616 -0.6519  0.6722
   67SAPC   C36 5645   6.559   3.940   7.085 -0.1227  0.8381 -0.4649
   67SAPC   H6X 5646   6.559   3.835   7.123 -4.1509  1.2749  1.2069
   67SAPC   H6Y 5647   6.473   3.978   7.143 -0.0021 -0.0232  0.3038
   67SAPC   C37 5648   6.681   4.016   7.125 -0.9308  0.3751 -0.0564
   67SAPC   H7X 5649   6.668   4.123   7.098 -3.3512  0.2638  0.4054
   67SAPC   H7Y 5650   6.765   3.977   7.064 -0.8439  0.5969 -0.0804
   67SAPC   C38 5651   6.721   4.010   7.273 -0.1720  0.1035  0.0608
   67SAPC   H8X 5652   6.819   4.061   7.280 -0.4625  1.4945 -3.8154
   67SAPC   H8Y 5653   6.736   3.904   7.305  3.3348  0.1724 -0.8782
   67SAPC   C39 5654   6.625   4.063   7.378 -0.0954 -0.9955  0.3372
   67SAPC   H9X 5655   6.534   4.001   7.392 -0.8286  0.4630  2.5213
   67SAPC   H9Y 5656   6.588   4.161   7.341 -0.3842 -1.6228 -1.1066
   67SAPC  C310 5657   6.694   4.077   7.515 -0.2856  0.0581  0.6475
   67SAPC  H10X 5658   6.656   4.166   7.568  0.5393  0.0770  1.2150
   67SAPC  H10Y 5659   6.800   4.102   7.495  1.2357 -3.4699  3.2963
   67SAPC  C311 5660   6.691   3.937   7.595 -0.4437 -0.6615  0.8915
   67SAPC  H11X 5661   6.747   3.862   7.535  0.1318 -0.6193  1.3720
   67SAPC  H11Y 5662   6.588   3.896   7.605 -2.2900  2.5288 -2.2456
   67SAPC  C312 5663   6.765   3.959   7.727  0.2250  0.0891 -0.6402
   67SAPC  H12X 5664   6.699   4.032   7.778 -0.5582  0.7535 -2.5391
   67SAPC  H12Y 5665   6.866   4.006   7.718 -0.6866  2.0922 -0.8059
   67SAPC  C313 5666   6.765   3.824   7.804  0.3584 -0.8576 -0.0355
   67SAPC  H13X 5667   6.829   3.754   7.747  2.0590  1.9412 -1.7589
   67SAPC  H13Y 5668   6.670   3.765   7.804  0.3130 -0.7847 -0.1726
   67SAPC  C314 5669   6.803   3.831   7.953 -1.5431  0.0344  0.2483
   67SAPC  H14X 5670   6.901   3.883   7.954 -0.9217 -1.1030  0.3386
   67SAPC  H14Y 5671   6.827   3.730   7.995 -2.0498  0.9566  2.9543
   67SAPC  C315 5672   6.705   3.889   8.048 -0.3416  0.1283  0.3910
   67SAPC  H15X 5673   6.602   3.858   8.020 -0.1529 -0.4532  0.3335
   67SAPC  H15Y 5674   6.719   3.999   8.035 -1.6503  0.3684  0.7992
   67SAPC  C316 5675   6.729   3.858   8.194  0.1202  0.8038 -0.3796
   67SAPC  H16X 5676   6.813   3.915   8.239  0.5267 -0.7268  0.8830
   67SAPC  H16Y 5677   6.753   3.751   8.204  2.6718  1.3842  0.3790
   67SAPC  C317 5678   6.602   3.887   8.282  0.1707 -0.5595  0.4245
   67SAPC  H17X 5679   6.525   3.825   8.231 -0.3986 -0.0013  0.5899
   67SAPC  H17Y 5680   6.571   3.992   8.266 -1.9398 -1.0320  1.0660
   67SAPC  C318 5681   6.611   3.860   8.429 -0.1493 -0.2456 -0.3131
   67SAPC  H18X 5682   6.688   3.929   8.467 -0.2433  0.3772 -1.2010
   67SAPC  H18Y 5683   6.639   3.754   8.444  0.9710  0.0769 -0.0845
   67SAPC  H18Z 5684   6.516   3.885   8.481 -0.0027 -0.0555 -0.1382
   68SAPC     N 5685   2.777   4.609   5.914  0.1157  0.0534 -0.1506
   68SAPC   C12 5686   2.874   4.501   5.958  0.2585 -0.3378  0.1933
   68SAPC  H12A 5687   2.901   4.444   5.871 -3.2460  1.7221 -2.5075
   68SAPC  H12B 5688   2.811   4.429   6.009 -0.9662  1.2425  0.9959
   68SAPC   C13 5689   2.699   4.558   5.792 -0.3547 -0.5742  0.1024
   68SAPC  H13A 5690   2.616   4.622   5.766 -1.5065 -2.1322 -0.1827
   68SAPC  H13B 5691   2.769   4.549   5.710  1.0627 -2.6677  1.4331
   68SAPC  H13C 5692   2.656   4.465   5.825  0.7783 -1.4807 -0.8474
   68SAPC   C14 5693   2.677   4.640   6.018  0.0836 -0.0900  0.5517
   68SAPC  H14A 5694   2.727   4.645   6.114  0.2393 -1.0039  0.5200
   68SAPC  H14B 5695   2.627   4.733   5.996  0.4133 -0.4184 -1.8526
   68SAPC  H14C 5696   2.604   4.561   6.020 -0.7228  0.5103 -1.7111
   68SAPC   C15 5697   2.856   4.728   5.870  0.2379  0.5970 -0.0197
   68SAPC  H15A 5698   2.794   4.811   5.840 -0.3953 -0.0515 -0.5490
   68SAPC  H15B 5699   2.922   4.757   5.950  0.3084  1.1770 -0.2840
   68SAPC  H15C 5700   2.917   4.690   5.789 -1.9386 -1.7367 -0.6796
   68SAPC   C11 5701   2.989   4.538   6.055  0.3847 -0.2457  0.1990
   68SAPC  H11A 5702   3.059   4.608   6.005  0.2317  0.0372  0.3827
   68SAPC  H11B 5703   3.037   4.439   6.070  0.9413  0.0055  0.1089
   68SAPC     P 5704   2.999   4.708   6.254 -0.0626 -0.0564  0.0780
   68SAPC   O13 5705   3.047   4.809   6.161  0.5422 -0.0939 -0.3775
   68SAPC   O14 5706   2.914   4.745   6.369 -0.2453 -0.1172  0.5761
   68SAPC   O12 5707   2.931   4.587   6.177  0.0753  0.2731  0.0036
   68SAPC   O11 5708   3.128   4.634   6.302 -0.4956 -0.6620  0.1998
   68SAPC    C1 5709   3.149   4.500   6.346  0.3141  0.1124  1.1052
   68SAPC    HA 5710   3.074   4.426   6.310 -0.1719  0.8734  0.5367
   68SAPC    HB 5711   3.245   4.456   6.310 -0.2818 -0.0169 -0.3911
   68SAPC    C2 5712   3.156   4.483   6.504  0.4780  0.2560 -0.4177
   68SAPC    HS 5713   3.151   4.376   6.533 -1.3189 -0.2440 -2.3057
   68SAPC   O21 5714   3.048   4.554   6.568  0.3244  0.0803 -0.4652
   68SAPC   C21 5715   2.924   4.492   6.553 -0.5001 -0.1194  0.4423
   68SAPC   O22 5716   2.909   4.380   6.515 -0.2428  0.1249  0.0021
   68SAPC   C22 5717   2.822   4.582   6.621  0.0403  0.2836 -0.3835
   68SAPC   H2R 5718   2.815   4.541   6.724  0.4111 -0.7642 -0.7588
   68SAPC   H2S 5719   2.866   4.683   6.631 -1.9258  0.9633  2.9418
   68SAPC    C3 5720   3.291   4.543   6.556 -0.0698 -0.5308 -0.3738
   68SAPC    HX 5721   3.306   4.645   6.514 -0.9203  0.9186  2.5720
   68SAPC    HY 5722   3.378   4.495   6.507  0.5905  0.2892 -0.0362
   68SAPC   O31 5723   3.305   4.542   6.696 -0.3316  0.8765  0.2479
   68SAPC   C31 5724   3.301   4.429   6.758 -0.6975 -0.5226  0.0337
   68SAPC   O32 5725   3.311   4.318   6.709  0.5564  0.6960  0.1807
   68SAPC   C32 5726   3.295   4.450   6.905  1.1155  0.5406 -0.4248
   68SAPC   H2X 5727   3.240   4.356   6.930  1.6627  0.1845 -0.5438
   68SAPC   H2Y 5728   3.241   4.542   6.935  4.1491  2.4166 -0.3065
   68SAPC   C23 5729   2.678   4.577   6.573  0.3079 -0.1046  0.7157
   68SAPC   H3R 5730   2.631   4.476   6.571  1.2143 -0.5285 -0.9191
   68SAPC   H3S 5731   2.676   4.609   6.466 -0.4156  0.2027  0.8131
   68SAPC   C24 5732   2.583   4.666   6.659  0.2468 -0.0740 -0.5732
   68SAPC   H4R 5733   2.484   4.649   6.610  0.6984 -0.8279 -1.2553
   68SAPC   H4S 5734   2.622   4.769   6.645  0.6778  0.1513  1.9403
   68SAPC   C25 5735   2.588   4.620   6.803 -0.0600 -0.0671  0.0676
   68SAPC   H5R 5736   2.620   4.515   6.809  0.9160  0.2085 -0.2293
   68SAPC   C26 5737   2.550   4.697   6.908 -0.1248  0.5737 -0.1025
   68SAPC   H6R 5738   2.547   4.644   7.004 -3.5076 -1.6311 -1.2595
   68SAPC   C27 5739   2.490   4.841   6.903  0.2461  0.0491 -0.5354
   68SAPC   H7R 5740   2.498   4.882   6.801  0.8821 -1.7549 -1.2561
   68SAPC   H7S 5741   2.567   4.903   6.954 -0.2681  1.0597 -0.9571
   68SAPC   C28 5742   2.353   4.848   6.960 -0.4695 -0.4566 -0.1330
   68SAPC   H8R 5743   2.275   4.864   6.884  0.9922  3.1462 -1.0932
   68SAPC   C29 5744   2.319   4.843   7.089  0.0466  0.1037  1.0507
   68SAPC   H9R 5745   2.212   4.844   7.115  0.5187  0.2769  3.1845
   68SAPC  C210 5746   2.414   4.811   7.200  0.4071 -0.0199  0.5431
   68SAPC  H10R 5747   2.488   4.732   7.178  0.1306 -0.2536  0.4450
   68SAPC  H10S 5748   2.359   4.765   7.286 -1.6161 -0.4155 -0.8873
   68SAPC  C211 5749   2.474   4.938   7.253 -1.0769 -0.3714  0.0864
   68SAPC  H11R 5750   2.508   5.013   7.181 -1.6607 -1.8896 -1.8554
   68SAPC  C212 5751   2.513   4.958   7.382  1.1512  0.3584 -0.6678
   68SAPC  H12R 5752   2.549   5.055   7.420  1.2031 -0.1424  0.5857
   68SAPC  C213 5753   2.480   4.874   7.506 -0.1239  0.7716  0.3378
   68SAPC  H13R 5754   2.555   4.899   7.584 -1.7176 -0.1986  2.2874
   68SAPC  H13S 5755   2.493   4.765   7.486 -0.6606  0.7700 -0.0314
   68SAPC  C214 5756   2.342   4.898   7.563  0.1464 -0.2236 -0.4539
   68SAPC  H14R 5757   2.283   4.979   7.518 -1.4414 -1.8287 -1.3595
   68SAPC  C215 5758   2.279   4.830   7.663 -0.1276  0.0021 -0.2660
   68SAPC  H15R 5759   2.173   4.858   7.678 -0.2738 -0.2456 -0.7962
   68SAPC  C216 5760   2.323   4.702   7.732  0.4305 -0.1366 -0.7590
   68SAPC  H16R 5761   2.389   4.645   7.663  1.5647  0.3944 -0.1403
   68SAPC  H16S 5762   2.232   4.640   7.747 -0.0097  0.1542 -2.0870
   68SAPC  C217 5763   2.385   4.742   7.866  0.4898  0.6252 -0.3647
   68SAPC  H17R 5764   2.353   4.835   7.917 -1.0627 -0.9660  1.7083
   68SAPC  H17S 5765   2.495   4.741   7.854  0.6572  1.1162  1.0334
   68SAPC  C218 5766   2.349   4.637   7.976  0.4626  0.0931 -0.7304
   68SAPC  H18R 5767   2.379   4.536   7.941 -2.5810 -1.3195  0.4116
   68SAPC  H18S 5768   2.241   4.614   7.984  0.5983 -0.3842 -0.1808
   68SAPC  C219 5769   2.408   4.663   8.118 -0.1452  0.2513  0.2474
   68SAPC  H19R 5770   2.380   4.766   8.148 -0.3942  1.0428 -2.4246
   68SAPC  H19S 5771   2.518   4.659   8.100 -0.2800 -1.7151 -0.3833
   68SAPC  C220 5772   2.360   4.553   8.217  0.7509  0.7184  0.3588
   68SAPC  H20R 5773   2.426   4.549   8.306  1.6496 -0.7115 -0.3394
   68SAPC  H20S 5774   2.366   4.457   8.162  0.2813  2.5036 -3.1353
   68SAPC  H20T 5775   2.256   4.568   8.254  0.6292 -0.5467  0.5677
   68SAPC   C33 5776   3.432   4.425   6.966  0.0014  0.6209 -0.4099
   68SAPC   H3X 5777   3.478   4.523   6.941 -1.5407  1.0426 -1.7719
   68SAPC   H3Y 5778   3.485   4.349   6.905  1.1850  2.9469 -2.4373
   68SAPC   C34 5779   3.433   4.389   7.118  0.0745  0.3159 -0.1482
   68SAPC   H4X 5780   3.393   4.287   7.136 -1.1073  1.1593  2.5863
   68SAPC   H4Y 5781   3.352   4.457   7.152  0.2664  1.4928 -1.9241
   68SAPC   C35 5782   3.559   4.424   7.189 -0.4616 -0.0988  0.0698
   68SAPC   H5X 5783   3.570   4.534   7.195  1.9534 -0.2023 -0.9147
   68SAPC   H5Y 5784   3.649   4.388   7.134 -0.9040  0.9295 -1.3785
   68SAPC   C36 5785   3.565   4.358   7.332  0.1217 -0.2047  0.3626
   68SAPC   H6X 5786   3.577   4.248   7.316 -0.6138 -0.1729 -0.4847
   68SAPC   H6Y 5787   3.461   4.370   7.371 -0.8624 -2.0096 -1.4821
   68SAPC   C37 5788   3.670   4.431   7.419  0.0149  0.1363 -0.5149
   68SAPC   H7X 5789   3.655   4.541   7.418 -0.2441  0.2269  2.5015
   68SAPC   H7Y 5790   3.766   4.413   7.366 -0.4879 -0.1413 -1.3470
   68SAPC   C38 5791   3.673   4.389   7.561  0.1086  0.1445  0.2626
   68SAPC   H8X 5792   3.719   4.289   7.566  0.2383  0.2196  0.5631
   68SAPC   H8Y 5793   3.577   4.387   7.618  0.2386 -0.8800  0.4645
   68SAPC   C39 5794   3.759   4.491   7.642 -0.0775  0.1943 -0.3983
   68SAPC   H9X 5795   3.707   4.588   7.653 -1.7548 -0.0446 -4.6319
   68SAPC   H9Y 5796   3.846   4.512   7.576  0.2343  0.4852  0.0901
   68SAPC  C310 5797   3.839   4.433   7.767 -0.9049  0.3741  0.7389
   68SAPC  H10X 5798   3.894   4.340   7.739  1.7649  2.1703 -0.3788
   68SAPC  H10Y 5799   3.764   4.417   7.847 -0.3636  0.4852  1.2658
   68SAPC  C311 5800   3.941   4.532   7.827  0.2024  0.3491  0.3138
   68SAPC  H11X 5801   3.895   4.625   7.866 -0.1039  0.6027 -0.6071
   68SAPC  H11Y 5802   4.007   4.552   7.740  2.5064  0.9488  2.1025
   68SAPC  C312 5803   4.028   4.466   7.935 -0.2946 -0.9389 -0.2593
   68SAPC  H12X 5804   4.127   4.517   7.940 -0.4955 -0.6195  0.5417
   68SAPC  H12Y 5805   4.039   4.357   7.913 -0.7136 -1.0975  0.3038
   68SAPC  C313 5806   3.961   4.469   8.074 -0.7212 -0.1413  0.4281
   68SAPC  H13X 5807   3.985   4.379   8.133  1.4597  2.1723  3.3653
   68SAPC  H13Y 5808   3.850   4.478   8.069 -1.1263 -3.4789  0.9942
   68SAPC  C314 5809   4.019   4.582   8.160 -0.4019 -0.1411  0.6937
   68SAPC  H14X 5810   3.942   4.599   8.239  0.9653 -1.0117  2.2775
   68SAPC  H14Y 5811   4.030   4.672   8.095  1.6605  0.0595  1.2724
   68SAPC  C315 5812   4.158   4.558   8.224  0.3796 -0.0205  0.6492
   68SAPC  H15X 5813   4.214   4.506   8.142 -1.0730 -1.1727  0.3374
   68SAPC  H15Y 5814   4.160   4.476   8.298 -1.0554  0.8566  1.6893
   68SAPC  C316 5815   4.237   4.683   8.265 -0.4486 -0.0332  0.4576
   68SAPC  H16X 5816   4.323   4.653   8.329  1.2526  0.2667 -1.5483
   68SAPC  H16Y 5817   4.168   4.751   8.318  3.0495  3.3744  1.0978
   68SAPC  C317 5818   4.287   4.759   8.140 -0.8750  0.0179 -0.0648
   68SAPC  H17X 5819   4.214   4.836   8.107 -1.3917 -0.9605 -1.3178
   68SAPC  H17Y 5820   4.294   4.690   8.053 -1.9971 -0.1407 -0.0385
   68SAPC  C318 5821   4.433   4.810   8.155  0.3017  0.3551  0.0254
   68SAPC  H18X 5822   4.472   4.823   8.052  0.8253  2.2301  0.4365
   68SAPC  H18Y 5823   4.496   4.734   8.208 -0.2159 -0.8438 -1.0102
   68SAPC  H18Z 5824   4.439   4.910   8.202  0.0389  1.0066 -1.2938
   69SLPC     N 5825   0.167   1.275  10.739  0.0078 -0.9428 -0.1046
   69SLPC   C13 5826   0.192   1.365  10.855 -0.1689  0.2077  0.1867
   69SLPC  H13A 5827   0.103   1.396  10.908 -0.9270 -0.7871 -0.4646
   69SLPC  H13B 5828   0.259   1.308  10.917  0.1575  0.2054 -0.1617
   69SLPC  H13C 5829   0.250   1.453  10.831  0.4524 -0.5124 -1.0294
   69SLPC   C14 5830   0.098   1.154  10.799 -0.0549  0.3500  0.7845
   69SLPC  H14A 5831   0.089   1.079  10.722  0.5552 -0.4130  1.4317
   69SLPC  H14B 5832   0.155   1.114  10.881  1.7095  0.2780 -0.4373
   69SLPC  H14C 5833  -0.003   1.170  10.836 -0.1548 -0.5410  0.9150
   69SLPC   C15 5834   0.296   1.237  10.667  0.0312  0.2387 -0.0468
   69SLPC  H15A 5835   0.358   1.176  10.732  1.1520  2.5707  1.1938
   69SLPC  H15B 5836   0.278   1.186  10.573 -0.0734 -1.8761  1.0680
   69SLPC  H15C 5837   0.352   1.327  10.647  0.7253 -0.0037  0.7548
   69SLPC   C12 5838   0.082   1.349  10.638  0.7065  0.5758  0.5228
   69SLPC  H12A 5839  -0.010   1.380  10.686 -0.8306 -2.2341 -0.3343
   69SLPC  H12B 5840   0.055   1.273  10.566 -1.2842  0.5943  1.1704
   69SLPC   C11 5841   0.148   1.477  10.578  1.1377  0.0255  0.8373
   69SLPC  H11A 5842   0.055   1.504  10.523  1.3133 -0.1596  0.4455
   69SLPC  H11B 5843   0.227   1.447  10.506 -1.2735 -1.9002 -1.2328
   69SLPC     P 5844   0.060   1.668  10.727 -0.1286  0.0693 -0.1718
   69SLPC   O13 5845  -0.053   1.585  10.775  0.7222 -0.3711 -0.1357
   69SLPC   O14 5846   0.123   1.764  10.822  0.5169 -0.8086 -0.4230
   69SLPC   O12 5847   0.181   1.583  10.673  0.3724  0.0056  0.0513
   69SLPC   O11 5848   0.019   1.738  10.588 -0.2128 -0.0351 -0.0905
   69SLPC    C1 5849   0.095   1.848  10.529 -0.7803  0.3993 -0.5998
   69SLPC    HA 5850   0.044   1.944  10.550 -0.1412  0.4412  0.8321
   69SLPC    HB 5851   0.195   1.850  10.577 -1.4138  1.7540  0.7397
   69SLPC    C2 5852   0.116   1.840  10.380 -0.4263  0.2115  0.5041
   69SLPC    HS 5853   0.200   1.909  10.358  1.1238 -1.5907  0.5004
   69SLPC   O21 5854  -0.003   1.893  10.310  0.6657 -0.0299  0.3963
   69SLPC   C21 5855   0.018   1.944  10.183  0.4678 -0.6447 -0.9529
   69SLPC   O22 5856   0.129   1.959  10.144 -0.2102  0.2299  0.0820
   69SLPC   C22 5857  -0.114   2.001  10.126  0.2312  0.0153  0.1061
   69SLPC   H2R 5858  -0.198   1.932  10.151  0.3579 -0.8264 -1.6303
   69SLPC   H2S 5859  -0.130   2.092  10.188  0.3286 -0.0912  0.2875
   69SLPC    C3 5860   0.157   1.695  10.333 -0.0548  0.3210 -0.5053
   69SLPC    HX 5861   0.067   1.631  10.347 -0.3066  0.2277 -2.3332
   69SLPC    HY 5862   0.238   1.661  10.401 -1.6854 -0.9227  0.9027
   69SLPC   O31 5863   0.175   1.700  10.188 -0.3404 -0.3882  0.2648
   69SLPC   C31 5864   0.305   1.726  10.158 -0.2639 -0.1342  0.3692
   69SLPC   O32 5865   0.393   1.729  10.239 -0.0280 -0.3012  0.4723
   69SLPC   C32 5866   0.328   1.737  10.014 -0.1890 -0.1166  0.4150
   69SLPC   H2X 5867   0.259   1.818   9.981 -1.8955 -1.3873  0.7181
   69SLPC   H2Y 5868   0.296   1.644   9.963  0.9235 -0.1401 -0.2610
   69SLPC   C23 5869  -0.104   2.036   9.977 -0.4732 -0.4026  0.6705
   69SLPC   H3R 5870  -0.100   1.937   9.927 -1.3163 -0.6360  1.0461
   69SLPC   H3S 5871  -0.007   2.088   9.962 -0.2282 -0.9419  0.3472
   69SLPC   C24 5872  -0.217   2.128   9.930  0.3319 -0.1071  0.3967
   69SLPC   H4R 5873  -0.233   2.212  10.002  0.1018  0.4942 -0.3475
   69SLPC   H4S 5874  -0.311   2.071   9.921  0.8725 -0.9093 -0.2760
   69SLPC   C25 5875  -0.185   2.192   9.795  0.3863 -0.5074 -0.6147
   69SLPC   H5R 5876  -0.083   2.236   9.801 -1.2739  3.7370  0.2493
   69SLPC   H5S 5877  -0.248   2.282   9.777  2.0210  0.6611 -0.7526
   69SLPC   C26 5878  -0.180   2.098   9.682  0.8923 -0.3979  0.5438
   69SLPC   H6R 5879  -0.278   2.048   9.668  0.4910 -0.2965  2.6268
   69SLPC   H6S 5880  -0.103   2.020   9.700 -0.1126 -0.7995  3.5397
   69SLPC   C27 5881  -0.147   2.161   9.538  1.1790  0.6630 -0.7987
   69SLPC   H7R 5882  -0.220   2.237   9.504  0.2430 -0.0336 -0.4122
   69SLPC   H7S 5883  -0.168   2.080   9.465  0.2069 -0.5387  0.7267
   69SLPC   C28 5884  -0.002   2.205   9.521 -0.9078 -0.2947 -0.6733
   69SLPC   H8R 5885   0.059   2.112   9.519  0.1719  0.3261  1.0579
   69SLPC   H8S 5886   0.040   2.263   9.606  2.1430 -0.5690 -1.8502
   69SLPC   C29 5887   0.028   2.292   9.396 -0.1747 -0.0950 -0.4718
   69SLPC   H9R 5888   0.067   2.393   9.419  2.3531 -0.7594 -1.4793
   69SLPC  C210 5889   0.035   2.242   9.272  0.2499  0.0538  0.2875
   69SLPC  H10R 5890   0.048   2.311   9.187 -3.1410  0.6792  0.1312
   69SLPC  C211 5891   0.001   2.103   9.220 -0.5446  0.6284  0.5150
   69SLPC  H11R 5892  -0.003   2.031   9.305 -3.2163 -0.8764 -0.7637
   69SLPC  H11S 5893   0.089   2.067   9.163 -0.1161  0.2903  1.3609
   69SLPC  C212 5894  -0.122   2.093   9.136 -0.3226  0.1371  0.0499
   69SLPC  H12R 5895  -0.210   2.068   9.196  1.2314 -1.3538  1.8214
   69SLPC  C213 5896  -0.128   2.094   9.001 -0.4218  0.4957  0.0599
   69SLPC  H13R 5897  -0.226   2.107   8.953 -0.0008 -0.3891 -1.0936
   69SLPC  C214 5898  -0.007   2.119   8.908  0.9403  0.4291 -1.2048
   69SLPC  H14R 5899   0.025   2.022   8.864 -0.8106 -0.8719  0.2172
   69SLPC  H14S 5900   0.075   2.167   8.966 -0.4267  0.7212  0.5943
   69SLPC  C215 5901  -0.042   2.232   8.808  0.5956  0.3928  1.0439
   69SLPC  H15R 5902  -0.072   2.323   8.864 -3.0112 -0.2296  0.3599
   69SLPC  H15S 5903  -0.139   2.199   8.766  0.0584 -4.4725  5.1538
   69SLPC  C216 5904   0.069   2.270   8.708  0.2513  1.3787  0.2089
   69SLPC  H16R 5905   0.129   2.180   8.684  3.5459  2.9357  1.8877
   69SLPC  H16S 5906   0.154   2.330   8.749  2.3901 -0.6588 -1.0220
   69SLPC  C217 5907   0.010   2.350   8.591 -0.0535 -0.4599 -0.3364
   69SLPC  H17R 5908  -0.081   2.294   8.561 -0.2270 -1.8657  2.4360
   69SLPC  H17S 5909   0.085   2.347   8.509 -0.2251 -0.3995 -0.4951
   69SLPC  C218 5910  -0.019   2.503   8.621  0.2838 -0.4718  0.4222
   69SLPC  H18R 5911   0.078   2.556   8.626 -0.8893  1.7432  0.4992
   69SLPC  H18S 5912  -0.080   2.511   8.713 -1.9807 -1.2089 -0.9259
   69SLPC  H18T 5913  -0.077   2.544   8.536 -0.0144 -0.1113  0.7979
   69SLPC   C33 5914   0.477   1.764   9.970 -0.6356  0.4332  0.6444
   69SLPC   H3X 5915   0.551   1.712  10.034  1.8467  3.0428  0.0692
   69SLPC   H3Y 5916   0.486   1.875   9.976 -2.7966  0.6350  1.3624
   69SLPC   C34 5917   0.504   1.719   9.823 -0.4139 -0.1313 -0.4086
   69SLPC   H4X 5918   0.485   1.611   9.807  0.8082 -0.8978  2.5844
   69SLPC   H4Y 5919   0.610   1.738   9.799 -0.9719  2.0716 -1.4259
   69SLPC   C35 5920   0.426   1.793   9.721  0.5240 -0.0031  0.5560
   69SLPC   H5X 5921   0.440   1.902   9.739 -1.5756 -0.0190  2.8035
   69SLPC   H5Y 5922   0.321   1.775   9.752 -0.1102  0.7151 -1.0536
   69SLPC   C36 5923   0.460   1.747   9.578  0.6375  0.0012 -0.4710
   69SLPC   H6X 5924   0.428   1.641   9.573 -5.2898  1.4891 -0.7625
   69SLPC   H6Y 5925   0.568   1.771   9.564  0.2728  1.5710 -0.7421
   69SLPC   C37 5926   0.377   1.821   9.470  0.5071  0.2477  0.7816
   69SLPC   H7X 5927   0.401   1.929   9.466  0.3331  0.2461 -0.8191
   69SLPC   H7Y 5928   0.269   1.814   9.494  0.4689 -2.1351  0.1963
   69SLPC   C38 5929   0.404   1.774   9.323 -0.8661 -0.4152 -0.4622
   69SLPC   H8X 5930   0.396   1.664   9.333 -0.4313 -0.3272  1.2640
   69SLPC   H8Y 5931   0.510   1.794   9.297 -1.0497 -1.5218 -2.1878
   69SLPC   C39 5932   0.310   1.825   9.210  0.1819 -0.1920  0.1955
   69SLPC   H9X 5933   0.302   1.936   9.208  0.8225 -0.1511 -1.7440
   69SLPC   H9Y 5934   0.212   1.774   9.220  0.0153  0.0104 -0.3667
   69SLPC  C310 5935   0.375   1.797   9.072 -0.2340  0.4509  0.7129
   69SLPC  H10X 5936   0.391   1.687   9.076  1.1327  0.6308  0.6510
   69SLPC  H10Y 5937   0.474   1.845   9.059 -0.4930  0.7273 -0.3164
   69SLPC  C311 5938   0.279   1.843   8.959 -0.7018  0.4895  0.4517
   69SLPC  H11X 5939   0.264   1.953   8.969 -0.4237  0.6017 -0.3242
   69SLPC  H11Y 5940   0.189   1.778   8.963  0.6574 -1.7320 -2.1819
   69SLPC  C312 5941   0.345   1.809   8.824 -0.1638  0.0946 -0.0178
   69SLPC  H12X 5942   0.412   1.722   8.837 -1.5289 -0.6691  2.5794
   69SLPC  H12Y 5943   0.401   1.901   8.794 -1.7150  0.8190 -0.8045
   69SLPC  C313 5944   0.248   1.776   8.714 -0.1837  0.4496  0.4821
   69SLPC  H13X 5945   0.166   1.850   8.709  0.0225  0.5967 -1.5601
   69SLPC  H13Y 5946   0.196   1.680   8.732  0.0230  0.3509  0.5645
   69SLPC  C314 5947   0.322   1.787   8.577 -0.2544 -0.3681  0.3372
   69SLPC  H14X 5948   0.409   1.718   8.577 -0.6405 -0.9564  2.5183
   69SLPC  H14Y 5949   0.366   1.888   8.568 -1.5937  0.3032  0.9404
   69SLPC  C315 5950   0.221   1.770   8.466 -0.8280 -0.0429  0.0893
   69SLPC  H15X 5951   0.116   1.791   8.496 -0.2605  2.2948  0.6183
   69SLPC  H15Y 5952   0.220   1.669   8.421 -1.3297 -0.1708  0.3868
   69SLPC  C316 5953   0.251   1.882   8.361 -0.0399  0.6053 -0.2362
   69SLPC  H16X 5954   0.344   1.855   8.308  0.9584  1.5382  0.9808
   69SLPC  H16Y 5955   0.261   1.978   8.416 -0.4405  0.3933  0.2141
   69SLPC  C317 5956   0.139   1.898   8.257  0.2355  0.1359  0.0610
   69SLPC  H17X 5957   0.048   1.950   8.295 -0.2575 -0.2928 -0.5206
   69SLPC  H17Y 5958   0.101   1.803   8.215 -1.1815  0.4666  0.5513
   69SLPC  C318 5959   0.181   1.986   8.137 -0.6662  0.4868 -0.1622
   69SLPC  H18X 5960   0.098   2.036   8.084 -1.7130 -0.0052  0.9642
   69SLPC  H18Y 5961   0.249   1.924   8.075  1.3162 -1.1105  3.2802
   69SLPC  H18Z 5962   0.248   2.064   8.179 -0.2861  0.3268 -0.4634
   70SLPC     N 5963   1.975   6.333  10.484  0.5884  0.8524  0.5064
   70SLPC   C13 5964   2.010   6.186  10.517  0.6300  0.2882  0.1499
   70SLPC  H13A 5965   2.110   6.174  10.554 -0.2449 -0.9426  2.3029
   70SLPC  H13B 5966   1.957   6.150  10.604  2.4109 -0.0547  1.1214
   70SLPC  H13C 5967   1.983   6.124  10.433 -0.2375  1.0632 -0.1677
   70SLPC   C14 5968   2.081   6.387  10.390  0.1840  0.2637 -0.0297
   70SLPC  H14A 5969   2.056   6.483  10.348 -0.8660  0.7346  1.5655
   70SLPC  H14B 5970   2.176   6.397  10.440 -0.1483  4.3061  0.0901
   70SLPC  H14C 5971   2.096   6.316  10.309 -0.2126  0.4476 -0.2684
   70SLPC   C15 5972   1.977   6.417  10.608 -0.7063 -0.4428  0.4352
   70SLPC  H15A 5973   1.907   6.378  10.680 -0.2546 -0.5974  0.7948
   70SLPC  H15B 5974   2.072   6.420  10.658  0.8022  0.5765 -2.3183
   70SLPC  H15C 5975   1.949   6.519  10.582  1.8682  0.3805  0.6040
   70SLPC   C12 5976   1.831   6.333  10.426 -0.0693 -0.6862 -0.4424
   70SLPC  H12A 5977   1.761   6.332  10.508 -1.9437 -0.7813 -1.9782
   70SLPC  H12B 5978   1.813   6.242  10.372  0.2022 -0.0852 -1.5753
   70SLPC   C11 5979   1.795   6.456  10.333  0.2819 -0.0771 -0.1279
   70SLPC  H11A 5980   1.705   6.442  10.270  0.2262  1.1446 -0.3330
   70SLPC  H11B 5981   1.886   6.463  10.270 -0.2987 -0.5379 -1.0382
   70SLPC     P 5982   1.653   6.628  10.464  0.4199  0.3406  0.0783
   70SLPC   O13 5983   1.605   6.533  10.568 -0.5816 -0.1436 -0.3968
   70SLPC   O14 5984   1.657   6.769  10.504 -0.1556  0.3439 -0.1327
   70SLPC   O12 5985   1.788   6.579  10.407 -0.1712  0.2794 -0.7890
   70SLPC   O11 5986   1.543   6.613  10.354  0.2587 -0.2795  0.7169
   70SLPC    C1 5987   1.545   6.666  10.223 -0.2936  0.8643 -0.2910
   70SLPC    HA 5988   1.643   6.711  10.198  1.1032  0.3690  3.5889
   70SLPC    HB 5989   1.536   6.574  10.162 -1.2642  0.9047 -0.2258
   70SLPC    C2 5990   1.432   6.766  10.200 -0.6005  0.1843 -0.2814
   70SLPC    HS 5991   1.344   6.704  10.227 -0.1899 -1.2214 -2.0015
   70SLPC   O21 5992   1.436   6.795  10.060 -0.3494  0.0262  0.4487
   70SLPC   C21 5993   1.323   6.813  10.004  0.8613  0.6778  0.4046
   70SLPC   O22 5994   1.213   6.814  10.058 -0.0339  0.3930  0.5663
   70SLPC   C22 5995   1.344   6.801   9.852 -0.2790  0.4541  0.2604
   70SLPC   H2R 5996   1.374   6.903   9.818  0.9862 -0.3273 -1.1104
   70SLPC   H2S 5997   1.433   6.735   9.839  1.4233  2.2095  2.2112
   70SLPC    C3 5998   1.427   6.887  10.289  0.3167  0.2459 -0.5059
   70SLPC    HX 5999   1.432   6.857  10.396  2.1319  1.5951 -0.1624
   70SLPC    HY 6000   1.324   6.926  10.279 -0.3295 -1.1798  0.2586
   70SLPC   O31 6001   1.540   6.984  10.284 -0.3973 -0.6127  0.0466
   70SLPC   C31 6002   1.529   7.074  10.189  0.0994  0.0373  0.5030
   70SLPC   O32 6003   1.444   7.079  10.102  0.4154 -0.0066  0.1560
   70SLPC   C32 6004   1.645   7.166  10.190  0.9461 -0.0645  0.8849
   70SLPC   H2X 6005   1.732   7.111  10.149  0.5551 -0.5221  0.6597
   70SLPC   H2Y 6006   1.668   7.192  10.296 -2.7830 -0.5777  1.9530
   70SLPC   C23 6007   1.222   6.748   9.765  0.0819  0.7121  0.1155
   70SLPC   H3R 6008   1.137   6.735   9.835  0.0944 -1.2780 -0.1715
   70SLPC   H3S 6009   1.228   6.646   9.722  0.9605 -0.0387  1.9114
   70SLPC   C24 6010   1.180   6.848   9.653  0.0765  0.5850 -0.2821
   70SLPC   H4R 6011   1.260   6.843   9.577  1.8951 -0.8985  1.6171
   70SLPC   H4S 6012   1.197   6.951   9.690 -0.3017  0.2777  0.7778
   70SLPC   C25 6013   1.042   6.823   9.590  0.0775  0.3136  0.9111
   70SLPC   H5R 6014   0.970   6.850   9.670 -0.1057 -2.1636  1.6790
   70SLPC   H5S 6015   1.023   6.717   9.562 -0.6370  0.6324  0.1379
   70SLPC   C26 6016   1.037   6.908   9.458 -0.0712  0.0157 -0.1045
   70SLPC   H6R 6017   1.137   6.910   9.408  1.1907 -1.1047  2.2066
   70SLPC   H6S 6018   1.019   7.016   9.477 -1.2599 -0.0527 -0.7558
   70SLPC   C27 6019   0.936   6.854   9.356 -0.8598 -0.4709 -0.2402
   70SLPC   H7R 6020   0.904   6.752   9.383 -1.1632 -0.6621 -1.2585
   70SLPC   H7S 6021   0.980   6.857   9.254  1.9749  0.7446  0.9296
   70SLPC   C28 6022   0.796   6.939   9.352 -0.5191 -0.4236 -0.4307
   70SLPC   H8R 6023   0.772   6.941   9.460  1.9506  1.5288  0.1735
   70SLPC   H8S 6024   0.721   6.877   9.298 -1.4294  0.1732  0.1270
   70SLPC   C29 6025   0.808   7.077   9.291  0.7242 -0.8376  0.3037
   70SLPC   H9R 6026   0.835   7.154   9.365  1.4780 -1.3252  0.5406
   70SLPC  C210 6027   0.774   7.113   9.168 -0.5146  0.0707 -0.6462
   70SLPC  H10R 6028   0.776   7.221   9.145  0.1656 -0.3129 -2.5813
   70SLPC  C211 6029   0.735   7.015   9.061  0.0730 -0.3172  0.4853
   70SLPC  H11R 6030   0.653   6.952   9.101 -1.1074  0.6656 -0.3067
   70SLPC  H11S 6031   0.827   6.957   9.037 -0.8847 -1.4990 -0.4460
   70SLPC  C212 6032   0.674   7.076   8.934 -0.0821 -0.4480 -0.0594
   70SLPC  H12R 6033   0.652   7.184   8.931 -1.1048 -0.6504 -0.3405
   70SLPC  C213 6034   0.649   7.001   8.817  0.0831  0.0867  0.6711
   70SLPC  H13R 6035   0.603   7.047   8.729 -0.4564 -0.3813  0.6977
   70SLPC  C214 6036   0.681   6.850   8.801  0.0842 -0.4292  0.2218
   70SLPC  H14R 6037   0.660   6.796   8.895 -0.3969 -0.7880 -0.0869
   70SLPC  H14S 6038   0.790   6.833   8.782 -0.2126  0.2328 -2.4677
   70SLPC  C215 6039   0.611   6.775   8.687  0.6119  0.4886 -0.1057
   70SLPC  H15R 6040   0.628   6.818   8.587 -1.7606  1.5002 -0.1508
   70SLPC  H15S 6041   0.502   6.780   8.708  0.4670  2.8748 -1.1662
   70SLPC  C216 6042   0.645   6.620   8.674 -0.1323 -0.2698  0.1795
   70SLPC  H16R 6043   0.588   6.571   8.755 -0.5340  0.1889  0.1827
   70SLPC  H16S 6044   0.755   6.606   8.680 -0.0192  0.9766  1.5063
   70SLPC  C217 6045   0.600   6.566   8.538  0.2234  0.3841  0.8232
   70SLPC  H17R 6046   0.652   6.473   8.504  0.5711  0.1842  1.8609
   70SLPC  H17S 6047   0.632   6.640   8.462  1.3207 -0.9132 -0.0277
   70SLPC  C218 6048   0.453   6.539   8.520  0.7074 -0.1564  0.1487
   70SLPC  H18R 6049   0.406   6.557   8.421  0.0569 -2.7235 -0.0813
   70SLPC  H18S 6050   0.397   6.601   8.593  0.0610 -2.0121  1.3126
   70SLPC  H18T 6051   0.423   6.434   8.543  0.2136 -0.2282 -0.7951
   70SLPC   C33 6052   1.625   7.303  10.118 -0.3072  0.5960 -1.0145
   70SLPC   H3X 6053   1.688   7.381  10.166 -1.8252  1.2226  0.0346
   70SLPC   H3Y 6054   1.527   7.337  10.156  0.3504  0.7475  0.6193
   70SLPC   C34 6055   1.620   7.308   9.966 -0.3990 -0.1673  0.3477
   70SLPC   H4X 6056   1.558   7.222   9.932 -0.0960  0.5854 -2.3667
   70SLPC   H4Y 6057   1.725   7.304   9.932  0.0830  1.0711  1.6027
   70SLPC   C35 6058   1.550   7.432   9.911 -0.7307  0.0357  0.3974
   70SLPC   H5X 6059   1.600   7.524   9.946  0.6475  0.1905 -1.7657
   70SLPC   H5Y 6060   1.444   7.425   9.945 -1.5930  1.4077 -1.8002
   70SLPC   C36 6061   1.567   7.437   9.758 -0.1695  0.2090  0.2871
   70SLPC   H6X 6062   1.528   7.346   9.707 -1.4915  0.4405  0.8316
   70SLPC   H6Y 6063   1.677   7.444   9.747 -0.1133 -1.0359 -0.1439
   70SLPC   C37 6064   1.505   7.571   9.706  0.2076 -0.4483 -0.0105
   70SLPC   H7X 6065   1.530   7.654   9.776  0.2525 -0.4673 -0.0040
   70SLPC   H7Y 6066   1.394   7.568   9.697  0.0820  0.2090  1.1662
   70SLPC   C38 6067   1.562   7.613   9.576 -0.0353  0.1675 -0.0085
   70SLPC   H8X 6068   1.566   7.528   9.505  0.1268  0.2031 -0.0452
   70SLPC   H8Y 6069   1.672   7.615   9.591  0.0844 -3.7691  0.5798
   70SLPC   C39 6070   1.495   7.726   9.507  0.1916  0.2348 -0.5998
   70SLPC   H9X 6071   1.475   7.803   9.586 -0.6957  0.8786 -1.4239
   70SLPC   H9Y 6072   1.391   7.702   9.475  1.1458 -0.9941 -3.0177
   70SLPC  C310 6073   1.572   7.779   9.379 -0.2490 -0.3267  0.0641
   70SLPC  H10X 6074   1.592   7.689   9.316  0.2448 -0.0740 -0.1462
   70SLPC  H10Y 6075   1.672   7.816   9.411  0.5790 -2.0590 -0.3685
   70SLPC  C311 6076   1.508   7.899   9.307  0.5119 -0.1228  0.7597
   70SLPC  H11X 6077   1.499   7.978   9.384  1.0666  0.9136 -0.2213
   70SLPC  H11Y 6078   1.407   7.868   9.273  0.2927  0.5988  0.7462
   70SLPC  C312 6079   1.588   7.950   9.190  0.3288  0.3455 -0.0551
   70SLPC  H12X 6080   1.691   7.977   9.224  0.3638 -0.8580  0.8682
   70SLPC  H12Y 6081   1.541   8.040   9.145 -0.0715 -0.2721 -0.8901
   70SLPC  C313 6082   1.585   7.839   9.074 -0.1141  0.1092 -0.6940
   70SLPC  H13X 6083   1.488   7.787   9.061 -0.2360 -0.2908  1.4491
   70SLPC  H13Y 6084   1.655   7.755   9.094  0.6079  0.2409 -2.4537
   70SLPC  C314 6085   1.608   7.914   8.943  0.0120 -0.0330  0.6480
   70SLPC  H14X 6086   1.716   7.942   8.937 -0.2101  0.6967 -0.3987
   70SLPC  H14Y 6087   1.553   8.011   8.942  0.5894  0.3040  0.9569
   70SLPC  C315 6088   1.543   7.834   8.826  0.0903  0.2196  0.2807
   70SLPC  H15X 6089   1.448   7.779   8.843  1.1176 -2.3997 -1.6448
   70SLPC  H15Y 6090   1.613   7.752   8.799 -2.3317 -2.6257  1.9874
   70SLPC  C316 6091   1.520   7.925   8.697  0.3877 -0.4387 -0.3533
   70SLPC  H16X 6092   1.620   7.965   8.668  0.2638  1.1813  1.3206
   70SLPC  H16Y 6093   1.456   8.012   8.720 -1.0736 -1.5638 -0.0082
   70SLPC  C317 6094   1.470   7.850   8.573  0.2926  0.1508  0.3524
   70SLPC  H17X 6095   1.485   7.920   8.488 -0.1621  0.3212  0.4101
   70SLPC  H17Y 6096   1.359   7.847   8.583  0.3849 -1.2004  1.3328
   70SLPC  C318 6097   1.525   7.713   8.535 -0.3799 -0.1069 -0.6968
   70SLPC  H18X 6098   1.542   7.654   8.628  1.8301  1.0939 -0.2766
   70SLPC  H18Y 6099   1.626   7.721   8.490 -0.4210 -1.1727 -1.0095
   70SLPC  H18Z 6100   1.470   7.663   8.453  0.3638  0.8968 -1.8372
   71SLPC     N 6101   6.756   3.789  10.795  0.5337 -0.4605 -0.4860
   71SLPC   C13 6102   6.880   3.731  10.858 -0.5815  0.5351 -0.1167
   71SLPC  H13A 6103   6.869   3.623  10.861 -1.4528  0.6369  0.8871
   71SLPC  H13B 6104   6.964   3.760  10.798 -2.6484  0.9023 -3.0620
   71SLPC  H13C 6105   6.899   3.761  10.960 -0.7353 -2.0431  0.7604
   71SLPC   C14 6106   6.646   3.699  10.858  0.0807  0.5555 -0.1276
   71SLPC  H14A 6107   6.611   3.725  10.956 -2.4457  0.8891 -1.0411
   71SLPC  H14B 6108   6.557   3.716  10.799 -0.9765  0.1283  1.3116
   71SLPC  H14C 6109   6.684   3.598  10.853  0.4015  0.7023 -0.8897
   71SLPC   C15 6110   6.761   3.775  10.650  0.0463  0.8644 -0.7580
   71SLPC  H15A 6111   6.680   3.831  10.605 -1.3274  0.0613  0.6016
   71SLPC  H15B 6112   6.852   3.820  10.615  0.1228  0.5210 -0.9938
   71SLPC  H15C 6113   6.754   3.669  10.633 -0.7402  0.5864  0.9888
   71SLPC   C12 6114   6.743   3.943  10.823  0.4425  0.4521 -0.5661
   71SLPC  H12A 6115   6.837   3.990  10.799  0.4193  0.1946 -1.1842
   71SLPC  H12B 6116   6.736   3.946  10.931 -1.8330 -3.8716 -0.3778
   71SLPC   C11 6117   6.634   4.028  10.755  0.7401  0.2727  0.0028
   71SLPC  H11A 6118   6.619   4.131  10.795 -0.2535 -0.5304  1.8142
   71SLPC  H11B 6119   6.530   3.989  10.757  0.8626 -0.0583  1.2416
   71SLPC     P 6120   6.787   4.126  10.567  0.0179  0.5651  0.3193
   71SLPC   O13 6121   6.880   4.138  10.678  0.0892 -0.7500  0.0059
   71SLPC   O14 6122   6.839   4.073  10.440  0.0803 -0.1935 -0.3944
   71SLPC   O12 6123   6.669   4.037  10.619  0.1040 -0.1571  0.0883
   71SLPC   O11 6124   6.727   4.268  10.548 -0.0583 -0.6657  0.2076
   71SLPC    C1 6125   6.593   4.272  10.486 -0.7849 -0.3035  0.4134
   71SLPC    HA 6126   6.534   4.179  10.499 -1.5653  0.0821 -0.2382
   71SLPC    HB 6127   6.532   4.344  10.545 -0.5503 -0.7218  1.1765
   71SLPC    C2 6128   6.592   4.337  10.341 -0.6474 -0.4321 -0.4850
   71SLPC    HS 6129   6.485   4.344  10.312 -1.2172 -2.0720  1.0717
   71SLPC   O21 6130   6.662   4.260  10.251 -0.1437 -0.7211  0.0225
   71SLPC   C21 6131   6.604   4.151  10.205  0.8395 -0.0587 -0.1658
   71SLPC   O22 6132   6.490   4.111  10.225 -0.3242 -0.1969  0.0599
   71SLPC   C22 6133   6.687   4.093  10.097  0.1077  0.0033  0.5715
   71SLPC   H2R 6134   6.767   4.038  10.152  0.1719  0.7477  1.2503
   71SLPC   H2S 6135   6.617   4.015  10.060 -1.2908  1.1581  0.6992
   71SLPC    C3 6136   6.655   4.484  10.340 -0.3292  0.5177 -0.1740
   71SLPC    HX 6137   6.758   4.471  10.378 -0.2845 -1.0742 -0.7718
   71SLPC    HY 6138   6.601   4.546  10.415  2.1057  1.0088  1.2865
   71SLPC   O31 6139   6.649   4.544  10.210  0.0945 -0.1637  0.2405
   71SLPC   C31 6140   6.758   4.575  10.147  0.0733  0.8049 -0.3006
   71SLPC   O32 6141   6.871   4.580  10.199  0.1314 -0.2127  0.5347
   71SLPC   C32 6142   6.734   4.635  10.009 -1.0115  0.0481  0.0072
   71SLPC   H2X 6143   6.632   4.681  10.012 -0.9172  0.3667 -1.1467
   71SLPC   H2Y 6144   6.727   4.550   9.938 -0.9284 -0.4457  0.5853
   71SLPC   C23 6145   6.753   4.178   9.993 -0.2107  0.0888  0.4374
   71SLPC   H3R 6146   6.846   4.131   9.955 -0.1227  0.8597 -0.3477
   71SLPC   H3S 6147   6.794   4.267  10.045 -0.6466  1.0162 -0.7574
   71SLPC   C24 6148   6.649   4.222   9.890  0.1457 -0.5808  0.5082
   71SLPC   H4R 6149   6.584   4.294   9.944 -0.6100 -0.5947 -0.3657
   71SLPC   H4S 6150   6.579   4.142   9.857 -0.5711  0.2568 -0.0328
   71SLPC   C25 6151   6.718   4.280   9.762 -0.1591  0.1138  0.6494
   71SLPC   H5R 6152   6.801   4.214   9.730 -0.0033  0.4999  0.2563
   71SLPC   H5S 6153   6.766   4.375   9.792 -1.2492  1.5238 -1.8302
   71SLPC   C26 6154   6.624   4.294   9.645 -0.2763 -0.1274  0.6295
   71SLPC   H6R 6155   6.589   4.400   9.645  1.6731  0.5692  1.5137
   71SLPC   H6S 6156   6.539   4.223   9.655 -0.1657 -0.4294 -0.4766
   71SLPC   C27 6157   6.674   4.273   9.507 -0.3646 -0.0312  0.6041
   71SLPC   H7R 6158   6.747   4.189   9.498  0.0007  0.2873  0.5701
   71SLPC   H7S 6159   6.750   4.350   9.481 -1.0069  0.4606  0.1486
   71SLPC   C28 6160   6.566   4.264   9.386 -0.0858  0.4272  1.2153
   71SLPC   H8R 6161   6.529   4.368   9.383 -0.2161  0.3636 -0.7827
   71SLPC   H8S 6162   6.482   4.198   9.415  0.7850 -1.0904  0.4498
   71SLPC   C29 6163   6.639   4.211   9.261  0.0319 -0.4492 -0.7025
   71SLPC   H9R 6164   6.679   4.110   9.272  0.5852 -0.1579  0.0381
   71SLPC  C210 6165   6.625   4.266   9.137  1.1828  0.2600  0.2398
   71SLPC  H10R 6166   6.682   4.216   9.057 -0.1025  1.5164 -1.5417
   71SLPC  C211 6167   6.575   4.409   9.110 -0.0489  0.5413 -0.1933
   71SLPC  H11R 6168   6.641   4.464   9.040  2.7192 -0.3194  1.5519
   71SLPC  H11S 6169   6.589   4.462   9.207  1.0202 -0.9078  0.4790
   71SLPC  C212 6170   6.430   4.393   9.067  0.3570 -0.1596 -0.0150
   71SLPC  H12R 6171   6.358   4.387   9.149  0.4182 -0.6751  0.0053
   71SLPC  C213 6172   6.386   4.408   8.939 -0.2377  0.1435 -0.2079
   71SLPC  H13R 6173   6.289   4.361   8.919  0.1035 -0.4761 -0.4085
   71SLPC  C214 6174   6.470   4.434   8.819  0.0535  0.3486 -0.4487
   71SLPC  H14R 6175   6.561   4.371   8.819  0.5918  1.1150  0.1265
   71SLPC  H14S 6176   6.504   4.538   8.840  3.1382 -1.0230  2.2848
   71SLPC  C215 6177   6.397   4.433   8.685  0.0192  0.1752  0.4662
   71SLPC  H15R 6178   6.321   4.514   8.683 -0.3797 -0.1328  1.9560
   71SLPC  H15S 6179   6.354   4.331   8.679 -1.0877  0.5973  1.0359
   71SLPC  C216 6180   6.498   4.466   8.565  0.5709 -0.0004 -0.3666
   71SLPC  H16R 6181   6.570   4.382   8.572  0.1610 -0.4669 -1.4575
   71SLPC  H16S 6182   6.547   4.559   8.600 -0.5837 -0.2008  1.9751
   71SLPC  C217 6183   6.428   4.490   8.430  0.6911  0.6647  0.4271
   71SLPC  H17R 6184   6.513   4.521   8.366  1.4957  1.4466  1.8436
   71SLPC  H17S 6185   6.366   4.582   8.433  2.8415  2.1264  2.1992
   71SLPC  C218 6186   6.353   4.372   8.372  0.0035 -0.2195 -0.1326
   71SLPC  H18R 6187   6.411   4.277   8.380  0.6974  0.2397  0.3037
   71SLPC  H18S 6188   6.334   4.394   8.264  1.0169 -2.2003 -0.7785
   71SLPC  H18T 6189   6.256   4.358   8.425  0.6008 -4.3666  0.2060
   71SLPC   C33 6190   6.837   4.734   9.963 -0.4653  0.2185  0.1515
   71SLPC   H3X 6191   6.936   4.686   9.952 -1.0497 -1.1614  0.7421
   71SLPC   H3Y 6192   6.851   4.802  10.050 -3.1182  1.5851 -0.3593
   71SLPC   C34 6193   6.803   4.824   9.842  0.7626 -0.1415  0.3587
   71SLPC   H4X 6194   6.875   4.909   9.838  1.1042 -0.4719 -0.9243
   71SLPC   H4Y 6195   6.708   4.877   9.863  0.1121 -1.0365 -0.2624
   71SLPC   C35 6196   6.793   4.750   9.713  0.0943 -0.1056  0.2693
   71SLPC   H5X 6197   6.727   4.661   9.720  1.0777 -0.8043  0.9905
   71SLPC   H5Y 6198   6.894   4.709   9.693 -0.5907 -2.1582  0.7665
   71SLPC   C36 6199   6.745   4.841   9.594 -0.0467  0.7129  0.5747
   71SLPC   H6X 6200   6.816   4.926   9.590 -1.0941  1.6245  0.7110
   71SLPC   H6Y 6201   6.643   4.882   9.610 -0.0170  0.1520  2.3725
   71SLPC   C37 6202   6.744   4.770   9.458 -0.7113 -0.3726 -0.4516
   71SLPC   H7X 6203   6.672   4.686   9.453 -0.7210 -0.3195 -1.4323
   71SLPC   H7Y 6204   6.845   4.732   9.436 -0.7710  0.3005 -1.9963
   71SLPC   C38 6205   6.717   4.861   9.340 -0.5224  0.1558 -0.0356
   71SLPC   H8X 6206   6.789   4.945   9.334 -1.0629  0.6120 -0.2177
   71SLPC   H8Y 6207   6.616   4.906   9.355 -1.5510 -2.2317  0.6866
   71SLPC   C39 6208   6.711   4.781   9.210  0.4681 -0.3181  0.6994
   71SLPC   H9X 6209   6.625   4.712   9.220 -0.4964  0.9591  1.5685
   71SLPC   H9Y 6210   6.804   4.723   9.190 -1.3218 -2.8855 -0.8074
   71SLPC  C310 6211   6.675   4.870   9.084  0.0340  0.2470  0.2902
   71SLPC  H10X 6212   6.751   4.950   9.069  1.9948 -1.6907 -0.7609
   71SLPC  H10Y 6213   6.578   4.920   9.105 -0.0100  0.1007  0.4370
   71SLPC  C311 6214   6.666   4.791   8.952 -0.4544  0.2428 -0.4721
   71SLPC  H11X 6215   6.604   4.858   8.889  0.5258 -0.2267 -1.9702
   71SLPC  H11Y 6216   6.617   4.692   8.966 -2.1021  1.0447 -0.3089
   71SLPC  C312 6217   6.796   4.766   8.877  0.1624 -0.1481 -0.2056
   71SLPC  H12X 6218   6.878   4.729   8.943  1.3644 -0.3007 -1.7401
   71SLPC  H12Y 6219   6.829   4.864   8.838  1.3004  0.0593  1.1777
   71SLPC  C313 6220   6.784   4.677   8.752  0.2420  0.1588  0.7685
   71SLPC  H13X 6221   6.701   4.724   8.694 -0.5435 -0.4103  1.3998
   71SLPC  H13Y 6222   6.745   4.578   8.784  0.0299 -1.1605 -2.9713
   71SLPC  C314 6223   6.912   4.661   8.660 -0.2120 -0.2822  0.4744
   71SLPC  H14X 6224   6.978   4.595   8.719  1.2157  2.1290  1.7164
   71SLPC  H14Y 6225   6.958   4.762   8.656 -0.7966 -0.0083  0.4329
   71SLPC  C315 6226   6.877   4.608   8.520  0.8837 -0.5507 -0.3408
   71SLPC  H15X 6227   6.810   4.687   8.478  0.3247 -0.4732  0.6783
   71SLPC  H15Y 6228   6.805   4.524   8.527  0.1736 -0.1615 -2.2103
   71SLPC  C316 6229   6.999   4.570   8.444  0.9052  0.2553 -0.3111
   71SLPC  H16X 6230   7.037   4.468   8.469 -0.0850 -0.3057 -1.0209
   71SLPC  H16Y 6231   7.087   4.636   8.459  1.1535  0.0447 -0.8203
   71SLPC  C317 6232   6.977   4.558   8.287 -0.1500 -0.2485  0.9381
   71SLPC  H17X 6233   6.913   4.468   8.272 -1.5205  1.0844 -2.0320
   71SLPC  H17Y 6234   7.074   4.541   8.235 -1.4410 -2.2954 -0.9674
   71SLPC  C318 6235   6.902   4.663   8.217 -0.4537 -0.7212 -0.4747
   71SLPC  H18X 6236   6.943   4.766   8.223 -1.2017 -0.5000  1.3636
   71SLPC  H18Y 6237   6.799   4.685   8.251 -0.4263  2.2381 -1.9203
   71SLPC  H18Z 6238   6.886   4.651   8.108  0.0302  3.3325 -1.1733
   72SLPC     N 6239   1.860   2.942  10.701  0.5779 -1.0502  0.2286
   72SLPC   C13 6240   1.752   2.843  10.726 -0.0029  0.3296  0.9749
   72SLPC  H13A 6241   1.732   2.817  10.829 -1.7047 -0.2997  0.5253
   72SLPC  H13B 6242   1.665   2.873  10.669  0.1868 -0.9816 -0.0666
   72SLPC  H13C 6243   1.789   2.757  10.672  0.0607 -0.2114  1.8452
   72SLPC   C14 6244   1.972   2.899  10.799 -0.6305 -0.3649  0.4147
   72SLPC  H14A 6245   2.000   2.797  10.779  0.7018 -0.7065  3.4799
   72SLPC  H14B 6246   2.060   2.960  10.786 -0.1636 -1.3042 -1.0269
   72SLPC  H14C 6247   1.930   2.902  10.899 -1.1730 -0.5249  0.1931
   72SLPC   C15 6248   1.805   3.080  10.725 -0.2483 -0.0249  0.0387
   72SLPC  H15A 6249   1.746   3.093  10.815  0.5470  1.0005  0.4214
   72SLPC  H15B 6250   1.892   3.143  10.725 -0.0779 -0.2550  0.3830
   72SLPC  H15C 6251   1.737   3.105  10.644  0.8911 -0.8884 -1.2362
   72SLPC   C12 6252   1.895   2.939  10.552  0.2587  0.1919  0.6300
   72SLPC  H12A 6253   1.817   2.976  10.488  0.2234  0.6529  0.9324
   72SLPC  H12B 6254   1.920   2.837  10.525  0.9195  0.7020 -0.7624
   72SLPC   C11 6255   2.013   3.027  10.509  0.4132  0.2412  0.2759
   72SLPC  H11A 6256   2.029   2.986  10.407  0.2492 -1.3807  0.8802
   72SLPC  H11B 6257   2.096   3.010  10.581  0.1995  3.3031  1.4234
   72SLPC     P 6258   2.087   3.275  10.497  0.1295 -0.2447  0.0018
   72SLPC   O13 6259   2.021   3.403  10.471  0.1556  0.5177  0.1576
   72SLPC   O14 6260   2.165   3.267  10.621 -0.0746 -0.5823 -0.4139
   72SLPC   O12 6261   1.981   3.166  10.510  0.7171  0.5096  0.3137
   72SLPC   O11 6262   2.172   3.244  10.373 -0.0682  0.1558  0.4366
   72SLPC    C1 6263   2.159   3.289  10.239 -0.0073  0.4245  0.6844
   72SLPC    HA 6264   2.154   3.400  10.237 -0.1626  0.5478 -4.2531
   72SLPC    HB 6265   2.248   3.267  10.175 -0.0873  0.2411  0.6353
   72SLPC    C2 6266   2.029   3.240  10.173 -0.7647 -0.5084 -0.1941
   72SLPC    HS 6267   1.944   3.246  10.244 -1.6753  1.0835 -1.3563
   72SLPC   O21 6268   2.050   3.119  10.116  0.2328  0.8604  0.2523
   72SLPC   C21 6269   1.943   3.035  10.118  0.9440 -0.3054  0.1024
   72SLPC   O22 6270   1.837   3.066  10.175 -0.1396 -0.5918 -0.3811
   72SLPC   C22 6271   1.981   2.900  10.061 -0.1486  0.3296 -0.6429
   72SLPC   H2R 6272   2.082   2.894  10.016 -0.4095 -1.6536 -1.0662
   72SLPC   H2S 6273   1.975   2.821  10.139 -2.4129 -3.1379 -3.9129
   72SLPC    C3 6274   1.984   3.337  10.060  0.3842 -0.3785 -1.3613
   72SLPC    HX 6275   2.063   3.346   9.982  0.8782  1.4361 -0.7059
   72SLPC    HY 6276   1.973   3.439  10.103 -1.9090 -1.9818  2.3838
   72SLPC   O31 6277   1.865   3.292   9.995 -0.3349  0.0674  0.4930
   72SLPC   C31 6278   1.754   3.361  10.015  0.4979  0.1597 -0.2291
   72SLPC   O32 6279   1.749   3.460  10.080  0.7738  0.0668  0.1918
   72SLPC   C32 6280   1.636   3.296   9.952  0.4167 -0.7607 -0.1504
   72SLPC   H2X 6281   1.550   3.365   9.969  2.8287  2.4118 -0.0511
   72SLPC   H2Y 6282   1.620   3.198  10.003 -1.6046 -0.0238  0.7546
   72SLPC   C23 6283   1.893   2.849   9.945  0.3173  0.1916 -0.3991
   72SLPC   H3R 6284   1.796   2.816   9.988 -0.3742  1.8354 -0.6225
   72SLPC   H3S 6285   1.940   2.761   9.895 -0.8652 -1.0309  0.5422
   72SLPC   C24 6286   1.877   2.950   9.834 -0.0396 -0.1208 -0.7307
   72SLPC   H4R 6287   1.966   2.998   9.788 -0.7590  1.4146 -0.5711
   72SLPC   H4S 6288   1.832   3.034   9.890  0.0903  0.2276 -1.1410
   72SLPC   C25 6289   1.801   2.894   9.706  0.3336  0.1826  0.6021
   72SLPC   H5R 6290   1.802   2.985   9.643  2.4794  0.6159  1.1714
   72SLPC   H5S 6291   1.703   2.853   9.739  0.7075 -0.1005  1.4013
   72SLPC   C26 6292   1.864   2.794   9.609  0.1713  0.6879 -0.7889
   72SLPC   H6R 6293   1.777   2.760   9.549  0.0285 -1.9316  0.7345
   72SLPC   H6S 6294   1.889   2.704   9.669 -2.5666 -0.9153 -1.8393
   72SLPC   C27 6295   1.987   2.842   9.523  0.0999  0.0505 -0.3250
   72SLPC   H7R 6296   2.012   2.749   9.467 -0.9833  0.0307 -0.8013
   72SLPC   H7S 6297   2.062   2.880   9.595  0.5853  0.6003 -1.1008
   72SLPC   C28 6298   1.941   2.943   9.411 -0.1540 -0.3128 -0.3193
   72SLPC   H8R 6299   1.895   3.030   9.464  1.7091  0.3480  0.2986
   72SLPC   H8S 6300   1.869   2.892   9.344  0.2704  0.1396 -1.1402
   72SLPC   C29 6301   2.066   2.990   9.343 -0.3740  0.0491  0.4893
   72SLPC   H9R 6302   2.116   3.068   9.403  0.4494 -0.5780  0.6331
   72SLPC  C210 6303   2.112   2.950   9.224 -0.9628 -0.3969 -0.1633
   72SLPC  H10R 6304   2.206   2.993   9.187 -1.3797  0.6469 -0.0510
   72SLPC  C211 6305   2.027   2.859   9.128  0.9299  0.0889  0.0340
   72SLPC  H11R 6306   1.996   2.778   9.197 -0.7917  1.8435  1.4362
   72SLPC  H11S 6307   2.101   2.813   9.059  1.5910  0.9842  0.1143
   72SLPC  C212 6308   1.900   2.916   9.062 -0.2706 -0.0959  0.1277
   72SLPC  H12R 6309   1.847   2.974   9.140 -0.8842 -0.5506  0.0488
   72SLPC  C213 6310   1.861   2.930   8.932  0.2951  0.1522 -0.2390
   72SLPC  H13R 6311   1.760   2.967   8.910  0.6263 -0.3777 -2.9366
   72SLPC  C214 6312   1.922   2.849   8.820 -0.4104 -0.3369 -0.0777
   72SLPC  H14R 6313   1.991   2.766   8.847  0.5204  0.1553 -0.9017
   72SLPC  H14S 6314   1.984   2.917   8.759 -2.8326  1.0338 -1.1666
   72SLPC  C215 6315   1.834   2.784   8.719 -0.0882  0.3938 -0.1675
   72SLPC  H15R 6316   1.768   2.710   8.769 -1.8426  1.2203 -1.1625
   72SLPC  H15S 6317   1.899   2.727   8.650 -1.8052 -0.1370 -1.4293
   72SLPC  C216 6318   1.764   2.876   8.626  0.1272 -0.2803 -0.2669
   72SLPC  H16R 6319   1.836   2.917   8.551 -1.6152  0.7074 -1.4647
   72SLPC  H16S 6320   1.718   2.961   8.680  0.9219 -0.0758  0.1053
   72SLPC  C217 6321   1.657   2.811   8.543  0.3470  0.1428  0.8935
   72SLPC  H17R 6322   1.696   2.741   8.466 -0.8331 -0.9541  1.2475
   72SLPC  H17S 6323   1.603   2.899   8.501  0.6452  0.8045  1.8668
   72SLPC  C218 6324   1.564   2.728   8.628 -0.3697 -0.2470 -0.2285
   72SLPC  H18R 6325   1.608   2.632   8.663 -0.9046 -0.0841  0.9673
   72SLPC  H18S 6326   1.476   2.698   8.568 -1.4584 -1.6960  1.9279
   72SLPC  H18T 6327   1.516   2.776   8.716  2.0838  2.5180 -0.2595
   72SLPC   C33 6328   1.652   3.281   9.799  0.3370  0.5476 -0.1216
   72SLPC   H3X 6329   1.732   3.214   9.762 -0.4226 -0.9037  0.7655
   72SLPC   H3Y 6330   1.669   3.382   9.755 -0.9915  0.9803  0.3268
   72SLPC   C34 6331   1.527   3.214   9.732  0.2021 -0.1222  0.1942
   72SLPC   H4X 6332   1.435   3.268   9.763  1.2773  1.4622  0.7179
   72SLPC   H4Y 6333   1.527   3.109   9.770  0.5907  0.7931  2.9274
   72SLPC   C35 6334   1.529   3.207   9.577 -0.2918  0.3741 -0.4753
   72SLPC   H5X 6335   1.635   3.209   9.545 -0.9482 -1.4739 -3.1293
   72SLPC   H5Y 6336   1.488   3.298   9.527 -1.3725 -0.6126 -1.4457
   72SLPC   C36 6337   1.478   3.073   9.522  0.6605  0.2205 -0.2549
   72SLPC   H6X 6338   1.407   3.021   9.591  2.9068 -0.5049  1.6396
   72SLPC   H6Y 6339   1.568   3.008   9.530 -0.0182 -0.5498  1.7502
   72SLPC   C37 6340   1.421   3.089   9.380 -0.5454  0.6423 -0.3458
   72SLPC   H7X 6341   1.336   3.160   9.392 -1.3417 -0.2265 -0.6746
   72SLPC   H7Y 6342   1.381   2.988   9.355  2.1377 -0.9866  1.4997
   72SLPC   C38 6343   1.528   3.135   9.282  0.1614 -0.2036 -0.2930
   72SLPC   H8X 6344   1.617   3.070   9.289  2.6308  2.9771 -0.0612
   72SLPC   H8Y 6345   1.559   3.239   9.308  0.5210 -0.7043  1.3824
   72SLPC   C39 6346   1.485   3.130   9.134 -0.3304  0.5687 -0.1390
   72SLPC   H9X 6347   1.398   3.197   9.119 -1.1912 -0.1760  1.2405
   72SLPC   H9Y 6348   1.445   3.028   9.115  1.6255 -0.3420  0.3835
   72SLPC  C310 6349   1.587   3.176   9.034 -0.1646 -0.4714  0.5020
   72SLPC  H10X 6350   1.681   3.119   9.051  0.1264  0.2140  1.2476
   72SLPC  H10Y 6351   1.601   3.281   9.067  1.3746 -1.0691  1.8945
   72SLPC  C311 6352   1.549   3.170   8.889 -0.1810 -0.2929 -0.7854
   72SLPC  H11X 6353   1.546   3.061   8.867  0.7014 -1.0124  2.2151
   72SLPC  H11Y 6354   1.636   3.210   8.832  1.0269  1.6679  2.1733
   72SLPC  C312 6355   1.419   3.239   8.843  0.7466  0.6371  0.6089
   72SLPC  H12X 6356   1.417   3.344   8.878 -1.0897  1.1566 -0.8784
   72SLPC  H12Y 6357   1.331   3.177   8.873 -0.3125  2.5471  1.6123
   72SLPC  C313 6358   1.412   3.246   8.691 -0.4684 -0.3198 -0.5141
   72SLPC  H13X 6359   1.315   3.258   8.640  0.1444 -0.6377 -1.8058
   72SLPC  H13Y 6360   1.455   3.151   8.651 -0.7244 -0.9137  0.5741
   72SLPC  C314 6361   1.501   3.373   8.647  0.7128  0.2181 -0.4087
   72SLPC  H14X 6362   1.607   3.364   8.677  0.8082  0.9597 -0.5025
   72SLPC  H14Y 6363   1.444   3.455   8.696 -0.9116 -2.5271  2.6735
   72SLPC  C315 6364   1.512   3.391   8.495  0.7544  0.2765  1.3146
   72SLPC  H15X 6365   1.407   3.396   8.459  0.9199  0.4533  0.8492
   72SLPC  H15Y 6366   1.555   3.294   8.462  1.0023  0.7355  0.2379
   72SLPC  C316 6367   1.606   3.500   8.455  0.2621  0.0096  0.0655
   72SLPC  H16X 6368   1.712   3.468   8.466 -0.2530 -1.2693  1.7362
   72SLPC  H16Y 6369   1.586   3.592   8.514 -0.5886 -0.5135  0.6035
   72SLPC  C317 6370   1.589   3.549   8.306 -0.1125  0.3634 -0.5266
   72SLPC  H17X 6371   1.645   3.644   8.296 -0.5121  0.4751 -1.9421
   72SLPC  H17Y 6372   1.481   3.569   8.287 -0.3308  1.4021  1.5710
   72SLPC  C318 6373   1.643   3.440   8.207  0.1164 -0.5355  0.3266
   72SLPC  H18X 6374   1.634   3.479   8.103 -0.2967  1.3674  1.0165
   72SLPC  H18Y 6375   1.582   3.348   8.220 -2.8176  1.4984  2.4110
   72SLPC  H18Z 6376   1.751   3.416   8.219  0.3431 -0.1666 -0.8550
   73SLPC     N 6377   3.034   0.822  10.492  0.6146 -0.6389  0.1707
   73SLPC   C13 6378   2.975   0.947  10.423  0.2690  0.0818  0.1684
   73SLPC  H13A 6379   2.991   0.939  10.317  1.0572  0.2390  0.2706
   73SLPC  H13B 6380   2.869   0.953  10.445  0.5502  2.3963  1.2464
   73SLPC  H13C 6381   3.023   1.036  10.463 -0.2760 -0.0887  1.2392
   73SLPC   C14 6382   3.171   0.817  10.443 -0.1925 -0.3771 -0.6866
   73SLPC  H14A 6383   3.225   0.738  10.493  0.6249  0.1964 -0.6557
   73SLPC  H14B 6384   3.176   0.791  10.338 -2.7155  0.2531 -1.0223
   73SLPC  H14C 6385   3.218   0.909  10.473 -0.5663 -0.1706 -0.7313
   73SLPC   C15 6386   2.966   0.706  10.434  0.3586  0.1859  0.5019
   73SLPC  H15A 6387   2.863   0.707  10.466 -0.1178  2.1762 -0.8685
   73SLPC  H15B 6388   2.980   0.699  10.327  0.2898 -2.4265  0.6122
   73SLPC  H15C 6389   3.009   0.616  10.475 -0.1431 -1.3148 -2.0498
   73SLPC   C12 6390   3.021   0.831  10.641  0.2392 -0.4007 -0.5458
   73SLPC  H12A 6391   3.040   0.933  10.671 -0.2188 -0.8401  1.3470
   73SLPC  H12B 6392   3.086   0.767  10.699 -0.7699 -1.2987 -0.3781
   73SLPC   C11 6393   2.877   0.809  10.700 -0.1503 -0.2036  0.4436
   73SLPC  H11A 6394   2.884   0.808  10.811 -1.4411 -3.4707  0.5941
   73SLPC  H11B 6395   2.844   0.706  10.677 -2.2123  0.5393 -0.1868
   73SLPC     P 6396   2.623   0.881  10.683  0.2632  0.3971  0.1359
   73SLPC   O13 6397   2.592   0.739  10.666  0.0661  0.0097  0.4955
   73SLPC   O14 6398   2.588   0.956  10.808 -0.1082 -0.4965  0.3241
   73SLPC   O12 6399   2.780   0.908  10.650 -0.3318 -0.3178 -0.3554
   73SLPC   O11 6400   2.553   0.958  10.558  0.1210  0.0399  0.4799
   73SLPC    C1 6401   2.453   0.901  10.468 -0.2572  0.4869 -0.1357
   73SLPC    HA 6402   2.378   0.847  10.529 -1.5658  2.7429  0.3769
   73SLPC    HB 6403   2.385   0.977  10.423 -0.9212  0.0872  0.1804
   73SLPC    C2 6404   2.512   0.798  10.364  0.2413  0.4517  0.0531
   73SLPC    HS 6405   2.589   0.739  10.418 -0.0886  0.2120  0.2674
   73SLPC   O21 6406   2.571   0.874  10.247  0.0974  0.2018 -0.2110
   73SLPC   C21 6407   2.661   0.800  10.181 -0.0390 -0.1624 -0.2827
   73SLPC   O22 6408   2.715   0.699  10.226 -0.4254  0.3633  0.2158
   73SLPC   C22 6409   2.687   0.867  10.049 -0.9352  0.0394  0.2342
   73SLPC   H2R 6410   2.619   0.952  10.026  0.4902  1.5300  1.3298
   73SLPC   H2S 6411   2.781   0.922  10.069 -1.0059  1.3888 -2.6396
   73SLPC    C3 6412   2.395   0.699  10.326 -0.0939 -0.1782  0.2458
   73SLPC    HX 6413   2.336   0.763  10.256 -0.6112 -1.2166 -0.2976
   73SLPC    HY 6414   2.344   0.677  10.422  2.0237  1.3768  1.8123
   73SLPC   O31 6415   2.440   0.580  10.259 -0.1552 -0.1796 -0.0656
   73SLPC   C31 6416   2.492   0.478  10.330 -0.2609  0.1112 -0.3504
   73SLPC   O32 6417   2.504   0.481  10.449  0.4276 -0.2392 -0.6345
   73SLPC   C32 6418   2.528   0.360  10.233  0.1566  0.0057 -0.0205
   73SLPC   H2X 6419   2.434   0.323  10.187  0.4791 -0.6169 -0.1745
   73SLPC   H2Y 6420   2.574   0.279  10.294 -0.5227 -0.3062  0.0891
   73SLPC   C23 6421   2.693   0.764   9.936  0.6957 -0.3732 -0.2393
   73SLPC   H3R 6422   2.741   0.670   9.971 -1.5364 -0.6693  2.3488
   73SLPC   H3S 6423   2.752   0.809   9.854  0.2911  0.7912  0.0950
   73SLPC   C24 6424   2.555   0.734   9.883 -0.5912 -0.2055 -0.1680
   73SLPC   H4R 6425   2.512   0.826   9.838  1.0222  0.6235 -0.0814
   73SLPC   H4S 6426   2.496   0.705   9.972  0.8457 -3.2600 -0.0670
   73SLPC   C25 6427   2.562   0.625   9.775 -0.0136 -0.2846 -0.6351
   73SLPC   H5R 6428   2.578   0.525   9.820 -0.3579  0.0605  0.2844
   73SLPC   H5S 6429   2.646   0.639   9.704 -1.0468 -0.6725 -1.9856
   73SLPC   C26 6430   2.434   0.618   9.688 -0.1004  0.5040  0.1754
   73SLPC   H6R 6431   2.349   0.588   9.754  0.2761 -3.8806 -1.0333
   73SLPC   H6S 6432   2.445   0.529   9.622  1.7641  0.4731  0.4937
   73SLPC   C27 6433   2.402   0.725   9.580 -0.4351  0.2453 -0.6081
   73SLPC   H7R 6434   2.494   0.722   9.517 -0.6397  1.2001 -0.9687
   73SLPC   H7S 6435   2.385   0.827   9.622  1.7765 -0.6046  2.7166
   73SLPC   C28 6436   2.281   0.686   9.490  0.0116  0.1955  0.0470
   73SLPC   H8R 6437   2.184   0.706   9.540 -1.2818 -3.5054 -0.6249
   73SLPC   H8S 6438   2.278   0.575   9.490 -3.6916  0.1815  0.2749
   73SLPC   C29 6439   2.302   0.751   9.358 -0.2916 -0.0101 -0.1169
   73SLPC   H9R 6440   2.306   0.860   9.370  1.1927 -0.1786  1.2302
   73SLPC  C210 6441   2.329   0.688   9.243 -0.6942 -0.3162  0.5001
   73SLPC  H10R 6442   2.345   0.747   9.152  0.7569 -0.9490  0.3135
   73SLPC  C211 6443   2.326   0.539   9.210 -0.4149  0.3962 -0.4343
   73SLPC  H11R 6444   2.368   0.484   9.297  0.6232 -1.0388 -1.7888
   73SLPC  H11S 6445   2.386   0.502   9.124  1.1774  0.1763  0.7205
   73SLPC  C212 6446   2.181   0.499   9.201 -0.3939  0.6410  0.4126
   73SLPC  H12R 6447   2.135   0.477   9.299  2.7767 -1.1434  1.6889
   73SLPC  C213 6448   2.110   0.491   9.085 -0.0270  0.4342  0.0574
   73SLPC  H13R 6449   2.003   0.468   9.079 -0.1685  0.8269  0.9793
   73SLPC  C214 6450   2.158   0.546   8.956  0.8131  0.4073  0.1652
   73SLPC  H14R 6451   2.250   0.607   8.968 -1.1066  3.4326  0.5612
   73SLPC  H14S 6452   2.085   0.624   8.925  0.4324 -0.5979 -1.5946
   73SLPC  C215 6453   2.171   0.454   8.837 -0.7080  0.5281 -0.3684
   73SLPC  H15R 6454   2.239   0.369   8.859 -0.0132  0.8365 -1.2626
   73SLPC  H15S 6455   2.210   0.519   8.757 -0.2216 -1.1964 -1.6020
   73SLPC  C216 6456   2.036   0.396   8.783 -0.0631 -0.1916 -0.1282
   73SLPC  H16R 6457   1.959   0.475   8.785  0.0949 -0.0174 -0.7649
   73SLPC  H16S 6458   2.015   0.306   8.845 -0.1880 -0.2793 -0.2968
   73SLPC  C217 6459   2.058   0.361   8.634 -0.1015 -0.5931 -1.0315
   73SLPC  H17R 6460   2.153   0.306   8.618  0.1950 -0.3947 -0.0332
   73SLPC  H17S 6461   2.066   0.454   8.574  1.0170 -0.3699 -0.5647
   73SLPC  C218 6462   1.941   0.272   8.582 -0.1557 -0.0057 -0.3093
   73SLPC  H18R 6463   1.933   0.178   8.641 -0.6222  0.7429  0.8626
   73SLPC  H18S 6464   1.955   0.246   8.475  2.6537  1.7761 -0.4837
   73SLPC  H18T 6465   1.847   0.330   8.596 -1.4160 -1.5297 -2.0779
   73SLPC   C33 6466   2.638   0.395  10.131  0.5079 -0.5958  0.5067
   73SLPC   H3X 6467   2.720   0.447  10.184  1.2095 -0.6239 -0.5201
   73SLPC   H3Y 6468   2.605   0.460  10.048  1.0240  0.4866  1.1236
   73SLPC   C34 6469   2.690   0.265  10.064 -0.6196  0.2683  0.5644
   73SLPC   H4X 6470   2.722   0.201  10.150 -2.7092  0.9988  1.9693
   73SLPC   H4Y 6471   2.779   0.287  10.001 -1.1739  0.9619  0.0131
   73SLPC   C35 6472   2.595   0.175   9.983 -0.3998 -0.0778  0.2485
   73SLPC   H5X 6473   2.522   0.138  10.059  0.5090  0.3519  1.3716
   73SLPC   H5Y 6474   2.656   0.088   9.949  0.1666  0.5887 -0.4729
   73SLPC   C36 6475   2.523   0.246   9.866  0.2215 -0.4054 -0.5191
   73SLPC   H6X 6476   2.587   0.331   9.833 -1.4480  1.1053 -0.0404
   73SLPC   H6Y 6477   2.428   0.290   9.903  1.0665  0.8872  0.1995
   73SLPC   C37 6478   2.488   0.168   9.739 -0.0166 -0.5777  0.3029
   73SLPC   H7X 6479   2.425   0.082   9.769  1.4295 -0.6596  3.4723
   73SLPC   H7Y 6480   2.577   0.114   9.699 -1.2078 -1.4910 -1.2347
   73SLPC   C38 6481   2.418   0.226   9.619 -0.6654 -0.7196  0.5814
   73SLPC   H8X 6482   2.488   0.298   9.571 -0.8793 -0.7165  0.2644
   73SLPC   H8Y 6483   2.337   0.293   9.656 -0.3200 -0.1011  0.2439
   73SLPC   C39 6484   2.359   0.132   9.521  0.3490 -0.2055 -0.1377
   73SLPC   H9X 6485   2.298   0.057   9.576  0.8474 -0.1853  0.4500
   73SLPC   H9Y 6486   2.447   0.084   9.473 -0.9601 -1.6699 -1.1908
   73SLPC  C310 6487   2.263   0.195   9.410 -0.1231  0.5635  0.6985
   73SLPC  H10X 6488   2.321   0.261   9.342 -0.2158  0.2307  0.2907
   73SLPC  H10Y 6489   2.183   0.252   9.461  0.4777  0.6718  1.5305
   73SLPC  C311 6490   2.201   0.088   9.320 -0.0248 -0.6783  0.2230
   73SLPC  H11X 6491   2.146   0.013   9.381 -0.1755 -0.0456  0.8730
   73SLPC  H11Y 6492   2.284   0.039   9.264  0.5890  1.1440 -0.5121
   73SLPC  C312 6493   2.103   0.145   9.211  0.2962 -0.1968  0.2131
   73SLPC  H12X 6494   2.165   0.206   9.142 -1.6191  0.1798 -1.2365
   73SLPC  H12Y 6495   2.027   0.207   9.263  1.1186  0.9081  0.1472
   73SLPC  C313 6496   2.028   0.043   9.133  0.0449 -0.2994 -0.8376
   73SLPC  H13X 6497   1.964  -0.013   9.204 -0.9751  0.6350 -0.9880
   73SLPC  H13Y 6498   2.101  -0.033   9.099  1.5124  0.2721  0.8631
   73SLPC  C314 6499   1.945   0.083   9.012  0.1352  0.4957  0.4437
   73SLPC  H14X 6500   2.013   0.130   8.937  1.6284 -0.9434  0.8346
   73SLPC  H14Y 6501   1.870   0.163   9.029  1.1400  1.4036  0.6393
   73SLPC  C315 6502   1.863  -0.037   8.951  0.4714  0.5750  0.1241
   73SLPC  H15X 6503   1.792  -0.074   9.028 -0.1714 -1.3506 -1.3257
   73SLPC  H15Y 6504   1.931  -0.119   8.921  1.0982  1.4639 -0.9636
   73SLPC  C316 6505   1.785  -0.002   8.825  0.2198 -0.0657  0.3363
   73SLPC  H16X 6506   1.860  -0.012   8.744 -0.1685 -1.4985  0.1241
   73SLPC  H16Y 6507   1.738   0.098   8.839 -0.8840 -0.1227 -2.3813
   73SLPC  C317 6508   1.683  -0.115   8.803 -0.8044 -0.1203 -0.3993
   73SLPC  H17X 6509   1.616  -0.110   8.891 -0.6900 -0.9885 -0.2551
   73SLPC  H17Y 6510   1.738  -0.209   8.825  0.8365  0.7113 -0.7895
   73SLPC  C318 6511   1.608  -0.113   8.677 -0.0681 -0.4257  0.1917
   73SLPC  H18X 6512   1.662  -0.135   8.582 -2.3204  0.0762 -1.2880
   73SLPC  H18Y 6513   1.571  -0.008   8.667  1.3717  0.1600  0.6621
   73SLPC  H18Z 6514   1.527  -0.188   8.682 -0.2354 -0.1860  1.2105
   74SLPC     N 6515   2.631   2.380  10.496 -0.2507 -0.2492  0.0418
   74SLPC   C13 6516   2.507   2.295  10.469  0.1570  0.6052  0.1512
   74SLPC  H13A 6517   2.533   2.190  10.479  2.8098  1.2896  1.5224
   74SLPC  H13B 6518   2.432   2.328  10.539  1.2467 -1.7059  2.5960
   74SLPC  H13C 6519   2.477   2.317  10.368 -0.0284  0.3419  0.1470
   74SLPC   C14 6520   2.674   2.360  10.634 -0.5131 -0.1307 -0.0360
   74SLPC  H14A 6521   2.685   2.253  10.645  0.8401 -0.0496 -0.4028
   74SLPC  H14B 6522   2.777   2.391  10.645 -0.6124  1.2892 -2.3580
   74SLPC  H14C 6523   2.614   2.409  10.709 -0.1405 -0.2256  0.3250
   74SLPC   C15 6524   2.596   2.536  10.488  0.4382 -0.2317 -0.0780
   74SLPC  H15A 6525   2.672   2.600  10.530  0.2281 -0.1923  0.2418
   74SLPC  H15B 6526   2.579   2.562  10.384  0.0653  0.5436  0.1670
   74SLPC  H15C 6527   2.508   2.554  10.548  1.0092  0.9481  0.4395
   74SLPC   C12 6528   2.735   2.340  10.398 -0.3362 -0.1311  0.0130
   74SLPC  H12A 6529   2.694   2.326  10.298  0.3919 -1.1502 -0.1546
   74SLPC  H12B 6530   2.768   2.242  10.427 -0.5755 -0.7234 -1.6021
   74SLPC   C11 6531   2.855   2.431  10.387  0.4136  0.9773  0.4708
   74SLPC  H11A 6532   2.823   2.527  10.341  1.1207  0.7203 -0.5868
   74SLPC  H11B 6533   2.926   2.386  10.314  0.1732  2.4254 -0.7133
   74SLPC     P 6534   2.975   2.592  10.555 -0.3606 -0.2381  0.1532
   74SLPC   O13 6535   2.862   2.669  10.610 -0.2131  0.1265 -0.2795
   74SLPC   O14 6536   3.090   2.564  10.642 -0.0720  0.1735 -0.0628
   74SLPC   O12 6537   2.927   2.451  10.505  0.1521 -0.7485  0.7002
   74SLPC   O11 6538   3.033   2.661  10.424  0.3283  0.1100 -0.0421
   74SLPC    C1 6539   3.152   2.605  10.363 -0.1428 -0.1237 -0.5473
   74SLPC    HA 6540   3.233   2.627  10.435  0.2057  1.4576 -1.3771
   74SLPC    HB 6541   3.153   2.495  10.345  0.2394 -0.3541  0.7686
   74SLPC    C2 6542   3.194   2.670  10.229 -0.0122  0.5326  0.0440
   74SLPC    HS 6543   3.202   2.780  10.242  0.4275  0.6373 -1.0052
   74SLPC   O21 6544   3.086   2.644  10.139 -0.5398  0.2048  0.1879
   74SLPC   C21 6545   3.086   2.720  10.027  0.4714 -0.4088  0.4137
   74SLPC   O22 6546   3.167   2.803   9.989 -0.6588  0.8413  0.6430
   74SLPC   C22 6547   2.948   2.697   9.965 -0.2496 -0.6223  0.3371
   74SLPC   H2R 6548   2.928   2.588   9.953  1.9451 -1.1453  1.0334
   74SLPC   H2S 6549   2.874   2.742  10.034  0.6013  1.0070  0.2456
   74SLPC    C3 6550   3.335   2.617  10.178 -0.1934 -0.7279  0.2754
   74SLPC    HX 6551   3.413   2.645  10.252 -0.8374  0.2688  0.5940
   74SLPC    HY 6552   3.348   2.674  10.084 -2.5304 -0.1732  0.2295
   74SLPC   O31 6553   3.351   2.472  10.162  0.3564 -0.0910  0.2584
   74SLPC   C31 6554   3.315   2.417  10.047  0.4464 -0.9289 -0.0017
   74SLPC   O32 6555   3.254   2.470   9.958  0.5755 -0.2561  0.2828
   74SLPC   C32 6556   3.363   2.272  10.054 -0.5183 -0.3030 -0.3599
   74SLPC   H2X 6557   3.302   2.226  10.134 -0.7535  0.6358  0.0026
   74SLPC   H2Y 6558   3.466   2.273  10.096 -0.5613 -0.1018 -0.2602
   74SLPC   C23 6559   2.922   2.776   9.828 -0.2744  0.0393  0.2974
   74SLPC   H3R 6560   2.976   2.872   9.838 -0.2058  0.1352 -0.8870
   74SLPC   H3S 6561   2.811   2.780   9.825 -0.3323 -0.3745  1.4662
   74SLPC   C24 6562   2.974   2.702   9.709  0.0708  0.1341  0.3824
   74SLPC   H4R 6563   2.934   2.599   9.694  0.6061 -0.0522  0.1930
   74SLPC   H4S 6564   3.082   2.689   9.736 -0.1346 -0.1141  1.1117
   74SLPC   C25 6565   2.959   2.778   9.577  0.1439  1.1027  0.1441
   74SLPC   H5R 6566   3.013   2.875   9.578  0.8416  0.7204  0.6245
   74SLPC   H5S 6567   2.852   2.798   9.557  0.1123 -0.5604 -1.6617
   74SLPC   C26 6568   3.015   2.690   9.462  0.2021 -0.8105  0.0894
   74SLPC   H6R 6569   2.946   2.603   9.454  0.5133 -0.9012 -3.0232
   74SLPC   H6S 6570   3.121   2.661   9.479  0.1065 -1.3361 -0.1947
   74SLPC   C27 6571   3.009   2.772   9.336  0.2974  0.4695  0.1556
   74SLPC   H7R 6572   3.061   2.869   9.353  1.0859  0.6004 -2.5898
   74SLPC   H7S 6573   2.906   2.793   9.302  0.7130 -0.4535 -1.8061
   74SLPC   C28 6574   3.078   2.689   9.217  0.0958 -0.8491  0.1058
   74SLPC   H8R 6575   3.028   2.591   9.202  1.2509 -1.4389 -0.0209
   74SLPC   H8S 6576   3.183   2.670   9.250  0.8281  2.0014 -0.3738
   74SLPC   C29 6577   3.082   2.770   9.088  0.6545 -0.4327  0.3987
   74SLPC   H9R 6578   3.027   2.865   9.091  3.5658  1.4861 -1.2259
   74SLPC  C210 6579   3.154   2.746   8.978  0.0431  0.4780 -0.0507
   74SLPC  H10R 6580   3.137   2.806   8.888 -0.2740 -1.0768 -1.0719
   74SLPC  C211 6581   3.240   2.621   8.964  0.2674  0.1334  0.2536
   74SLPC  H11R 6582   3.195   2.545   8.897  1.0539  0.6280 -0.8863
   74SLPC  H11S 6583   3.248   2.571   9.063 -2.0203 -1.1713 -0.1554
   74SLPC  C212 6584   3.387   2.661   8.933  0.3166  0.9266  0.4556
   74SLPC  H12R 6585   3.424   2.740   9.001 -0.7766 -0.6510  3.0235
   74SLPC  C213 6586   3.463   2.612   8.836  0.0562  0.2221  0.4056
   74SLPC  H13R 6587   3.565   2.650   8.820  0.3635  0.0082  1.7367
   74SLPC  C214 6588   3.419   2.507   8.738  0.3900  0.4232 -0.1839
   74SLPC  H14R 6589   3.369   2.425   8.794 -0.9336  2.6179  2.0621
   74SLPC  H14S 6590   3.510   2.467   8.688 -0.6260 -1.0661 -0.9030
   74SLPC  C215 6591   3.316   2.552   8.630 -0.1529  0.3747  0.4140
   74SLPC  H15R 6592   3.339   2.650   8.582 -0.3198  0.8207  1.2270
   74SLPC  H15S 6593   3.218   2.575   8.678 -0.6607  0.1777 -0.5058
   74SLPC  C216 6594   3.314   2.450   8.518 -0.2472  0.9299 -0.3271
   74SLPC  H16R 6595   3.336   2.354   8.568  2.7772  1.8076  0.2359
   74SLPC  H16S 6596   3.404   2.458   8.453 -0.2755  0.1741 -0.4646
   74SLPC  C217 6597   3.180   2.437   8.442 -0.3882  0.2398  0.5238
   74SLPC  H17R 6598   3.167   2.533   8.388  0.1915  1.1443  1.9318
   74SLPC  H17S 6599   3.090   2.442   8.507 -2.0950 -0.7046 -1.6431
   74SLPC  C218 6600   3.176   2.314   8.347 -0.2081 -0.5157 -0.6262
   74SLPC  H18R 6601   3.270   2.306   8.289  0.8643 -1.1878  1.1002
   74SLPC  H18S 6602   3.091   2.330   8.278 -0.9815 -1.4543  0.0755
   74SLPC  H18T 6603   3.165   2.216   8.399  0.8083  0.1115  0.8319
   74SLPC   C33 6604   3.364   2.208   9.916 -0.1015  0.1561  0.4674
   74SLPC   H3X 6605   3.431   2.260   9.844 -1.0998  0.2467 -0.4130
   74SLPC   H3Y 6606   3.263   2.210   9.869  0.2502  0.1006 -0.3157
   74SLPC   C34 6607   3.413   2.065   9.933  0.2055  0.4254 -0.1901
   74SLPC   H4X 6608   3.330   2.000   9.968  0.7502 -0.6411 -0.8589
   74SLPC   H4Y 6609   3.489   2.066  10.014 -0.0981  0.4298  0.0991
   74SLPC   C35 6610   3.470   2.002   9.808  0.7782 -0.0732  0.7440
   74SLPC   H5X 6611   3.581   1.996   9.817  0.7563 -3.4232 -0.0942
   74SLPC   H5Y 6612   3.442   2.065   9.721 -0.5346 -2.0083 -0.3050
   74SLPC   C36 6613   3.414   1.858   9.784  0.2904  0.2386  0.9091
   74SLPC   H6X 6614   3.307   1.865   9.756  0.6056  1.7880 -0.0225
   74SLPC   H6Y 6615   3.423   1.800   9.879 -2.2637 -1.8664 -0.0154
   74SLPC   C37 6616   3.485   1.782   9.668 -0.3057 -0.1743 -0.4456
   74SLPC   H7X 6617   3.489   1.677   9.703 -0.1055 -0.0965 -0.2380
   74SLPC   H7Y 6618   3.593   1.808   9.662  0.1682 -1.9046  0.0612
   74SLPC   C38 6619   3.413   1.792   9.533  0.1967 -0.2634 -0.4407
   74SLPC   H8X 6620   3.417   1.897   9.499 -0.7149 -0.6552 -1.8805
   74SLPC   H8Y 6621   3.305   1.780   9.553  0.6735 -2.0955  1.4484
   74SLPC   C39 6622   3.468   1.690   9.431 -0.1475 -0.6179 -0.4707
   74SLPC   H9X 6623   3.436   1.589   9.463 -1.5296  0.1005  0.5413
   74SLPC   H9Y 6624   3.579   1.695   9.433 -0.1362 -0.8056 -0.5804
   74SLPC  C310 6625   3.413   1.723   9.290  0.0274  0.3997 -0.1659
   74SLPC  H10X 6626   3.432   1.831   9.273 -1.4111  0.5503 -0.8867
   74SLPC  H10Y 6627   3.303   1.713   9.298 -0.3929 -1.7121 -5.1439
   74SLPC  C311 6628   3.482   1.637   9.186 -0.4230  0.1110 -0.2535
   74SLPC  H11X 6629   3.507   1.538   9.230  0.9946 -0.4928 -2.2635
   74SLPC  H11Y 6630   3.586   1.667   9.164 -0.9912  2.3468 -0.1079
   74SLPC  C312 6631   3.418   1.627   9.049  0.1600 -0.6087  0.2237
   74SLPC  H12X 6632   3.396   1.730   9.011  0.3311 -0.6268  0.0734
   74SLPC  H12Y 6633   3.322   1.571   9.054  0.2044 -0.8366 -1.1841
   74SLPC  C313 6634   3.510   1.557   8.946  0.0417  0.6950  0.1358
   74SLPC  H13X 6635   3.544   1.463   8.992 -0.2742  0.5297  0.0365
   74SLPC  H13Y 6636   3.600   1.613   8.911  1.2531 -2.4850 -2.2791
   74SLPC  C314 6637   3.426   1.527   8.818 -0.4634 -0.2863  0.0938
   74SLPC  H14X 6638   3.397   1.622   8.769  1.0915  1.4940  2.3838
   74SLPC  H14Y 6639   3.332   1.475   8.848  0.3708 -1.7440  0.3067
   74SLPC  C315 6640   3.497   1.423   8.724  0.2654 -0.7632 -0.9398
   74SLPC  H15X 6641   3.419   1.378   8.659  0.5403 -0.2962 -1.5998
   74SLPC  H15Y 6642   3.543   1.343   8.786 -2.6491 -0.9558  1.2237
   74SLPC  C316 6643   3.612   1.502   8.654  0.3370 -0.5093  0.1940
   74SLPC  H16X 6644   3.700   1.509   8.722 -1.4592 -0.3831  2.6851
   74SLPC  H16Y 6645   3.583   1.609   8.641  0.6444 -0.4291  0.1626
   74SLPC  C317 6646   3.632   1.444   8.514  0.4482  0.5737 -0.0224
   74SLPC  H17X 6647   3.537   1.437   8.456 -0.8884  0.7846  2.0539
   74SLPC  H17Y 6648   3.675   1.345   8.537  0.6817  1.1931  2.5198
   74SLPC  C318 6649   3.745   1.516   8.441 -0.4990 -0.1692 -0.6180
   74SLPC  H18X 6650   3.822   1.539   8.518 -0.3901  2.3524 -1.4119
   74SLPC  H18Y 6651   3.699   1.607   8.399 -2.6425 -0.4919  0.8555
   74SLPC  H18Z 6652   3.790   1.450   8.363  1.1139  2.2721 -1.8771
   75SLPC     N 6653   2.236   6.691   5.959  0.1804 -0.0076 -0.3597
   75SLPC   C13 6654   2.298   6.826   5.917  0.2969  0.0338 -0.3595
   75SLPC  H13A 6655   2.402   6.798   5.923  0.2483 -0.2929 -0.9742
   75SLPC  H13B 6656   2.269   6.864   5.820 -0.1912 -0.0341 -0.2399
   75SLPC  H13C 6657   2.279   6.902   5.992  0.8965  0.9248 -1.0821
   75SLPC   C14 6658   2.273   6.595   5.852  0.2663  0.3115  0.1253
   75SLPC  H14A 6659   2.379   6.603   5.835  0.2651 -1.6854 -1.1862
   75SLPC  H14B 6660   2.249   6.498   5.894 -1.4668  0.4152 -0.5652
   75SLPC  H14C 6661   2.220   6.594   5.758  1.7008 -2.3326 -0.7704
   75SLPC   C15 6662   2.088   6.710   5.943 -0.6458 -0.4354 -0.1019
   75SLPC  H15A 6663   2.069   6.741   5.841 -1.2354  2.8127  0.8829
   75SLPC  H15B 6664   2.041   6.618   5.975  0.2323 -1.2928 -1.2031
   75SLPC  H15C 6665   2.051   6.788   6.007  1.1178  2.0329 -1.8928
   75SLPC   C12 6666   2.275   6.641   6.092 -0.4454 -0.2101 -0.1670
   75SLPC  H12A 6667   2.217   6.707   6.155 -1.0855 -0.5291 -0.4154
   75SLPC  H12B 6668   2.379   6.666   6.108 -0.0304 -1.3872 -0.8939
   75SLPC   C11 6669   2.237   6.499   6.130 -0.2926  0.5794 -0.2394
   75SLPC  H11A 6670   2.291   6.466   6.221 -1.3874  0.3679  0.3531
   75SLPC  H11B 6671   2.273   6.426   6.055  0.7529  0.4285  0.3984
   75SLPC     P 6672   2.010   6.535   6.248  0.1858  0.2183 -0.2326
   75SLPC   O13 6673   2.070   6.650   6.319  0.2957 -0.3262 -0.6814
   75SLPC   O14 6674   1.877   6.555   6.186 -0.4597 -0.1497 -0.2599
   75SLPC   O12 6675   2.099   6.473   6.139  0.5818  0.4272 -0.5888
   75SLPC   O11 6676   1.990   6.424   6.359 -0.3717 -0.5746 -0.5680
   75SLPC    C1 6677   1.920   6.303   6.341 -0.1272 -0.7184 -0.3083
   75SLPC    HA 6678   1.836   6.317   6.269 -1.3836 -0.0435  1.2321
   75SLPC    HB 6679   1.979   6.221   6.295  3.7322  0.6785  1.7806
   75SLPC    C2 6680   1.855   6.249   6.469  0.4197  0.5950  0.1411
   75SLPC    HS 6681   1.794   6.160   6.442  1.0529  0.1261  0.2024
   75SLPC   O21 6682   1.786   6.343   6.548  0.9344  0.0314  0.5397
   75SLPC   C21 6683   1.658   6.369   6.511 -0.3592 -0.2411 -0.2180
   75SLPC   O22 6684   1.602   6.329   6.410 -0.1886  0.3849  0.3146
   75SLPC   C22 6685   1.597   6.454   6.613 -0.4186 -0.4255 -0.3313
   75SLPC   H2R 6686   1.672   6.488   6.688 -2.1526 -0.8722  1.7078
   75SLPC   H2S 6687   1.542   6.540   6.568  1.0765  0.5585 -0.3543
   75SLPC    C3 6688   1.973   6.200   6.554  0.2915  0.4141  0.1753
   75SLPC    HX 6689   2.037   6.291   6.561 -0.3889  1.3217 -3.5172
   75SLPC    HY 6690   2.032   6.126   6.496 -0.9023  1.4342 -2.5030
   75SLPC   O31 6691   1.936   6.152   6.681 -0.0124 -0.2561 -0.4910
   75SLPC   C31 6692   1.938   6.231   6.790  0.3091 -0.3808 -0.0761
   75SLPC   O32 6693   1.999   6.339   6.799  0.1146 -0.5255  0.9389
   75SLPC   C32 6694   1.833   6.174   6.892 -0.7750  0.2246 -0.0052
   75SLPC   H2X 6695   1.828   6.065   6.876 -2.0524  0.3563 -0.5942
   75SLPC   H2Y 6696   1.733   6.214   6.864 -0.4082  1.3479  0.2122
   75SLPC   C23 6697   1.500   6.367   6.694  0.5939  0.2177 -0.8252
   75SLPC   H3R 6698   1.536   6.265   6.721  0.9157  0.9523  1.8777
   75SLPC   H3S 6699   1.408   6.360   6.633  0.7832 -1.3907 -0.9808
   75SLPC   C24 6700   1.464   6.425   6.830  0.9358  0.1650 -1.0677
   75SLPC   H4R 6701   1.422   6.527   6.821  0.5491  0.2905  1.3364
   75SLPC   H4S 6702   1.554   6.434   6.895 -0.3275 -2.4286  1.2640
   75SLPC   C25 6703   1.362   6.346   6.911  0.4035 -0.8605 -0.0874
   75SLPC   H5R 6704   1.384   6.237   6.906 -1.2550 -1.1845 -2.4969
   75SLPC   H5S 6705   1.269   6.354   6.850  0.6172  2.3132 -0.1826
   75SLPC   C26 6706   1.336   6.393   7.058  0.1114  0.4053 -0.0697
   75SLPC   H6R 6707   1.289   6.493   7.048 -0.6685 -0.1238 -2.3787
   75SLPC   H6S 6708   1.431   6.400   7.115  0.2289  1.8521 -0.4066
   75SLPC   C27 6709   1.227   6.306   7.121 -1.0727 -0.0412 -0.7564
   75SLPC   H7R 6710   1.260   6.201   7.111  0.2412  0.4614 -1.9894
   75SLPC   H7S 6711   1.132   6.307   7.062 -1.9056 -1.0909  0.5033
   75SLPC   C28 6712   1.187   6.352   7.262 -0.7281 -0.2724  0.1420
   75SLPC   H8R 6713   1.142   6.453   7.255  0.7182  0.4256  0.4464
   75SLPC   H8S 6714   1.284   6.376   7.310 -1.8260  2.3525  1.2611
   75SLPC   C29 6715   1.098   6.255   7.326 -0.2093 -0.3749  0.6221
   75SLPC   H9R 6716   0.992   6.257   7.297 -0.2134 -0.2044  0.6494
   75SLPC  C210 6717   1.128   6.190   7.440 -0.4382 -0.3594  0.4945
   75SLPC  H10R 6718   1.052   6.129   7.491 -1.1582  1.0681  1.1889
   75SLPC  C211 6719   1.265   6.194   7.503  0.3175  0.1601  0.5756
   75SLPC  H11R 6720   1.291   6.299   7.528 -0.7607  0.5690  0.0247
   75SLPC  H11S 6721   1.337   6.164   7.424 -2.2617 -1.3773 -1.3244
   75SLPC  C212 6722   1.274   6.104   7.623  0.2163 -0.4307  0.3029
   75SLPC  H12R 6723   1.313   6.003   7.605 -0.1149 -0.4045 -0.5908
   75SLPC  C213 6724   1.237   6.125   7.751 -0.4413 -0.3036 -0.0852
   75SLPC  H13R 6725   1.252   6.044   7.825  1.6710 -1.3457 -1.5302
   75SLPC  C214 6726   1.168   6.248   7.817  0.0182  0.1454  0.3482
   75SLPC  H14R 6727   1.164   6.335   7.748 -1.9077 -0.0466  0.1505
   75SLPC  H14S 6728   1.231   6.270   7.905 -0.6772  0.5128  0.7635
   75SLPC  C215 6729   1.022   6.212   7.862  0.1282  0.0922 -0.6085
   75SLPC  H15R 6730   0.991   6.118   7.812  0.4743 -0.5994  0.4630
   75SLPC  H15S 6731   0.942   6.286   7.839  1.8058  1.5771 -2.0512
   75SLPC  C216 6732   1.010   6.203   8.022  0.8272 -0.2865  0.5654
   75SLPC  H16R 6733   1.046   6.300   8.062  0.0927 -1.0083  3.1871
   75SLPC  H16S 6734   1.096   6.136   8.042  1.7138  1.0955  1.5487
   75SLPC  C217 6735   0.882   6.148   8.077 -0.2997  0.0705  0.2305
   75SLPC  H17R 6736   0.891   6.038   8.067  0.1109 -0.0050  1.3716
   75SLPC  H17S 6737   0.799   6.186   8.012 -1.4463 -1.9344  0.4638
   75SLPC  C218 6738   0.868   6.183   8.220  1.1923  0.4824  0.5503
   75SLPC  H18R 6739   0.961   6.143   8.267  0.7482 -2.2395 -0.6647
   75SLPC  H18S 6740   0.782   6.131   8.266 -1.0530  2.3776 -1.2395
   75SLPC  H18T 6741   0.851   6.287   8.254  0.2631  0.6579 -0.3968
   75SLPC   C33 6742   1.872   6.216   7.037  1.7835 -0.7921  0.0427
   75SLPC   H3X 6743   1.964   6.164   7.071 -0.0561 -4.0482  0.4518
   75SLPC   H3Y 6744   1.883   6.327   7.035  2.6409 -0.8726 -0.0524
   75SLPC   C34 6745   1.760   6.176   7.138 -0.0457 -0.8749  0.2770
   75SLPC   H4X 6746   1.733   6.069   7.128  1.2815 -1.3254  1.2936
   75SLPC   H4Y 6747   1.670   6.234   7.106  0.4524 -1.3792 -2.2385
   75SLPC   C35 6748   1.803   6.195   7.283  0.1538 -0.8410  0.3071
   75SLPC   H5X 6749   1.833   6.300   7.303 -0.0451 -0.5065 -1.0779
   75SLPC   H5Y 6750   1.896   6.140   7.310  0.3966 -0.7514 -0.3329
   75SLPC   C36 6751   1.692   6.164   7.384 -0.3922  0.4245 -0.5113
   75SLPC   H6X 6752   1.657   6.060   7.368  0.1497  0.3064 -0.9332
   75SLPC   H6Y 6753   1.599   6.225   7.390 -0.8338 -0.2674 -0.2451
   75SLPC   C37 6754   1.745   6.171   7.533  0.2494 -0.0714 -0.1193
   75SLPC   H7X 6755   1.781   6.270   7.569  1.5765 -0.7965  0.6456
   75SLPC   H7Y 6756   1.831   6.100   7.542  0.3140 -0.0384 -0.4701
   75SLPC   C38 6757   1.642   6.113   7.632  0.1528 -1.1579 -0.1336
   75SLPC   H8X 6758   1.604   6.010   7.612 -2.0506 -0.9388  2.3994
   75SLPC   H8Y 6759   1.560   6.184   7.655  2.8084  1.8816  0.5674
   75SLPC   C39 6760   1.703   6.099   7.771  0.1319  0.7238 -0.3585
   75SLPC   H9X 6761   1.764   6.183   7.811 -0.2764  1.2143 -0.7571
   75SLPC   H9Y 6762   1.771   6.011   7.767 -0.1928  0.4357  0.2385
   75SLPC  C310 6763   1.589   6.063   7.858 -0.2520 -0.4135 -0.4751
   75SLPC  H10X 6764   1.547   5.966   7.824  0.1152  0.1681 -2.7724
   75SLPC  H10Y 6765   1.510   6.141   7.853  0.0216 -0.1869 -1.7521
   75SLPC  C311 6766   1.635   6.037   8.001 -0.3306 -0.9630  0.1497
   75SLPC  H11X 6767   1.698   6.121   8.037  1.0697 -1.9490  0.0797
   75SLPC  H11Y 6768   1.702   5.949   7.994  0.3525 -0.5275  0.9577
   75SLPC  C312 6769   1.517   6.019   8.104 -0.0538  0.4146 -0.3515
   75SLPC  H12X 6770   1.439   5.958   8.056 -4.0828  3.5330  1.5949
   75SLPC  H12Y 6771   1.482   6.123   8.124 -0.8180  0.1680 -0.3897
   75SLPC  C313 6772   1.559   5.956   8.242  0.3570 -0.0382  0.1205
   75SLPC  H13X 6773   1.660   5.992   8.271  0.9769  0.4125 -2.3919
   75SLPC  H13Y 6774   1.567   5.845   8.243  0.6275 -0.0734 -2.1798
   75SLPC  C314 6775   1.463   5.997   8.349 -0.0026  0.2659  0.0361
   75SLPC  H14X 6776   1.449   6.107   8.350 -0.4619  0.2542 -1.6454
   75SLPC  H14Y 6777   1.503   5.951   8.442 -0.6917 -1.3102 -0.4223
   75SLPC  C315 6778   1.321   5.932   8.339  0.7174 -0.4078  0.2684
   75SLPC  H15X 6779   1.344   5.825   8.322  0.0808 -0.4617 -0.2777
   75SLPC  H15Y 6780   1.275   5.963   8.243  0.2581 -2.7948 -0.3569
   75SLPC  C316 6781   1.236   5.965   8.452  0.2879 -0.0084  0.3628
   75SLPC  H16X 6782   1.136   5.924   8.426  0.3577 -1.2733  1.9121
   75SLPC  H16Y 6783   1.223   6.075   8.453 -0.0851 -0.0283 -0.8338
   75SLPC  C317 6784   1.274   5.907   8.593 -0.2196  0.1617 -0.1207
   75SLPC  H17X 6785   1.371   5.947   8.630 -0.4588  1.9859 -1.3321
   75SLPC  H17Y 6786   1.286   5.798   8.572 -0.4463  0.5424 -2.5565
   75SLPC  C318 6787   1.164   5.927   8.701 -0.7094  0.3015 -0.3752
   75SLPC  H18X 6788   1.156   5.858   8.787 -1.8637  2.0297  0.9862
   75SLPC  H18Y 6789   1.063   5.937   8.655 -1.9129 -0.5146  1.9607
   75SLPC  H18Z 6790   1.183   6.027   8.745 -0.5615 -0.6725  1.9291
   76SLPC     N 6791   4.661   0.084   5.483  0.3148 -0.2394  0.1018
   76SLPC   C13 6792   4.656   0.216   5.553  0.6143  0.3874  0.6391
   76SLPC  H13A 6793   4.679   0.209   5.659 -1.9761 -0.5400  1.2075
   76SLPC  H13B 6794   4.719   0.293   5.510  1.4877 -0.8865 -0.4359
   76SLPC  H13C 6795   4.551   0.240   5.548  0.0549 -2.0518 -0.9666
   76SLPC   C14 6796   4.791   0.025   5.517  0.3732 -0.3676 -0.2312
   76SLPC  H14A 6797   4.805  -0.076   5.481  1.0949  0.1557 -1.5010
   76SLPC  H14B 6798   4.874   0.090   5.491 -0.4542 -0.2443 -2.8334
   76SLPC  H14C 6799   4.802   0.014   5.624  0.5895 -0.6461 -0.2789
   76SLPC   C15 6800   4.648   0.103   5.330 -1.2993 -0.0667  0.0760
   76SLPC  H15A 6801   4.560   0.161   5.311 -1.9143 -0.3793  1.8344
   76SLPC  H15B 6802   4.730   0.163   5.293 -0.4789 -0.4678  1.1859
   76SLPC  H15C 6803   4.662   0.008   5.279  0.9271 -0.5984  1.5125
   76SLPC   C12 6804   4.538  -0.002   5.522 -0.0509  0.0027 -0.1186
   76SLPC  H12A 6805   4.562  -0.103   5.489  0.9229 -0.3975  1.6652
   76SLPC  H12B 6806   4.454   0.030   5.463  1.2628  0.3260 -1.9236
   76SLPC   C11 6807   4.501  -0.013   5.675 -0.7797 -0.3624 -0.8417
   76SLPC  H11A 6808   4.405  -0.069   5.685 -1.8698  1.6049  0.5587
   76SLPC  H11B 6809   4.482   0.080   5.733 -0.7359 -1.5120  1.1039
   76SLPC     P 6810   4.624  -0.235   5.746  0.4515  0.3871  0.1168
   76SLPC   O13 6811   4.557  -0.289   5.629  0.2448  0.6055 -0.0899
   76SLPC   O14 6812   4.765  -0.276   5.759 -0.3889  0.0793  0.1026
   76SLPC   O12 6813   4.605  -0.078   5.750  0.3479 -0.3755  0.1165
   76SLPC   O11 6814   4.549  -0.273   5.881 -0.1681  0.1246 -0.3975
   76SLPC    C1 6815   4.526  -0.176   5.984  0.4882  0.6037 -0.2762
   76SLPC    HA 6816   4.619  -0.118   5.995  2.4270 -2.1729 -0.9268
   76SLPC    HB 6817   4.443  -0.106   5.959  0.2219  1.1208  1.8252
   76SLPC    C2 6818   4.509  -0.235   6.132  0.0411  0.2155  0.0554
   76SLPC    HS 6819   4.517  -0.149   6.202  0.6824  0.4779 -0.3385
   76SLPC   O21 6820   4.611  -0.326   6.157 -0.2407 -0.2142  0.4900
   76SLPC   C21 6821   4.729  -0.293   6.185  0.6495  0.2650 -0.5176
   76SLPC   O22 6822   4.777  -0.187   6.195 -0.3097 -0.6223 -0.4165
   76SLPC   C22 6823   4.817  -0.418   6.220  0.3275  0.1395  0.6143
   76SLPC   H2R 6824   4.834  -0.466   6.122 -1.4006  1.7347 -0.5471
   76SLPC   H2S 6825   4.907  -0.375   6.268  0.9809 -3.7486  3.3281
   76SLPC    C3 6826   4.370  -0.305   6.135  0.2594 -0.2660 -0.1194
   76SLPC    HX 6827   4.354  -0.361   6.040  0.7645 -0.0512 -0.3332
   76SLPC    HY 6828   4.293  -0.225   6.129 -0.2882 -0.8755 -2.0388
   76SLPC   O31 6829   4.354  -0.387   6.251  0.1925  0.5259 -0.2972
   76SLPC   C31 6830   4.293  -0.329   6.353  0.1596  0.6482  0.0037
   76SLPC   O32 6831   4.264  -0.214   6.368  0.3211  0.5984 -0.0549
   76SLPC   C32 6832   4.279  -0.431   6.467  0.3445  0.0625  0.8939
   76SLPC   H2X 6833   4.369  -0.496   6.472  1.2258  0.3833 -4.3446
   76SLPC   H2Y 6834   4.201  -0.505   6.438 -0.3483  1.2593 -0.4590
   76SLPC   C23 6835   4.750  -0.517   6.322 -0.4929 -0.1034 -0.6535
   76SLPC   H3R 6836   4.817  -0.605   6.327  0.4782  0.4791 -2.3423
   76SLPC   H3S 6837   4.651  -0.556   6.289  0.0241 -2.3826  0.3151
   76SLPC   C24 6838   4.739  -0.453   6.459 -0.3143 -0.3355  0.4396
   76SLPC   H4R 6839   4.664  -0.370   6.456 -0.4051 -0.4114  0.5904
   76SLPC   H4S 6840   4.837  -0.407   6.483  0.9470 -1.5458 -2.0101
   76SLPC   C25 6841   4.692  -0.538   6.578 -0.9076 -0.6955  0.6039
   76SLPC   H5R 6842   4.767  -0.618   6.595  1.8366  1.6793  0.4562
   76SLPC   H5S 6843   4.607  -0.604   6.549 -3.4927  2.6120  0.0991
   76SLPC   C26 6844   4.666  -0.464   6.715 -0.5572  0.0539  0.2601
   76SLPC   H6R 6845   4.578  -0.397   6.700 -0.0137  0.3324 -1.9944
   76SLPC   H6S 6846   4.756  -0.404   6.739  2.3992 -2.5099 -3.2591
   76SLPC   C27 6847   4.643  -0.560   6.835  0.5164 -0.1097  0.5249
   76SLPC   H7R 6848   4.723  -0.633   6.812  1.2083  0.3478  1.4235
   76SLPC   H7S 6849   4.542  -0.602   6.815  0.5990  0.8993 -2.6604
   76SLPC   C28 6850   4.671  -0.488   6.969 -0.3091  0.1657 -0.8838
   76SLPC   H8R 6851   4.749  -0.409   6.970 -0.4953  0.4270  2.4916
   76SLPC   H8S 6852   4.585  -0.426   7.002  0.3029  1.6522 -1.9564
   76SLPC   C29 6853   4.698  -0.591   7.079  0.6662  0.3747  0.0379
   76SLPC   H9R 6854   4.625  -0.673   7.082 -1.3984  2.1054 -0.5987
   76SLPC  C210 6855   4.794  -0.589   7.173 -0.2161 -0.4081  0.5694
   76SLPC  H10R 6856   4.802  -0.681   7.234 -0.4180 -0.6465  0.2397
   76SLPC  C211 6857   4.899  -0.479   7.183 -0.8094  0.5601 -0.3615
   76SLPC  H11R 6858   4.873  -0.405   7.261 -1.1935  0.2316 -0.1720
   76SLPC  H11S 6859   4.914  -0.416   7.093 -3.4976  0.4974 -0.9483
   76SLPC  C212 6860   5.037  -0.539   7.210  0.0533  0.4934 -0.7219
   76SLPC  H12R 6861   5.099  -0.566   7.123  1.7979 -0.1516  0.6555
   76SLPC  C213 6862   5.089  -0.569   7.331  0.1527 -0.1710  1.1043
   76SLPC  H13R 6863   5.178  -0.634   7.331  0.5876  0.4043  1.7219
   76SLPC  C214 6864   5.024  -0.542   7.461 -0.5319  0.1443  0.0086
   76SLPC  H14R 6865   4.940  -0.469   7.457  0.2592  1.1667  1.3675
   76SLPC  H14S 6866   5.098  -0.481   7.516 -0.3270 -0.9252  0.9550
   76SLPC  C215 6867   5.012  -0.672   7.543 -0.2717  0.1470  0.2158
   76SLPC  H15R 6868   4.946  -0.736   7.480  0.7474  0.2350 -0.9765
   76SLPC  H15S 6869   4.956  -0.651   7.636  2.1135  0.9690  1.5608
   76SLPC  C216 6870   5.147  -0.739   7.585 -0.4646 -0.1668  0.2896
   76SLPC  H16R 6871   5.212  -0.671   7.645  0.1979  1.4085 -2.0763
   76SLPC  H16S 6872   5.197  -0.778   7.494 -1.2625  0.5623 -0.4840
   76SLPC  C217 6873   5.114  -0.871   7.655  0.1437  0.7595 -0.7388
   76SLPC  H17R 6874   5.211  -0.915   7.685  0.1617 -0.2736 -2.1997
   76SLPC  H17S 6875   5.068  -0.921   7.567 -0.0266  1.3201 -0.9762
   76SLPC  C218 6876   5.020  -0.869   7.776  0.3405 -0.2524  0.4576
   76SLPC  H18R 6877   4.923  -0.824   7.745  0.1955 -0.6176  0.3829
   76SLPC  H18S 6878   5.067  -0.820   7.864  1.9777 -1.1659  0.1410
   76SLPC  H18T 6879   5.000  -0.975   7.800  2.5918 -0.4160  1.9476
   76SLPC   C33 6880   4.241  -0.369   6.598  0.0541  0.6711 -0.1562
   76SLPC   H3X 6881   4.135  -0.336   6.600 -0.3860 -0.6977  1.2689
   76SLPC   H3Y 6882   4.298  -0.275   6.613  0.0672  0.8419 -1.2183
   76SLPC   C34 6883   4.263  -0.464   6.712 -0.2677 -0.3614 -0.0532
   76SLPC   H4X 6884   4.369  -0.495   6.717  0.5770  2.4985  2.3415
   76SLPC   H4Y 6885   4.206  -0.557   6.694 -1.0935  0.2797 -0.8742
   76SLPC   C35 6886   4.218  -0.409   6.851  0.2018  0.2587  0.3606
   76SLPC   H5X 6887   4.110  -0.382   6.847  0.0348 -0.5325 -1.1041
   76SLPC   H5Y 6888   4.267  -0.312   6.876 -0.8725  0.7492  0.6093
   76SLPC   C36 6889   4.246  -0.510   6.962 -0.1802  0.0111 -0.0050
   76SLPC   H6X 6890   4.356  -0.521   6.973  0.1713  3.1185  0.3922
   76SLPC   H6Y 6891   4.204  -0.608   6.928  0.3444 -0.7725  1.5110
   76SLPC   C37 6892   4.161  -0.479   7.083  0.3226 -0.3614  0.1048
   76SLPC   H7X 6893   4.056  -0.504   7.058  0.0917  0.8026 -0.1301
   76SLPC   H7Y 6894   4.152  -0.373   7.112  0.1805  0.2765 -2.0863
   76SLPC   C38 6895   4.187  -0.572   7.197 -0.1895 -0.1866  0.0053
   76SLPC   H8X 6896   4.156  -0.677   7.184  0.1525 -0.0918 -1.6991
   76SLPC   H8Y 6897   4.126  -0.526   7.278  0.6508  0.1094  0.4924
   76SLPC   C39 6898   4.332  -0.562   7.249 -0.0905 -0.1420 -0.4313
   76SLPC   H9X 6899   4.374  -0.460   7.239  0.1932 -0.3019 -0.9026
   76SLPC   H9Y 6900   4.392  -0.623   7.177  0.2752 -1.0428  0.6001
   76SLPC  C310 6901   4.350  -0.622   7.389 -0.1844  0.1456  0.3727
   76SLPC  H10X 6902   4.291  -0.715   7.396 -1.5556  1.0751  1.8610
   76SLPC  H10Y 6903   4.309  -0.562   7.474  0.5304  0.8165  0.2550
   76SLPC  C311 6904   4.495  -0.649   7.412 -0.4426  0.1483  0.0679
   76SLPC  H11X 6905   4.531  -0.630   7.515  0.0545 -0.8285  0.0875
   76SLPC  H11Y 6906   4.544  -0.569   7.352  1.0083 -0.1384  0.8156
   76SLPC  C312 6907   4.549  -0.790   7.367  0.0839 -0.1443  0.0202
   76SLPC  H12X 6908   4.660  -0.796   7.366  0.0473 -1.0727 -0.6190
   76SLPC  H12Y 6909   4.534  -0.808   7.258  1.4089  0.7500 -0.3287
   76SLPC  C313 6910   4.500  -0.913   7.442  0.3236 -0.8799 -0.3651
   76SLPC  H13X 6911   4.396  -0.900   7.481  0.5021  1.1967 -0.4398
   76SLPC  H13Y 6912   4.562  -0.917   7.534  0.9023  1.6739 -0.5735
   76SLPC  C314 6913   4.525  -1.043   7.364  0.5416  0.1045 -0.2480
   76SLPC  H14X 6914   4.463  -1.045   7.271 -2.0667 -1.3024  1.4042
   76SLPC  H14Y 6915   4.486  -1.140   7.402 -0.8882 -0.2429 -2.3997
   76SLPC  C315 6916   4.669  -1.070   7.329  0.3210  0.1664 -0.0200
   76SLPC  H15X 6917   4.730  -1.042   7.418  0.5654 -1.6457  0.4077
   76SLPC  H15Y 6918   4.716  -1.006   7.251 -0.4646  0.9594  0.1315
   76SLPC  C316 6919   4.697  -1.221   7.295  0.3320 -0.3403 -0.4733
   76SLPC  H16X 6920   4.658  -1.277   7.383  0.0106 -1.5277 -1.3389
   76SLPC  H16Y 6921   4.806  -1.240   7.280  0.5222 -1.4722  1.8864
   76SLPC  C317 6922   4.615  -1.264   7.177 -0.2380 -0.7662 -0.3984
   76SLPC  H17X 6923   4.622  -1.199   7.087 -0.0470 -1.2657 -0.7539
   76SLPC  H17Y 6924   4.509  -1.246   7.204 -0.2165 -2.6564  1.2213
   76SLPC  C318 6925   4.614  -1.408   7.138 -0.0779  0.1978  0.3330
   76SLPC  H18X 6926   4.588  -1.474   7.224  0.0068 -0.9835 -0.5312
   76SLPC  H18Y 6927   4.709  -1.449   7.098  0.0848  2.5595 -1.9519
   76SLPC  H18Z 6928   4.537  -1.411   7.059 -2.7017  2.2012  2.5950
   77SLPC     N 6929   1.302   4.279   5.636  0.3966  0.2026 -0.1150
   77SLPC   C13 6930   1.388   4.384   5.694 -0.6486 -0.6902  0.0372
   77SLPC  H13A 6931   1.455   4.437   5.627  1.0655 -0.9235  1.4923
   77SLPC  H13B 6932   1.332   4.460   5.746  0.1501  0.0798 -0.1982
   77SLPC  H13C 6933   1.455   4.341   5.767  0.6318  0.8828 -0.1561
   77SLPC   C14 6934   1.370   4.154   5.592  0.1686 -0.2625 -0.2835
   77SLPC  H14A 6935   1.316   4.075   5.541  0.9026 -0.4323 -0.8165
   77SLPC  H14B 6936   1.444   4.180   5.517  0.2908 -0.5763 -0.2747
   77SLPC  H14C 6937   1.424   4.116   5.677 -0.4368  2.1189  1.2553
   77SLPC   C15 6938   1.226   4.340   5.518 -0.0553  0.6797 -0.1752
   77SLPC  H15A 6939   1.183   4.437   5.531 -0.6067  0.2591  1.2986
   77SLPC  H15B 6940   1.301   4.344   5.439  0.4812  2.5764  0.3928
   77SLPC  H15C 6941   1.147   4.281   5.473 -1.5599 -0.0564  3.1539
   77SLPC   C12 6942   1.199   4.224   5.730  0.0323 -0.0290 -0.3372
   77SLPC  H12A 6943   1.138   4.157   5.672  1.6638 -2.3904  0.5358
   77SLPC  H12B 6944   1.140   4.308   5.765  0.4749 -0.0733  0.5405
   77SLPC   C11 6945   1.250   4.151   5.853  0.0397  0.0973  0.6104
   77SLPC  H11A 6946   1.322   4.071   5.825  0.8943  1.2442 -0.6448
   77SLPC  H11B 6947   1.156   4.101   5.883 -0.2177 -0.9597 -1.7429
   77SLPC     P 6948   1.236   4.319   6.052  0.4842 -0.2359 -0.5644
   77SLPC   O13 6949   1.310   4.445   6.081  0.0427 -0.1280  0.3278
   77SLPC   O14 6950   1.091   4.325   6.011  0.0894 -0.2747  0.1591
   77SLPC   O12 6951   1.314   4.241   5.944  0.6213 -0.4457  0.6494
   77SLPC   O11 6952   1.253   4.227   6.183 -0.0527  0.0709  0.0527
   77SLPC    C1 6953   1.148   4.151   6.235  0.1632 -0.0067 -0.5919
   77SLPC    HA 6954   1.100   4.082   6.162  1.5765 -1.2930 -0.3616
   77SLPC    HB 6955   1.184   4.087   6.318  0.2485  1.1287  0.2709
   77SLPC    C2 6956   1.029   4.228   6.307 -0.2022  0.3724  0.5249
   77SLPC    HS 6957   0.980   4.286   6.226 -0.6279  0.0729  0.5651
   77SLPC   O21 6958   1.086   4.320   6.399 -0.0362 -0.0040  0.1227
   77SLPC   C21 6959   1.013   4.406   6.454  0.2724 -0.1794 -0.3362
   77SLPC   O22 6960   0.892   4.408   6.456  0.4340 -0.4468 -0.4290
   77SLPC   C22 6961   1.093   4.514   6.527 -0.2129 -0.4471  0.1187
   77SLPC   H2R 6962   1.145   4.581   6.455 -0.7821 -0.1085  0.0109
   77SLPC   H2S 6963   1.007   4.569   6.572  0.4128 -0.4467  1.3599
   77SLPC    C3 6964   0.925   4.135   6.380 -0.6383 -0.2601 -0.4041
   77SLPC    HX 6965   0.894   4.052   6.312 -2.0109  0.0964 -0.2430
   77SLPC    HY 6966   0.829   4.189   6.387 -0.2995  0.7107 -2.3513
   77SLPC   O31 6967   0.975   4.090   6.510  0.3219 -0.7495  0.1421
   77SLPC   C31 6968   0.886   4.004   6.574  0.2275 -0.2094 -0.4319
   77SLPC   O32 6969   0.785   3.956   6.535 -0.2545  0.7887 -0.0388
   77SLPC   C32 6970   0.944   3.980   6.716  1.1830  0.1006  0.4035
   77SLPC   H2X 6971   1.054   3.965   6.715  1.2146  0.2178  1.3896
   77SLPC   H2Y 6972   0.886   3.895   6.757 -0.4717  0.5836 -0.8197
   77SLPC   C23 6973   1.188   4.463   6.642  0.0347 -0.6683  0.5334
   77SLPC   H3R 6974   1.275   4.416   6.590  0.4557 -0.2029  0.8087
   77SLPC   H3S 6975   1.137   4.387   6.705 -2.4929  0.6223  0.1769
   77SLPC   C24 6976   1.240   4.574   6.730 -0.1363 -0.3445 -0.1260
   77SLPC   H4R 6977   1.295   4.646   6.665  1.5631 -0.3126  1.2688
   77SLPC   H4S 6978   1.324   4.524   6.783  1.5444 -1.4164 -3.5499
   77SLPC   C25 6979   1.136   4.645   6.819 -0.4681 -0.4670 -0.1726
   77SLPC   H5R 6980   1.089   4.572   6.888 -1.2664 -0.2668 -0.4952
   77SLPC   H5S 6981   1.052   4.669   6.750 -1.9218 -1.7251  1.0678
   77SLPC   C26 6982   1.190   4.758   6.910 -0.0075  0.0649 -0.3046
   77SLPC   H6R 6983   1.216   4.850   6.854  0.8577 -1.2727 -2.1897
   77SLPC   H6S 6984   1.286   4.724   6.954  1.3255  2.1428 -1.4557
   77SLPC   C27 6985   1.094   4.788   7.029 -0.1574  0.0688 -0.2985
   77SLPC   H7R 6986   1.086   4.687   7.076  1.2715 -1.1002 -2.3835
   77SLPC   H7S 6987   0.990   4.820   7.009 -0.1231  1.3390  1.3323
   77SLPC   C28 6988   1.168   4.889   7.121  0.8158 -0.0154 -0.3012
   77SLPC   H8R 6989   1.208   4.976   7.065  0.5545 -0.4760 -1.2182
   77SLPC   H8S 6990   1.254   4.843   7.175  0.5934  0.2476  0.2842
   77SLPC   C29 6991   1.072   4.947   7.218  0.7187  0.1316 -0.0474
   77SLPC   H9R 6992   0.972   4.973   7.180  0.9301  1.2721  0.1122
   77SLPC  C210 6993   1.095   4.972   7.345 -0.4283  0.1154  0.2685
   77SLPC  H10R 6994   1.017   5.020   7.406  1.1892  0.6153  2.0585
   77SLPC  C211 6995   1.227   4.965   7.416 -0.6907  0.1550 -0.2810
   77SLPC  H11R 6996   1.241   5.068   7.455 -1.2162 -0.2485  1.0278
   77SLPC  H11S 6997   1.310   4.954   7.343 -0.3008  1.8108 -0.1470
   77SLPC  C212 6998   1.242   4.868   7.535 -0.2264  0.9198  0.0321
   77SLPC  H12R 6999   1.347   4.842   7.552 -0.5978  0.1180  1.1911
   77SLPC  C213 7000   1.150   4.813   7.614 -0.0940  0.0757 -0.5454
   77SLPC  H13R 7001   1.191   4.749   7.694 -1.2376 -0.0404 -0.0279
   77SLPC  C214 7002   1.001   4.811   7.621 -0.5377  0.4185 -0.2577
   77SLPC  H14R 7003   0.967   4.826   7.516 -0.8718  0.5561 -0.1278
   77SLPC  H14S 7004   0.967   4.896   7.683 -1.0455 -1.3050  1.9361
   77SLPC  C215 7005   0.951   4.673   7.668  0.1538  0.6381  0.5609
   77SLPC  H15R 7006   1.007   4.581   7.640  0.5514  1.1552 -0.3843
   77SLPC  H15S 7007   0.850   4.656   7.626 -0.6985  0.7274  2.4500
   77SLPC  C216 7008   0.932   4.671   7.824 -0.0436  0.2374  0.2412
   77SLPC  H16R 7009   0.842   4.734   7.840 -1.2559 -0.7807 -2.0400
   77SLPC  H16S 7010   1.019   4.704   7.884  0.1510 -0.5930  0.4374
   77SLPC  C217 7011   0.885   4.528   7.875 -0.5251  0.5484  0.2254
   77SLPC  H17R 7012   0.942   4.441   7.835  1.8740  1.1121  2.1750
   77SLPC  H17S 7013   0.780   4.512   7.842 -0.7013  0.5028  0.8092
   77SLPC  C218 7014   0.891   4.505   8.022 -0.4662 -0.1382 -0.4487
   77SLPC  H18R 7015   0.858   4.401   8.044  0.5569 -1.4980 -4.4822
   77SLPC  H18S 7016   0.825   4.578   8.074 -0.6804  1.0209 -2.2624
   77SLPC  H18T 7017   0.991   4.524   8.065 -0.4261 -0.9535 -0.1587
   77SLPC   C33 7018   0.924   4.104   6.806  0.4109  0.3833 -0.1472
   77SLPC   H3X 7019   0.824   4.141   6.775  0.3361  0.5391  0.2717
   77SLPC   H3Y 7020   1.002   4.182   6.795  0.2095  0.5857 -0.1246
   77SLPC   C34 7021   0.909   4.078   6.953  0.6847 -0.1746 -0.3571
   77SLPC   H4X 7022   1.003   4.044   7.003  0.7118  0.3922 -0.0216
   77SLPC   H4Y 7023   0.833   3.998   6.971 -0.8227  1.6655  2.0233
   77SLPC   C35 7024   0.855   4.198   7.034  0.0600 -0.7196  0.2527
   77SLPC   H5X 7025   0.753   4.217   6.993  1.4987  0.0958 -3.2582
   77SLPC   H5Y 7026   0.927   4.281   7.032  0.5900 -1.1865 -1.0106
   77SLPC   C36 7027   0.843   4.175   7.191 -0.1381  0.8690  0.4997
   77SLPC   H6X 7028   0.944   4.136   7.218 -0.3079 -1.1624 -1.5124
   77SLPC   H6Y 7029   0.770   4.093   7.203 -2.0708  2.5620  0.9596
   77SLPC   C37 7030   0.797   4.284   7.278 -0.7242  0.3293  0.1583
   77SLPC   H7X 7031   0.690   4.307   7.260 -0.8729 -0.1315  0.4383
   77SLPC   H7Y 7032   0.853   4.371   7.236 -2.0957 -0.1236 -2.8497
   77SLPC   C38 7033   0.802   4.281   7.432  0.5143  0.0964 -0.8183
   77SLPC   H8X 7034   0.754   4.374   7.472 -0.2152 -0.1721 -1.0553
   77SLPC   H8Y 7035   0.907   4.277   7.468 -0.2007  2.4947  1.9134
   77SLPC   C39 7036   0.729   4.166   7.504  0.6140 -0.3470 -0.3965
   77SLPC   H9X 7037   0.757   4.063   7.476 -1.4745 -1.7731  2.2309
   77SLPC   H9Y 7038   0.619   4.169   7.485  0.5807  0.1419 -0.1582
   77SLPC  C310 7039   0.750   4.184   7.655 -0.2859  0.4653 -0.4095
   77SLPC  H10X 7040   0.685   4.265   7.694 -1.8496 -0.6715 -0.5463
   77SLPC  H10Y 7041   0.858   4.203   7.672 -0.1723 -0.1530 -0.3989
   77SLPC  C311 7042   0.736   4.046   7.741  0.3076 -0.8024 -0.8008
   77SLPC  H11X 7043   0.824   3.978   7.732  1.4677  0.3733  0.8870
   77SLPC  H11Y 7044   0.641   3.992   7.728 -1.6462  2.2013 -0.0813
   77SLPC  C312 7045   0.747   4.084   7.890 -0.3481 -0.3926  0.8422
   77SLPC  H12X 7046   0.656   4.142   7.916 -1.6346 -2.4903  1.2960
   77SLPC  H12Y 7047   0.837   4.148   7.901 -1.7094  1.9444 -0.6608
   77SLPC  C313 7048   0.749   3.960   7.979  0.0362 -0.7684 -0.4683
   77SLPC  H13X 7049   0.848   3.913   7.961 -1.1180 -4.0383  0.8193
   77SLPC  H13Y 7050   0.670   3.883   7.963 -0.0650 -0.7725  0.0394
   77SLPC  C314 7051   0.751   4.008   8.128  0.4282  0.2787  0.3721
   77SLPC  H14X 7052   0.656   4.055   8.161 -0.5626  0.7234 -2.7667
   77SLPC  H14Y 7053   0.821   4.095   8.126 -1.3464  1.7708  0.3024
   77SLPC  C315 7054   0.783   3.891   8.222 -0.7214 -0.7391 -0.1330
   77SLPC  H15X 7055   0.882   3.847   8.193  1.3540  2.6327  1.2817
   77SLPC  H15Y 7056   0.704   3.816   8.199 -1.5268  0.0456  0.0755
   77SLPC  C316 7057   0.774   3.906   8.376 -0.0104 -0.0954 -0.4495
   77SLPC  H16X 7058   0.679   3.958   8.400 -0.6395 -1.1737 -0.5378
   77SLPC  H16Y 7059   0.862   3.962   8.415  1.1860 -1.7373 -0.6980
   77SLPC  C317 7060   0.779   3.775   8.459  0.1992 -0.0443 -0.0917
   77SLPC  H17X 7061   0.680   3.727   8.446 -2.6535  4.5630  1.8484
   77SLPC  H17Y 7062   0.776   3.814   8.563  0.6060  2.5344 -0.9655
   77SLPC  C318 7063   0.897   3.686   8.429  0.0437  0.2362 -0.4823
   77SLPC  H18X 7064   0.924   3.630   8.521 -3.0253 -0.6256  0.0103
   77SLPC  H18Y 7065   0.977   3.749   8.387 -0.7360  0.5749 -1.4922
   77SLPC  H18Z 7066   0.860   3.610   8.356 -2.9038 -0.8412  1.8984
   78SLPC     N 7067   3.211   6.321   5.563  0.5888  0.4735  0.1684
   78SLPC   C13 7068   3.237   6.249   5.434 -0.5657 -0.1159  0.0907
   78SLPC  H13A 7069   3.171   6.281   5.354 -0.1967 -2.0635 -1.0648
   78SLPC  H13B 7070   3.337   6.267   5.398 -0.3255  0.2372  0.9129
   78SLPC  H13C 7071   3.229   6.143   5.454  1.3640 -0.0153  1.6677
   78SLPC   C14 7072   3.063   6.334   5.586  0.1242  0.4526  0.2100
   78SLPC  H14A 7073   3.001   6.357   5.501 -0.7414 -2.0129  0.0955
   78SLPC  H14B 7074   3.026   6.245   5.633  2.9625 -0.8969  0.1178
   78SLPC  H14C 7075   3.039   6.412   5.657 -0.6289  2.8127 -2.4429
   78SLPC   C15 7076   3.264   6.458   5.544 -0.1818 -0.1106  0.1075
   78SLPC  H15A 7077   3.371   6.445   5.535 -0.3203 -0.5704 -1.0290
   78SLPC  H15B 7078   3.226   6.506   5.455  1.1809 -1.1277 -1.0702
   78SLPC  H15C 7079   3.249   6.521   5.631 -0.6566 -1.9347  1.4007
   78SLPC   C12 7080   3.280   6.258   5.680 -0.1584 -0.5947 -0.3639
   78SLPC  H12A 7081   3.244   6.319   5.761 -1.4063  0.1246 -1.4294
   78SLPC  H12B 7082   3.386   6.280   5.680 -0.5431  1.4536  0.3469
   78SLPC   C11 7083   3.259   6.119   5.745  0.1637  0.1568  0.4659
   78SLPC  H11A 7084   3.313   6.123   5.842 -1.0710  0.9189  1.1368
   78SLPC  H11B 7085   3.305   6.040   5.682 -3.5782 -1.6482 -0.2830
   78SLPC     P 7086   3.050   6.107   5.907  0.3130  0.9384  0.1185
   78SLPC   O13 7087   3.037   6.249   5.937 -0.0927 -0.2129  0.6783
   78SLPC   O14 7088   2.922   6.036   5.909 -0.0490  0.0143 -0.2026
   78SLPC   O12 7089   3.132   6.071   5.769  0.1599  0.0612 -0.1543
   78SLPC   O11 7090   3.149   6.047   6.014 -0.3402  0.1893  0.3691
   78SLPC    C1 7091   3.138   5.907   6.062 -0.3002 -0.7957 -0.0779
   78SLPC    HA 7092   3.034   5.880   6.091 -0.4146 -0.6607 -0.3648
   78SLPC    HB 7093   3.173   5.844   5.977 -0.4443 -0.8105 -0.1267
   78SLPC    C2 7094   3.222   5.870   6.190 -0.4792  0.4534  0.3924
   78SLPC    HS 7095   3.212   5.759   6.195 -0.1220  0.3490 -0.9231
   78SLPC   O21 7096   3.186   5.945   6.313  0.1998  0.1051 -0.3791
   78SLPC   C21 7097   3.073   5.910   6.375  0.5883 -0.3084 -0.4054
   78SLPC   O22 7098   2.998   5.821   6.336  0.0794  0.3227  0.1420
   78SLPC   C22 7099   3.048   5.981   6.502  0.3175 -0.6082  0.5619
   78SLPC   H2R 7100   3.123   6.062   6.519  0.2409 -0.2887 -0.5546
   78SLPC   H2S 7101   2.950   6.028   6.482  0.7363  0.3390  0.6809
   78SLPC    C3 7102   3.377   5.886   6.157  0.3109 -0.1200 -0.2589
   78SLPC    HX 7103   3.398   5.994   6.150 -1.1705  0.2602  0.7528
   78SLPC    HY 7104   3.393   5.846   6.055 -0.8193 -1.1842 -0.0440
   78SLPC   O31 7105   3.458   5.803   6.247  0.1418 -0.6698  0.1062
   78SLPC   C31 7106   3.485   5.864   6.362  0.6365  0.4661  1.0396
   78SLPC   O32 7107   3.466   5.982   6.385  0.3034  0.7910  0.2234
   78SLPC   C32 7108   3.564   5.767   6.463 -0.1700 -0.5839 -0.2507
   78SLPC   H2X 7109   3.570   5.821   6.560 -1.9415  0.2313 -0.5627
   78SLPC   H2Y 7110   3.669   5.764   6.427  0.2762  0.2723  0.8834
   78SLPC   C23 7111   3.044   5.886   6.623  0.2263  0.1013 -0.3581
   78SLPC   H3R 7112   3.151   5.864   6.645  0.5001 -1.0672 -2.5435
   78SLPC   H3S 7113   2.983   5.802   6.583 -0.4939  2.2035 -4.1692
   78SLPC   C24 7114   2.985   5.946   6.744  0.7484  0.1893 -0.0098
   78SLPC   H4R 7115   2.886   5.987   6.713  0.2261  0.1038  1.4752
   78SLPC   H4S 7116   3.036   6.039   6.777  0.4762  1.0027 -1.7936
   78SLPC   C25 7117   2.973   5.848   6.863  0.0949  0.3940  0.7435
   78SLPC   H5R 7118   3.065   5.787   6.873  0.1003  0.1715 -0.5102
   78SLPC   H5S 7119   2.898   5.780   6.818 -0.2695  1.1100  0.2520
   78SLPC   C26 7120   2.931   5.902   6.994 -0.6960 -0.3224 -0.6606
   78SLPC   H6R 7121   2.837   5.961   6.993  0.9610  2.4712 -0.5832
   78SLPC   H6S 7122   2.999   5.981   7.031 -1.5696  0.1263  0.0263
   78SLPC   C27 7123   2.926   5.799   7.112 -0.3553 -0.4866  0.1244
   78SLPC   H7R 7124   3.031   5.767   7.130  0.0316 -0.1147 -1.3070
   78SLPC   H7S 7125   2.872   5.712   7.068  1.0214 -1.1613 -0.2888
   78SLPC   C28 7126   2.860   5.850   7.236  0.7311 -0.4577  0.6519
   78SLPC   H8R 7127   2.755   5.881   7.214  0.0130 -2.3772  1.1253
   78SLPC   H8S 7128   2.903   5.948   7.263 -0.0211  0.1617 -0.3285
   78SLPC   C29 7129   2.874   5.743   7.346  0.8002  0.2621 -0.1035
   78SLPC   H9R 7130   2.833   5.642   7.330  0.2446  0.6798 -1.4573
   78SLPC  C210 7131   2.977   5.751   7.435 -0.2284  0.4417  1.1259
   78SLPC  H10R 7132   2.990   5.663   7.500 -1.7713  0.5958  1.6718
   78SLPC  C211 7133   3.073   5.862   7.472  0.3953 -0.3117 -0.6224
   78SLPC  H11R 7134   3.043   5.925   7.558  1.7208 -0.5794  0.0624
   78SLPC  H11S 7135   3.098   5.926   7.385  2.4437  0.8669  0.7262
   78SLPC  C212 7136   3.205   5.792   7.512  0.2835  0.3125 -0.0135
   78SLPC  H12R 7137   3.212   5.743   7.610 -1.3525 -0.6652 -0.3430
   78SLPC  C213 7138   3.313   5.787   7.440  0.0663 -0.9802  0.2930
   78SLPC  H13R 7139   3.398   5.728   7.478 -0.1977 -0.7450  1.2777
   78SLPC  C214 7140   3.336   5.836   7.296  0.1228 -0.2429  0.3120
   78SLPC  H14R 7141   3.385   5.936   7.304  0.6797 -0.3192 -1.5960
   78SLPC  H14S 7142   3.242   5.855   7.239 -0.7266  1.6869  2.2202
   78SLPC  C215 7143   3.427   5.753   7.210 -0.4307  0.2917  0.3153
   78SLPC  H15R 7144   3.383   5.656   7.180 -0.4262  0.3200  0.2166
   78SLPC  H15S 7145   3.511   5.724   7.278 -0.9515  2.5005  1.9995
   78SLPC  C216 7146   3.481   5.835   7.086 -0.0312  0.6686 -0.0937
   78SLPC  H16R 7147   3.521   5.934   7.116  2.6575 -0.2711 -0.2872
   78SLPC  H16S 7148   3.394   5.864   7.023  1.0635  1.9276 -1.0923
   78SLPC  C217 7149   3.587   5.759   7.010  0.1954 -0.6425  0.3189
   78SLPC  H17R 7150   3.659   5.721   7.086  0.1773 -1.3305  0.0088
   78SLPC  H17S 7151   3.649   5.822   6.943 -0.1441  1.5441  1.9697
   78SLPC  C218 7152   3.528   5.649   6.921 -0.5260 -0.0201 -0.9655
   78SLPC  H18R 7153   3.483   5.569   6.984  0.9350 -0.5382 -0.5459
   78SLPC  H18S 7154   3.597   5.621   6.839 -0.1977 -0.7282 -0.4552
   78SLPC  H18T 7155   3.444   5.705   6.875 -1.6932 -0.3832  0.6170
   78SLPC   C33 7156   3.485   5.636   6.486 -0.8999 -1.0536  0.2477
   78SLPC   H3X 7157   3.550   5.581   6.556 -0.9441  0.4297  1.5065
   78SLPC   H3Y 7158   3.493   5.585   6.387 -0.0048 -1.6023  0.5955
   78SLPC   C34 7159   3.337   5.642   6.522 -0.1927 -0.2811 -0.0230
   78SLPC   H4X 7160   3.277   5.696   6.446 -1.5759 -0.4538  0.9113
   78SLPC   H4Y 7161   3.318   5.702   6.614  1.9404 -0.2247  0.4361
   78SLPC   C35 7162   3.290   5.499   6.556  0.4491 -0.1227 -0.7043
   78SLPC   H5X 7163   3.331   5.458   6.651 -1.8382 -0.3918  0.2559
   78SLPC   H5Y 7164   3.314   5.429   6.473 -0.1273 -1.9923  0.6073
   78SLPC   C36 7165   3.132   5.496   6.578 -0.0406  0.3432 -0.2336
   78SLPC   H6X 7166   3.089   5.394   6.570 -0.1698  0.1438  2.1784
   78SLPC   H6Y 7167   3.084   5.562   6.503  0.6846  2.1068  0.7706
   78SLPC   C37 7168   3.094   5.554   6.715  0.3293  0.0144  0.8919
   78SLPC   H7X 7169   2.986   5.583   6.716  0.8042  2.3663 -1.9834
   78SLPC   H7Y 7170   3.151   5.647   6.734 -0.0886  0.4645  0.0251
   78SLPC   C38 7171   3.133   5.460   6.837  0.3035  0.3834  0.0130
   78SLPC   H8X 7172   3.238   5.424   6.836 -0.4849 -2.1004 -0.4298
   78SLPC   H8Y 7173   3.078   5.364   6.823 -0.0415  0.6266 -0.2988
   78SLPC   C39 7174   3.091   5.519   6.967  0.2123 -0.4579 -0.0321
   78SLPC   H9X 7175   2.981   5.518   6.976  0.1782 -0.7336 -0.4562
   78SLPC   H9Y 7176   3.123   5.624   6.984 -0.2882 -0.6125  2.1463
   78SLPC  C310 7177   3.160   5.445   7.077  0.4624  0.3703  0.9028
   78SLPC  H10X 7178   3.269   5.442   7.057  0.0000  0.4342 -2.1328
   78SLPC  H10Y 7179   3.115   5.343   7.075  0.5882  0.3159 -1.0839
   78SLPC  C311 7180   3.129   5.492   7.214 -0.2135  0.3481  0.0513
   78SLPC  H11X 7181   3.021   5.489   7.236 -0.1954 -0.6378  0.0369
   78SLPC  H11Y 7182   3.167   5.597   7.214 -0.1761  0.4449 -2.9527
   78SLPC  C312 7183   3.194   5.397   7.313  0.1077 -0.4535 -0.1723
   78SLPC  H12X 7184   3.302   5.423   7.313 -0.2702  1.2649 -1.1908
   78SLPC  H12Y 7185   3.192   5.289   7.284 -1.3448 -0.6432  0.5661
   78SLPC  C313 7186   3.141   5.422   7.454  0.4826  0.9962 -0.2544
   78SLPC  H13X 7187   3.031   5.407   7.454  0.7664 -2.4710  2.3920
   78SLPC  H13Y 7188   3.171   5.526   7.475 -0.9801  0.6296  5.2885
   78SLPC  C314 7189   3.206   5.336   7.564  0.1659  0.3438 -1.1965
   78SLPC  H14X 7190   3.315   5.333   7.543  0.4561  3.0808 -0.3607
   78SLPC  H14Y 7191   3.171   5.230   7.567  2.4082 -0.4237  0.9569
   78SLPC  C315 7192   3.173   5.386   7.710 -0.5703 -0.2986  0.2189
   78SLPC  H15X 7193   3.064   5.373   7.723 -0.8682  1.0183 -0.7789
   78SLPC  H15Y 7194   3.201   5.494   7.717  0.7750 -0.6411  0.5784
   78SLPC  C316 7195   3.259   5.307   7.811  0.4890  0.4343  0.9139
   78SLPC  H16X 7196   3.254   5.341   7.917  0.0113 -0.8092  1.3139
   78SLPC  H16Y 7197   3.361   5.313   7.767 -0.2958 -0.5433 -1.1720
   78SLPC  C317 7198   3.226   5.144   7.818  0.1202  0.6128 -0.4006
   78SLPC  H17X 7199   3.254   5.111   7.715 -1.8114  0.7099 -0.9911
   78SLPC  H17Y 7200   3.121   5.113   7.833  1.0833 -3.7801 -1.1040
   78SLPC  C318 7201   3.311   5.074   7.930  0.1644  0.0031  0.3467
   78SLPC  H18X 7202   3.314   5.143   8.018  1.9044  3.2294 -2.0304
   78SLPC  H18Y 7203   3.417   5.065   7.898  0.6986  1.5279  1.5415
   78SLPC  H18Z 7204   3.266   4.977   7.961  0.1995 -0.4551 -0.9958
   79SLPC     N 7205   5.055   5.953   5.827 -0.4641  0.2878 -0.6027
   79SLPC   C13 7206   5.204   5.948   5.857  0.7057 -0.2767  0.4450
   79SLPC  H13A 7207   5.259   6.024   5.804 -0.5867  1.7830  1.9228
   79SLPC  H13B 7208   5.231   5.961   5.960 -0.1044  0.5611  0.5636
   79SLPC  H13C 7209   5.236   5.848   5.829  0.1333 -1.2871  3.1352
   79SLPC   C14 7210   5.028   5.893   5.687 -0.3375  0.8420 -0.2962
   79SLPC  H14A 7211   5.041   5.787   5.704 -2.7165  0.9010  2.6678
   79SLPC  H14B 7212   4.926   5.915   5.660 -1.6607 -1.2469  2.4959
   79SLPC  H14C 7213   5.105   5.920   5.616  0.5494 -0.0627  0.2857
   79SLPC   C15 7214   5.030   6.104   5.833 -0.0788 -0.1997  0.4602
   79SLPC  H15A 7215   4.926   6.133   5.832  0.8171  3.5958 -1.5277
   79SLPC  H15B 7216   5.078   6.142   5.921  0.0039 -0.5458  0.5652
   79SLPC  H15C 7217   5.067   6.167   5.754 -0.7716  0.1721  0.4230
   79SLPC   C12 7218   4.975   5.879   5.935 -0.0272  0.2324 -0.7587
   79SLPC  H12A 7219   4.958   5.773   5.921  0.1166  0.2385 -0.9849
   79SLPC  H12B 7220   4.875   5.915   5.919  0.2783  0.7152 -1.6414
   79SLPC   C11 7221   5.028   5.898   6.081  0.2581 -0.4678  0.9780
   79SLPC  H11A 7222   4.954   5.859   6.154 -0.9962  0.7021  0.3840
   79SLPC  H11B 7223   5.064   6.002   6.094  2.2287 -0.7568 -1.3844
   79SLPC     P 7224   5.137   5.656   6.091  0.1140 -0.1835  0.4455
   79SLPC   O13 7225   4.998   5.610   6.068  0.0348  0.0231 -0.2328
   79SLPC   O14 7226   5.252   5.604   6.006 -0.0872  0.1718 -0.3519
   79SLPC   O12 7227   5.147   5.819   6.097 -0.0151  0.0092 -0.1852
   79SLPC   O11 7228   5.170   5.607   6.234 -0.1181 -0.5502  0.1555
   79SLPC    C1 7229   5.091   5.663   6.341 -0.0442  0.0422 -0.3829
   79SLPC    HA 7230   4.998   5.716   6.311 -0.6797  0.6089  2.3621
   79SLPC    HB 7231   5.063   5.576   6.404  0.9944  0.4513  0.6708
   79SLPC    C2 7232   5.160   5.756   6.441  0.7735  0.3726 -0.1154
   79SLPC    HS 7233   5.082   5.766   6.520 -0.6797 -1.4066 -1.2441
   79SLPC   O21 7234   5.177   5.891   6.382 -0.6735  0.2735 -0.2343
   79SLPC   C21 7235   5.071   5.971   6.384  0.4169 -0.3411  0.4662
   79SLPC   O22 7236   4.956   5.941   6.405  0.3974 -0.5846  0.0761
   79SLPC   C22 7237   5.115   6.118   6.362  0.0780 -0.7050  0.0023
   79SLPC   H2R 7238   5.225   6.125   6.352  0.1954 -2.3568 -0.1350
   79SLPC   H2S 7239   5.076   6.155   6.265  0.0395  0.3005  0.3930
   79SLPC    C3 7240   5.294   5.705   6.494  0.3805 -0.3342 -0.3246
   79SLPC    HX 7241   5.366   5.695   6.410 -0.1132 -0.2914 -0.7614
   79SLPC    HY 7242   5.267   5.602   6.526  0.8432 -0.1219  0.7733
   79SLPC   O31 7243   5.350   5.775   6.601 -0.1397  0.6029  0.4448
   79SLPC   C31 7244   5.439   5.873   6.568 -0.2177  0.0288 -0.0819
   79SLPC   O32 7245   5.467   5.911   6.458  0.2175  0.1513  0.0763
   79SLPC   C32 7246   5.488   5.930   6.711 -0.2626  0.3603  0.7563
   79SLPC   H2X 7247   5.454   5.860   6.791  0.7225 -0.4310  0.4920
   79SLPC   H2Y 7248   5.433   6.026   6.727 -0.2458  0.5319 -0.1647
   79SLPC   C23 7249   5.076   6.211   6.476 -0.1813 -0.0854 -0.5426
   79SLPC   H3R 7250   4.965   6.208   6.482 -0.1870  1.2080  0.8057
   79SLPC   H3S 7251   5.112   6.316   6.471 -1.8206  0.8419  3.2853
   79SLPC   C24 7252   5.121   6.167   6.620  0.5999  0.1064  0.0515
   79SLPC   H4R 7253   5.232   6.164   6.623  0.6168  0.6210  0.1157
   79SLPC   H4S 7254   5.075   6.068   6.637  1.1528 -0.2097 -0.2736
   79SLPC   C25 7255   5.061   6.262   6.716  0.1532 -0.1598 -0.1542
   79SLPC   H5R 7256   5.068   6.226   6.821 -0.0527 -0.3005 -0.1862
   79SLPC   H5S 7257   4.951   6.272   6.699 -0.0418  2.2617  1.9530
   79SLPC   C26 7258   5.127   6.402   6.712 -0.3953  0.4001 -0.2269
   79SLPC   H6R 7259   5.105   6.445   6.612 -1.5080  0.5755  0.0736
   79SLPC   H6S 7260   5.235   6.380   6.708 -0.0990  1.4304  1.1119
   79SLPC   C27 7261   5.083   6.485   6.839 -0.1893  0.0776 -0.1699
   79SLPC   H7R 7262   5.102   6.424   6.930 -1.6760  0.9738  0.7934
   79SLPC   H7S 7263   4.974   6.500   6.824 -0.3297  0.1729  0.8612
   79SLPC   C28 7264   5.134   6.628   6.850  0.2210 -0.0352 -0.4339
   79SLPC   H8R 7265   5.245   6.622   6.846  0.0974 -2.2380 -1.6129
   79SLPC   H8S 7266   5.101   6.668   6.949 -1.3287  1.2363 -1.4212
   79SLPC   C29 7267   5.077   6.715   6.741  0.4167  0.4533  0.2574
   79SLPC   H9R 7268   4.994   6.675   6.680  0.2584  0.7817  0.2546
   79SLPC  C210 7269   5.105   6.844   6.729 -0.3025  0.0557  0.5601
   79SLPC  H10R 7270   5.051   6.905   6.656 -0.6286  2.0228  2.3502
   79SLPC  C211 7271   5.208   6.920   6.813  0.7261  0.4824  0.0594
   79SLPC  H11R 7272   5.278   6.969   6.742  2.9346 -2.1775  0.2079
   79SLPC  H11S 7273   5.276   6.857   6.874  0.5490 -0.2533 -0.4774
   79SLPC  C212 7274   5.148   7.033   6.893 -0.1112  0.0680 -0.9397
   79SLPC  H12R 7275   5.115   7.119   6.832 -1.4822 -0.0716 -0.4181
   79SLPC  C213 7276   5.117   7.035   7.023 -0.4035 -0.5415  0.2020
   79SLPC  H13R 7277   5.051   7.114   7.061  0.0891 -0.0203 -0.0007
   79SLPC  C214 7278   5.156   6.936   7.123  0.5468  0.5134 -0.3675
   79SLPC  H14R 7279   5.223   6.987   7.196  0.4199 -1.1599  1.0022
   79SLPC  H14S 7280   5.203   6.840   7.090 -2.5984 -0.9282 -1.0229
   79SLPC  C215 7281   5.028   6.897   7.205 -0.1620 -0.6515  0.3083
   79SLPC  H15R 7282   4.955   6.848   7.137  0.5745 -1.9130  0.4032
   79SLPC  H15S 7283   4.991   6.991   7.252  0.7317 -0.5518  0.8363
   79SLPC  C216 7284   5.049   6.802   7.323 -0.1052 -0.9422 -0.3113
   79SLPC  H16R 7285   5.125   6.864   7.376  1.1155 -2.4371 -0.2213
   79SLPC  H16S 7286   5.103   6.710   7.291  0.6523 -0.2434 -1.1121
   79SLPC  C217 7287   4.934   6.754   7.411  0.0834 -0.0565 -0.0868
   79SLPC  H17R 7288   4.873   6.687   7.347  1.7057 -0.9255 -0.7683
   79SLPC  H17S 7289   4.872   6.845   7.428 -0.8328 -0.3282 -1.7894
   79SLPC  C218 7290   4.959   6.674   7.541  0.0647 -0.1340  0.1277
   79SLPC  H18R 7291   5.028   6.590   7.517  0.6546  0.2114  0.5881
   79SLPC  H18S 7292   4.860   6.642   7.580 -0.8077  1.0053 -1.0650
   79SLPC  H18T 7293   4.999   6.741   7.620 -0.6273 -0.7707  1.0425
   79SLPC   C33 7294   5.639   5.958   6.720 -0.3532 -0.2408  0.2927
   79SLPC   H3X 7295   5.679   5.995   6.623  1.4232  0.4090  1.2256
   79SLPC   H3Y 7296   5.694   5.864   6.743  2.4873  1.4182  0.6886
   79SLPC   C34 7297   5.668   6.056   6.832  0.0072 -0.6209  0.4959
   79SLPC   H4X 7298   5.615   6.032   6.927 -0.1040 -1.1158  0.3147
   79SLPC   H4Y 7299   5.626   6.154   6.802 -1.1492 -1.3356 -0.3239
   79SLPC   C35 7300   5.815   6.070   6.866 -0.0751  0.5146 -0.2249
   79SLPC   H5X 7301   5.859   6.062   6.764 -0.9128 -2.8424 -0.4196
   79SLPC   H5Y 7302   5.858   5.983   6.921 -0.6324 -1.0477 -2.1559
   79SLPC   C36 7303   5.858   6.201   6.944  0.8179 -0.5515  0.3856
   79SLPC   H6X 7304   5.808   6.288   6.896  0.6057 -0.4338  0.8187
   79SLPC   H6Y 7305   5.966   6.216   6.923  0.5724  0.9410  0.0861
   79SLPC   C37 7306   5.821   6.185   7.091 -0.3307 -0.1589 -0.7967
   79SLPC   H7X 7307   5.834   6.081   7.129  0.2393 -0.1423 -0.9276
   79SLPC   H7Y 7308   5.715   6.211   7.110 -1.0802 -4.0167  1.2365
   79SLPC   C38 7309   5.902   6.279   7.179 -0.4394  0.5892  0.3595
   79SLPC   H8X 7310   5.933   6.369   7.122 -0.0914  0.4504  0.3257
   79SLPC   H8Y 7311   5.997   6.229   7.208 -0.0179  1.6643  0.8679
   79SLPC   C39 7312   5.817   6.316   7.298 -0.2560  0.4206  0.7311
   79SLPC   H9X 7313   5.783   6.218   7.337  0.5181  0.0508  0.4958
   79SLPC   H9Y 7314   5.730   6.371   7.256  0.6509 -0.9758 -3.3737
   79SLPC  C310 7315   5.891   6.396   7.400 -0.5891 -0.1616  0.6219
   79SLPC  H10X 7316   5.905   6.501   7.367 -1.1471 -0.0223  0.8264
   79SLPC  H10Y 7317   5.989   6.352   7.429 -0.6961 -0.7141  0.1671
   79SLPC  C311 7318   5.803   6.403   7.529 -0.6051 -0.5142  0.5699
   79SLPC  H11X 7319   5.816   6.299   7.568 -2.1854 -0.9095  0.1318
   79SLPC  H11Y 7320   5.696   6.418   7.505 -0.7354  0.0426  1.4472
   79SLPC  C312 7321   5.852   6.499   7.628  0.3137 -0.1720  0.1253
   79SLPC  H12X 7322   5.822   6.600   7.594 -0.6258 -1.2260 -2.4852
   79SLPC  H12Y 7323   5.962   6.510   7.641 -0.0766  2.4150  2.1371
   79SLPC  C313 7324   5.789   6.482   7.761  0.7567 -0.0656  0.7996
   79SLPC  H13X 7325   5.800   6.382   7.806  4.1841 -1.0223 -1.7597
   79SLPC  H13Y 7326   5.680   6.496   7.746  0.7255 -0.4239  0.6965
   79SLPC  C314 7327   5.836   6.589   7.866  0.1441 -0.4954  0.6805
   79SLPC  H14X 7328   5.843   6.686   7.812  0.0932 -1.0829 -0.4186
   79SLPC  H14Y 7329   5.938   6.555   7.891  0.7562 -0.5314 -1.5941
   79SLPC  C315 7330   5.744   6.595   7.984  0.0125  0.2506 -0.5247
   79SLPC  H15X 7331   5.730   6.493   8.027  1.6331  0.6029  0.9627
   79SLPC  H15Y 7332   5.645   6.633   7.952 -0.6863  1.8386  2.9714
   79SLPC  C316 7333   5.794   6.690   8.099  0.2858  0.3442 -1.0078
   79SLPC  H16X 7334   5.864   6.765   8.058 -0.2787  0.6332 -1.4437
   79SLPC  H16Y 7335   5.849   6.624   8.170 -1.2903  0.6102  0.5145
   79SLPC  C317 7336   5.674   6.746   8.170 -0.2284 -0.4330 -0.1662
   79SLPC  H17X 7337   5.605   6.678   8.224 -1.1760  1.4764  1.1374
   79SLPC  H17Y 7338   5.616   6.799   8.092  0.9789  0.2323 -0.6347
   79SLPC  C318 7339   5.719   6.855   8.271 -0.1315  1.4474 -0.2647
   79SLPC  H18X 7340   5.635   6.911   8.316  0.7304  2.2403  0.3944
   79SLPC  H18Y 7341   5.800   6.916   8.226  1.0339 -0.3555 -0.7232
   79SLPC  H18Z 7342   5.764   6.796   8.354 -1.2411  2.0189  0.7676
   80SLPC     N 7343   1.405   5.001   5.719 -0.5155 -0.5329 -0.7245
   80SLPC   C13 7344   1.500   5.113   5.724 -0.0166  1.1695  0.6178
   80SLPC  H13A 7345   1.515   5.136   5.829 -1.3962 -2.0248  1.6333
   80SLPC  H13B 7346   1.596   5.079   5.689  0.1460  0.7030  1.4774
   80SLPC  H13C 7347   1.461   5.199   5.671  0.9101 -0.0475 -2.2178
   80SLPC   C14 7348   1.476   4.874   5.765 -0.3117 -0.2052  0.1634
   80SLPC  H14A 7349   1.414   4.785   5.767  1.0586 -1.2035 -0.5502
   80SLPC  H14B 7350   1.561   4.857   5.701 -0.1849 -0.8761  0.5036
   80SLPC  H14C 7351   1.518   4.893   5.863 -2.2091  1.7075  0.6849
   80SLPC   C15 7352   1.373   4.987   5.575  0.4980  0.4187  0.7161
   80SLPC  H15A 7353   1.457   4.986   5.508 -0.5831  0.1885 -0.6850
   80SLPC  H15B 7354   1.336   4.885   5.575 -0.1122  0.6112 -1.0899
   80SLPC  H15C 7355   1.303   5.060   5.538 -0.2411 -0.6035  0.0355
   80SLPC   C12 7356   1.276   5.025   5.796 -0.0744  0.3945  0.7196
   80SLPC  H12A 7357   1.214   4.938   5.782  0.5845  0.1948 -1.3737
   80SLPC  H12B 7358   1.216   5.105   5.755 -1.8705 -1.0577  0.3964
   80SLPC   C11 7359   1.289   5.062   5.947 -0.7934  0.6062 -0.2401
   80SLPC  H11A 7360   1.362   4.988   5.987  0.3061  0.7172 -1.9457
   80SLPC  H11B 7361   1.189   5.047   5.993 -1.0848 -0.5488 -1.1812
   80SLPC     P 7362   1.271   5.327   5.941  0.0917 -0.2088 -0.6487
   80SLPC   O13 7363   1.382   5.418   5.916  0.2177  0.4698 -0.0618
   80SLPC   O14 7364   1.163   5.309   5.842 -0.5891 -0.3384  1.1023
   80SLPC   O12 7365   1.342   5.190   5.972  0.2444 -0.3747  0.2568
   80SLPC   O11 7366   1.216   5.351   6.087 -0.2412 -0.2864  0.1611
   80SLPC    C1 7367   1.298   5.367   6.202  0.6440 -0.1127 -0.3952
   80SLPC    HA 7368   1.298   5.267   6.250  0.1980 -0.9508 -2.0514
   80SLPC    HB 7369   1.406   5.386   6.182  0.4547  0.7679 -0.6460
   80SLPC    C2 7370   1.242   5.478   6.289  0.2505  0.4243  0.2940
   80SLPC    HS 7371   1.147   5.500   6.236 -2.2706 -4.6034  2.1543
   80SLPC   O21 7372   1.340   5.590   6.283  0.3036  0.0085  0.1720
   80SLPC   C21 7373   1.295   5.703   6.324  0.2441 -0.3040  0.2148
   80SLPC   O22 7374   1.176   5.733   6.346 -0.2470  0.6409 -0.3830
   80SLPC   C22 7375   1.421   5.795   6.332  0.5343 -0.0117  0.4798
   80SLPC   H2R 7376   1.495   5.749   6.400 -0.5723  1.6230  2.9554
   80SLPC   H2S 7377   1.457   5.795   6.228 -0.7593 -1.0109 -0.0020
   80SLPC    C3 7378   1.201   5.436   6.434 -0.0171  0.3087 -0.1798
   80SLPC    HX 7379   1.116   5.364   6.431  1.1277 -1.2894  2.3245
   80SLPC    HY 7380   1.165   5.524   6.490  2.0634  1.3361 -0.3655
   80SLPC   O31 7381   1.314   5.379   6.506  0.4103  0.0678  0.6021
   80SLPC   C31 7382   1.374   5.468   6.587 -0.3957  0.3124 -0.6125
   80SLPC   O32 7383   1.354   5.584   6.577 -0.6400  0.1312  0.4866
   80SLPC   C32 7384   1.471   5.398   6.694  0.4077 -0.3479  0.3697
   80SLPC   H2X 7385   1.533   5.324   6.639 -1.0459 -0.6779 -0.9122
   80SLPC   H2Y 7386   1.405   5.337   6.759 -2.8517  2.0546 -0.3680
   80SLPC   C23 7387   1.377   5.940   6.369  0.3368  0.3870  0.3421
   80SLPC   H3R 7388   1.296   5.980   6.304  2.0814  1.3961 -1.3188
   80SLPC   H3S 7389   1.465   6.006   6.353  1.2403 -1.4685 -3.1978
   80SLPC   C24 7390   1.311   5.954   6.510 -0.3053  0.3996  1.3340
   80SLPC   H4R 7391   1.250   5.864   6.532  3.2304 -2.2129  1.3480
   80SLPC   H4S 7392   1.243   6.040   6.496 -0.8002 -0.2802 -1.0095
   80SLPC   C25 7393   1.405   5.982   6.629 -0.1106 -0.6365  0.1682
   80SLPC   H5R 7394   1.343   6.035   6.704 -0.1779 -1.9106  1.0671
   80SLPC   H5S 7395   1.484   6.054   6.598  0.4277 -0.9746  0.7052
   80SLPC   C26 7396   1.481   5.856   6.682 -0.0937  0.5035 -0.2316
   80SLPC   H6R 7397   1.541   5.822   6.595 -0.9884 -2.2182  0.1313
   80SLPC   H6S 7398   1.400   5.787   6.715  0.0701  0.0702 -0.7237
   80SLPC   C27 7399   1.575   5.875   6.800 -0.0713 -0.2743 -0.2265
   80SLPC   H7R 7400   1.627   5.970   6.773  0.3148 -0.7281 -1.1043
   80SLPC   H7S 7401   1.646   5.790   6.806 -1.4995 -1.4067  1.3794
   80SLPC   C28 7402   1.493   5.911   6.929 -0.3844  0.0887 -0.1389
   80SLPC   H8R 7403   1.413   5.974   6.886  0.4850 -0.7443 -3.3250
   80SLPC   H8S 7404   1.557   5.967   7.000 -2.2116 -0.0472  1.6957
   80SLPC   C29 7405   1.422   5.796   6.995 -0.6585  0.4595  0.4489
   80SLPC   H9R 7406   1.385   5.719   6.925  2.6880 -1.9734  1.0957
   80SLPC  C210 7407   1.408   5.784   7.126  0.1850 -0.2513 -0.5422
   80SLPC  H10R 7408   1.377   5.693   7.179  1.3295  0.2959  1.1440
   80SLPC  C211 7409   1.463   5.887   7.219  0.2571  0.0344  0.0088
   80SLPC  H11R 7410   1.459   5.991   7.181 -3.1009 -0.1634 -0.4811
   80SLPC  H11S 7411   1.574   5.873   7.223  0.5221  1.2667 -1.7217
   80SLPC  C212 7412   1.403   5.877   7.359 -0.1863 -0.1006  0.0300
   80SLPC  H12R 7413   1.318   5.946   7.365 -0.5941 -0.6066  0.1716
   80SLPC  C213 7414   1.444   5.790   7.459  0.3024  0.0410 -0.3403
   80SLPC  H13R 7415   1.381   5.789   7.549 -0.1651 -1.2292 -0.6668
   80SLPC  C214 7416   1.544   5.677   7.445  0.5921 -0.4455 -0.2782
   80SLPC  H14R 7417   1.586   5.688   7.342 -2.6704 -1.4090 -1.8655
   80SLPC  H14S 7418   1.506   5.574   7.462  1.7751 -0.6376  1.4117
   80SLPC  C215 7419   1.652   5.699   7.549 -0.6399 -0.1793 -0.3107
   80SLPC  H15R 7420   1.692   5.802   7.551  0.7898 -0.7061  2.3812
   80SLPC  H15S 7421   1.735   5.632   7.518 -1.5045 -1.5149  0.1793
   80SLPC  C216 7422   1.613   5.666   7.695 -0.5006  0.0007  0.5221
   80SLPC  H16R 7423   1.564   5.566   7.693  0.7120 -0.6161 -2.1141
   80SLPC  H16S 7424   1.547   5.739   7.746 -0.4181 -0.2571  1.0121
   80SLPC  C217 7425   1.738   5.662   7.786 -0.5615 -0.2837 -0.6366
   80SLPC  H17R 7426   1.772   5.766   7.805 -0.8017 -0.2298 -0.4938
   80SLPC  H17S 7427   1.821   5.612   7.732 -0.9611 -0.8704 -0.7150
   80SLPC  C218 7428   1.728   5.594   7.926 -0.4912  0.7321  0.0188
   80SLPC  H18R 7429   1.701   5.657   8.013 -0.0062 -0.6715  1.2159
   80SLPC  H18S 7430   1.830   5.559   7.952 -1.1672 -0.7605  0.7714
   80SLPC  H18T 7431   1.656   5.510   7.914  1.5793 -1.0453 -0.6627
   80SLPC   C33 7432   1.554   5.508   6.772  0.3394 -0.1744  0.1374
   80SLPC   H3X 7433   1.479   5.583   6.806 -1.0192 -0.6888 -1.5931
   80SLPC   H3Y 7434   1.621   5.555   6.697 -0.5110  1.3926  0.3254
   80SLPC   C34 7435   1.644   5.451   6.876  0.1369  0.2749  0.2174
   80SLPC   H4X 7436   1.703   5.538   6.912 -0.4044 -0.3621  2.9125
   80SLPC   H4Y 7437   1.706   5.365   6.841  0.6347  1.1115 -1.0251
   80SLPC   C35 7438   1.555   5.401   6.993 -0.7303  0.0354 -0.6651
   80SLPC   H5X 7439   1.515   5.297   6.986  0.8880 -0.6796  0.2402
   80SLPC   H5Y 7440   1.474   5.477   7.003  0.1268  0.7862  0.8750
   80SLPC   C36 7441   1.645   5.397   7.118  0.0895  0.1671 -1.0885
   80SLPC   H6X 7442   1.649   5.506   7.140 -1.1261 -0.1105  0.6872
   80SLPC   H6Y 7443   1.748   5.366   7.089  0.8223  0.3810  1.1490
   80SLPC   C37 7444   1.597   5.318   7.241  1.3012  0.8895 -0.0798
   80SLPC   H7X 7445   1.595   5.211   7.215  2.4580  0.2179  2.3070
   80SLPC   H7Y 7446   1.491   5.345   7.258  0.7819 -0.7296 -0.5890
   80SLPC   C38 7447   1.683   5.341   7.367  0.4548 -0.3188  0.3159
   80SLPC   H8X 7448   1.717   5.446   7.379 -0.0980  0.0286 -0.9196
   80SLPC   H8Y 7449   1.780   5.289   7.354 -0.1644 -1.1374 -1.3718
   80SLPC   C39 7450   1.614   5.285   7.495 -0.0197  0.0306  0.3617
   80SLPC   H9X 7451   1.583   5.179   7.479  0.2794 -0.2226  1.3590
   80SLPC   H9Y 7452   1.519   5.335   7.524 -0.7273 -0.8804 -0.3217
   80SLPC  C310 7453   1.712   5.293   7.609  0.0148 -0.6506 -0.6171
   80SLPC  H10X 7454   1.738   5.395   7.645  4.7849 -1.6700 -0.4301
   80SLPC  H10Y 7455   1.804   5.236   7.582 -0.4566 -1.6976 -0.0844
   80SLPC  C311 7456   1.647   5.229   7.736 -0.0321  0.0103  0.0648
   80SLPC  H11X 7457   1.700   5.258   7.829  0.7427 -2.6870  0.5399
   80SLPC  H11Y 7458   1.661   5.120   7.723  0.2890  0.2732 -2.2634
   80SLPC  C312 7459   1.490   5.260   7.761 -0.1390 -0.1192 -0.0029
   80SLPC  H12X 7460   1.438   5.191   7.691  0.6058  0.4746 -1.1491
   80SLPC  H12Y 7461   1.475   5.365   7.729 -1.9562  0.3858  2.2233
   80SLPC  C313 7462   1.435   5.235   7.903  0.1504  0.4127 -0.2183
   80SLPC  H13X 7463   1.324   5.227   7.902  0.2620 -1.4156 -1.0562
   80SLPC  H13Y 7464   1.458   5.323   7.967 -0.7704  1.3660 -1.1545
   80SLPC  C314 7465   1.485   5.102   7.968 -0.5032  0.1928 -0.3029
   80SLPC  H14X 7466   1.444   5.085   8.070  0.4241 -2.6413 -0.3442
   80SLPC  H14Y 7467   1.594   5.099   7.986 -0.6958 -0.3188  0.8891
   80SLPC  C315 7468   1.457   4.965   7.896 -0.4576 -0.4386 -1.4125
   80SLPC  H15X 7469   1.514   4.947   7.802 -0.8039 -2.3733 -1.2844
   80SLPC  H15Y 7470   1.348   4.951   7.880 -1.0186  1.1853  0.5463
   80SLPC  C316 7471   1.496   4.853   7.996  0.1803  0.1805 -0.1243
   80SLPC  H16X 7472   1.484   4.881   8.103 -0.1819 -2.4933  0.6086
   80SLPC  H16Y 7473   1.603   4.824   7.994  0.0166 -0.9491  2.7540
   80SLPC  C317 7474   1.433   4.713   7.975  0.6800  0.3124  0.3234
   80SLPC  H17X 7475   1.500   4.634   8.014 -2.2053 -3.4088 -1.5363
   80SLPC  H17Y 7476   1.419   4.703   7.865 -1.1340  0.3248  0.5099
   80SLPC  C318 7477   1.289   4.701   8.027 -0.0400  0.5433 -0.6142
   80SLPC  H18X 7478   1.236   4.794   8.000  0.6692  1.2860  0.5005
   80SLPC  H18Y 7479   1.279   4.682   8.136  0.2135 -0.8626 -0.8136
   80SLPC  H18Z 7480   1.236   4.615   7.979 -1.3543  0.8712  0.2131
   81SAPS     N 7481   1.166   5.729  10.560  0.1275 -0.1344 -0.2261
   81SAPS   HN1 7482   1.147   5.816  10.506 -1.8378  0.5410  1.4163
   81SAPS   HN2 7483   1.217   5.661  10.500  0.3371 -0.5153  0.3811
   81SAPS   HN3 7484   1.076   5.698  10.600 -0.2460  1.1254 -0.0241
   81SAPS   C12 7485   1.259   5.772  10.666  0.8754  0.6128 -0.1794
   81SAPS  H12A 7486   1.214   5.846  10.731  1.8441  1.0978 -0.0374
   81SAPS   C13 7487   1.300   5.663  10.767 -0.0028 -0.2884 -0.2478
   81SAPS  O13A 7488   1.238   5.554  10.758 -0.2203  0.1156 -0.0119
   81SAPS  O13B 7489   1.369   5.687  10.869  0.6112 -0.1936  0.4336
   81SAPS   C11 7490   1.388   5.820  10.595  0.0426 -0.2717 -0.0277
   81SAPS  H11A 7491   1.458   5.850  10.676 -0.5368 -0.9801  0.7535
   81SAPS  H11B 7492   1.388   5.914  10.536  2.6795  0.1040  0.4577
   81SAPS     P 7493   1.573   5.747  10.429 -0.4075 -0.2494 -0.0258
   81SAPS   O13 7494   1.691   5.777  10.514  0.0533  0.5734 -0.4453
   81SAPS   O14 7495   1.587   5.639  10.335  0.0844 -0.2801 -0.0303
   81SAPS   O12 7496   1.452   5.715  10.527  0.5599  0.0985 -0.4941
   81SAPS   O11 7497   1.527   5.877  10.359  0.0594  0.6347 -0.2590
   81SAPS    C1 7498   1.410   5.876  10.274  0.1755 -0.3039  0.1652
   81SAPS    HA 7499   1.345   5.785  10.275 -2.0961  1.1789 -1.7719
   81SAPS    HB 7500   1.343   5.960  10.303  2.8379  1.0193  2.9288
   81SAPS    C2 7501   1.440   5.899  10.118  0.5250 -0.2477  0.3555
   81SAPS    HS 7502   1.341   5.896  10.068  0.9695  1.0742 -0.6619
   81SAPS   O21 7503   1.527   5.795  10.070  0.2096 -0.1110  0.3340
   81SAPS   C21 7504   1.461   5.681  10.049  0.8759 -0.0366 -0.3359
   81SAPS   O22 7505   1.347   5.657  10.076 -0.4398 -0.1026 -0.4713
   81SAPS   C22 7506   1.564   5.563  10.010 -0.0177  0.6268 -0.5914
   81SAPS   H2R 7507   1.661   5.611   9.986  0.5587  1.3352  2.7324
   81SAPS   H2S 7508   1.568   5.502  10.102 -0.3318 -0.3146 -1.1932
   81SAPS    C3 7509   1.493   6.042  10.109  0.1942 -0.0811 -0.4680
   81SAPS    HX 7510   1.581   6.054  10.176  0.0843  1.5353 -0.5742
   81SAPS    HY 7511   1.416   6.114  10.143  0.5455 -0.4719  1.2600
   81SAPS   O31 7512   1.542   6.064   9.976  0.0426 -0.2950 -0.0923
   81SAPS   C31 7513   1.504   6.177   9.920 -0.8381 -0.7555  0.8976
   81SAPS   O32 7514   1.419   6.247   9.964 -0.7764 -0.5436 -0.3659
   81SAPS   C32 7515   1.577   6.206   9.788  0.2889  0.2615  0.2838
   81SAPS   H2X 7516   1.685   6.186   9.808 -0.2147 -1.0180  1.9647
   81SAPS   H2Y 7517   1.562   6.315   9.776  1.6140  0.5394  0.9548
   81SAPS   C23 7518   1.506   5.470   9.904  0.1867 -0.0536  0.6402
   81SAPS   H3R 7519   1.485   5.527   9.811  1.2867  1.4681  1.2887
   81SAPS   H3S 7520   1.416   5.417   9.942 -0.7745  0.9615 -0.1513
   81SAPS   C24 7521   1.605   5.364   9.861 -0.0579 -0.1673 -0.3034
   81SAPS   H4R 7522   1.555   5.301   9.784 -0.2228  0.4137 -0.6850
   81SAPS   H4S 7523   1.637   5.301   9.947  0.4033 -0.6023 -0.7839
   81SAPS   C25 7524   1.724   5.429   9.794  0.2914 -0.1515  0.6060
   81SAPS   H5R 7525   1.793   5.486   9.858  0.4428  0.6883 -0.2774
   81SAPS   C26 7526   1.764   5.422   9.668 -0.7911  0.3283 -0.7059
   81SAPS   H6R 7527   1.849   5.486   9.641  0.8341 -1.4407 -0.0321
   81SAPS   C27 7528   1.693   5.344   9.568 -0.6202  0.1257  0.4304
   81SAPS   H7R 7529   1.623   5.269   9.612 -0.5702  0.3753  0.9409
   81SAPS   H7S 7530   1.765   5.278   9.515 -3.0611 -2.3247 -0.0760
   81SAPS   C28 7531   1.612   5.429   9.473 -0.0655  0.8501  0.4397
   81SAPS   H8R 7532   1.512   5.450   9.515 -0.2911  1.3244 -0.3275
   81SAPS   C29 7533   1.637   5.468   9.346  0.7745  0.8055 -0.2035
   81SAPS   H9R 7534   1.560   5.525   9.292 -0.2666  1.1175  1.5309
   81SAPS  C210 7535   1.755   5.437   9.266  0.3167 -0.0962 -0.0528
   81SAPS  H10R 7536   1.842   5.422   9.332 -0.8638  1.2184  1.8728
   81SAPS  H10S 7537   1.784   5.526   9.207 -1.4729  0.6188  0.0685
   81SAPS  C211 7538   1.737   5.309   9.183  0.2446 -0.8429  0.7252
   81SAPS  H11R 7539   1.748   5.219   9.245  1.5954  0.0624  1.8531
   81SAPS  C212 7540   1.713   5.297   9.049  0.3963  0.8092 -1.2231
   81SAPS  H12R 7541   1.716   5.196   9.007  0.7089 -0.4292  1.5437
   81SAPS  C213 7542   1.687   5.413   8.954 -0.3047  0.4729  0.4274
   81SAPS  H13R 7543   1.785   5.444   8.913 -0.7860  0.8869 -0.4327
   81SAPS  H13S 7544   1.663   5.505   9.012  2.4067  0.7911  1.1653
   81SAPS  C214 7545   1.581   5.398   8.841  0.5964  0.2879 -0.0291
   81SAPS  H14R 7546   1.494   5.463   8.857  1.9828  1.8823  1.5680
   81SAPS  C215 7547   1.575   5.314   8.742  0.0668  0.3886  0.5268
   81SAPS  H15R 7548   1.479   5.311   8.688 -1.2322 -0.1067  2.7032
   81SAPS  C216 7549   1.675   5.201   8.708 -0.6376  0.1316 -0.4243
   81SAPS  H16R 7550   1.644   5.103   8.750 -1.3085  0.4017 -0.2675
   81SAPS  H16S 7551   1.770   5.226   8.760 -0.2110  1.0942 -1.6218
   81SAPS  C217 7552   1.729   5.195   8.561  0.0098  0.2758 -0.0412
   81SAPS  H17R 7553   1.826   5.141   8.559 -0.7002 -1.0231 -1.6586
   81SAPS  H17S 7554   1.746   5.299   8.526  1.7982  0.2736  0.6811
   81SAPS  C218 7555   1.637   5.124   8.458  0.4339 -0.5286 -0.2867
   81SAPS  H18R 7556   1.540   5.177   8.468  0.8120  0.1775 -0.2986
   81SAPS  H18S 7557   1.631   5.015   8.479 -3.4345 -0.5453 -0.7603
   81SAPS  C219 7558   1.703   5.151   8.319  0.2241  0.7802 -0.0720
   81SAPS  H19R 7559   1.724   5.258   8.298 -2.1882  1.2014 -0.5821
   81SAPS  H19S 7560   1.625   5.120   8.246  0.8415 -2.0481  0.3231
   81SAPS  C220 7561   1.821   5.054   8.290  0.3600 -0.0716 -0.6026
   81SAPS  H20R 7562   1.860   5.063   8.186 -0.8143 -2.7485 -1.3752
   81SAPS  H20S 7563   1.792   4.951   8.321  2.4666  0.0986  2.3081
   81SAPS  H20T 7564   1.906   5.091   8.351  0.3469  2.8969 -2.1989
   81SAPS   C33 7565   1.531   6.117   9.675  0.4630 -0.1231  0.0317
   81SAPS   H3X 7566   1.439   6.165   9.635  1.6571  2.0027 -0.3199
   81SAPS   H3Y 7567   1.513   6.014   9.713 -0.8895 -0.2225 -0.7912
   81SAPS   C34 7568   1.625   6.111   9.556 -1.0352  0.6025 -0.5151
   81SAPS   H4X 7569   1.721   6.066   9.589  0.1665  3.4607  0.2669
   81SAPS   H4Y 7570   1.645   6.214   9.517 -0.0837  0.1145 -1.3913
   81SAPS   C35 7571   1.568   6.031   9.435  0.8584 -0.3139 -0.0888
   81SAPS   H5X 7572   1.645   6.008   9.359 -1.6900 -0.8008 -2.7315
   81SAPS   H5Y 7573   1.497   6.092   9.375  0.2114 -1.3643 -0.4170
   81SAPS   C36 7574   1.492   5.899   9.479 -0.1488  0.0752 -0.8490
   81SAPS   H6X 7575   1.401   5.928   9.536 -0.3424 -0.5191 -0.8504
   81SAPS   H6Y 7576   1.561   5.838   9.541  0.1567  0.4762 -0.7891
   81SAPS   C37 7577   1.452   5.816   9.355 -0.3971  0.0971  0.2850
   81SAPS   H7X 7578   1.437   5.710   9.382  0.7394 -0.3795 -0.8713
   81SAPS   H7Y 7579   1.542   5.811   9.290 -1.5225 -0.5034 -1.3020
   81SAPS   C38 7580   1.337   5.871   9.269 -0.1018 -0.4039  0.0193
   81SAPS   H8X 7581   1.368   5.963   9.216  1.9725 -1.1717 -0.2019
   81SAPS   H8Y 7582   1.245   5.884   9.330  1.0495  0.6016  1.5935
   81SAPS   C39 7583   1.289   5.767   9.159 -0.0691 -0.3004  0.1954
   81SAPS   H9X 7584   1.197   5.803   9.108  0.7112  0.7356 -0.5069
   81SAPS   H9Y 7585   1.278   5.673   9.217 -0.9645  0.4286  1.2494
   81SAPS  C310 7586   1.389   5.740   9.040 -0.6636  0.1699  0.0078
   81SAPS  H10X 7587   1.339   5.667   8.973  0.3869 -0.5796  0.0271
   81SAPS  H10Y 7588   1.475   5.684   9.082  0.3305  1.5979 -0.0218
   81SAPS  C311 7589   1.433   5.872   8.978 -0.3918  0.4878 -0.0902
   81SAPS  H11X 7590   1.498   5.933   9.045  1.0557 -0.6714 -0.3825
   81SAPS  H11Y 7591   1.343   5.931   8.949 -0.4517 -1.0073 -3.3921
   81SAPS  C312 7592   1.521   5.852   8.853  0.2506 -0.4234  0.3202
   81SAPS  H12X 7593   1.539   5.947   8.798  1.2815 -1.4885 -1.2749
   81SAPS  H12Y 7594   1.457   5.785   8.791  0.7741 -0.8043  0.1878
   81SAPS  C313 7595   1.650   5.790   8.882  0.2027  0.8386  0.2730
   81SAPS  H13X 7596   1.625   5.689   8.923  3.6207  0.4275  1.6228
   81SAPS  H13Y 7597   1.705   5.839   8.966  2.0815 -2.1213  0.9310
   81SAPS  C314 7598   1.739   5.771   8.759 -0.0080  0.0167 -0.6885
   81SAPS  H14X 7599   1.818   5.695   8.775  1.3945  0.8711 -3.0224
   81SAPS  H14Y 7600   1.790   5.868   8.739 -1.0513  1.3665  2.4862
   81SAPS  C315 7601   1.657   5.720   8.640  0.2980 -0.0955 -0.3840
   81SAPS  H15X 7602   1.590   5.790   8.586  1.4590  1.0310 -0.4170
   81SAPS  H15Y 7603   1.600   5.636   8.684 -0.1384  0.1641 -0.4484
   81SAPS  C316 7604   1.743   5.670   8.528 -0.0781 -0.0082 -0.0426
   81SAPS  H16X 7605   1.810   5.595   8.575  0.9810  1.1375  0.3173
   81SAPS  H16Y 7606   1.811   5.745   8.484 -1.8252  1.1922 -0.7986
   81SAPS  C317 7607   1.667   5.597   8.411  0.1394 -0.2082 -0.1252
   81SAPS  H17X 7608   1.597   5.678   8.380 -0.8906 -0.2408  1.9450
   81SAPS  H17Y 7609   1.601   5.520   8.456 -1.5274  1.0572 -0.2619
   81SAPS  C318 7610   1.745   5.557   8.290  0.3663  0.4349  0.5383
   81SAPS  H18X 7611   1.675   5.536   8.207 -2.7694  2.4999  2.4669
   81SAPS  H18Y 7612   1.809   5.468   8.311  0.6559  0.5476  0.1534
   81SAPS  H18Z 7613   1.812   5.640   8.257  0.8949  0.0287  0.5752
   82SAPS     N 7614   5.492   5.390  10.504 -0.2876  0.5424  0.2641
   82SAPS   HN1 7615   5.521   5.490  10.501 -3.2928  1.5000 -1.2242
   82SAPS   HN2 7616   5.460   5.376  10.406  0.2382  1.5695 -0.0643
   82SAPS   HN3 7617   5.404   5.374  10.557  0.7416  0.7715  2.1200
   82SAPS   C12 7618   5.601   5.300  10.544  1.0978 -0.1634  0.2557
   82SAPS  H12A 7619   5.669   5.296  10.460  2.8450  0.6751  1.5625
   82SAPS   C13 7620   5.694   5.354  10.652 -0.6266 -0.5146 -0.2152
   82SAPS  O13A 7621   5.666   5.465  10.698  0.2270 -0.1111 -0.5348
   82SAPS  O13B 7622   5.787   5.281  10.704 -0.0795 -0.0093 -0.5066
   82SAPS   C11 7623   5.546   5.155  10.577  0.1682  0.2588  0.1772
   82SAPS  H11A 7624   5.503   5.152  10.679  1.3940  1.2021  0.7496
   82SAPS  H11B 7625   5.630   5.083  10.586 -0.2772 -0.0486  2.1948
   82SAPS     P 7626   5.419   4.963  10.457 -0.1333 -0.5304 -0.1910
   82SAPS   O13 7627   5.462   4.880  10.571 -0.7780  0.4247 -0.0322
   82SAPS   O14 7628   5.289   4.939  10.393 -0.1434 -0.1828 -0.1118
   82SAPS   O12 7629   5.424   5.115  10.495 -0.3899  0.0688 -0.4020
   82SAPS   O11 7630   5.530   4.946  10.346  0.8316  0.1217 -0.5138
   82SAPS    C1 7631   5.545   5.055  10.250  0.3981  0.1474  0.4361
   82SAPS    HA 7632   5.483   5.040  10.159 -0.1040  0.5842  0.7017
   82SAPS    HB 7633   5.530   5.155  10.294 -1.3416 -0.2741  0.8851
   82SAPS    C2 7634   5.691   5.044  10.210  1.2254  0.4756  0.6233
   82SAPS    HS 7635   5.702   4.942  10.169  0.8366  0.9896 -0.8307
   82SAPS   O21 7636   5.776   5.078  10.326  0.3149  0.2595  0.6208
   82SAPS   C21 7637   5.879   4.992  10.346 -0.4473 -0.0702  0.2255
   82SAPS   O22 7638   5.924   4.912  10.267 -0.5957 -0.2287  0.2953
   82SAPS   C22 7639   5.924   5.024  10.486  0.0075 -0.3804 -0.3736
   82SAPS   H2R 7640   5.929   5.134  10.502 -0.6924 -0.3425 -0.3721
   82SAPS   H2S 7641   5.854   4.984  10.562  1.8786 -1.5619  0.8055
   82SAPS    C3 7642   5.723   5.156  10.101 -0.1783  0.3204 -0.3842
   82SAPS    HX 7643   5.724   5.251  10.159  0.7901 -0.0750  0.2752
   82SAPS    HY 7644   5.644   5.173  10.025  0.9866  0.4769 -1.5848
   82SAPS   O31 7645   5.856   5.135  10.031  0.3267  0.0900 -0.2910
   82SAPS   C31 7646   5.848   5.082   9.911 -1.1348 -0.0906 -0.8587
   82SAPS   O32 7647   5.750   5.040   9.854 -0.0435  0.3758 -0.0519
   82SAPS   C32 7648   5.991   5.071   9.850 -0.2997 -0.3408  0.1147
   82SAPS   H2X 7649   6.045   5.033   9.939  1.3408  0.1889 -0.6142
   82SAPS   H2Y 7650   6.035   5.172   9.834 -0.7903  0.3947  2.8757
   82SAPS   C23 7651   6.068   4.972  10.532  0.3618  0.2612  0.6112
   82SAPS   H3R 7652   6.071   4.861  10.529  0.9069  0.2923 -0.3888
   82SAPS   H3S 7653   6.083   4.999  10.639  0.6643 -0.4859  0.7585
   82SAPS   C24 7654   6.186   5.014  10.438  0.1772 -0.2363 -0.3348
   82SAPS   H4R 7655   6.158   4.986  10.335  2.7054  0.2394 -1.2242
   82SAPS   H4S 7656   6.277   4.958  10.471  0.1372  0.0628  0.2915
   82SAPS   C25 7657   6.207   5.160  10.446  0.6804 -0.0669  0.2125
   82SAPS   H5R 7658   6.246   5.199  10.541 -2.0390  0.9726  0.9972
   82SAPS   C26 7659   6.205   5.249  10.347 -0.2977  0.2705  0.7084
   82SAPS   H6R 7660   6.235   5.354  10.362  1.6686 -0.2658  0.7617
   82SAPS   C27 7661   6.163   5.231  10.204 -0.5817  0.1058 -0.1795
   82SAPS   H7R 7662   6.118   5.131  10.188 -2.1417  0.7349  0.0995
   82SAPS   H7S 7663   6.251   5.242  10.137  1.5722  1.6678  2.7043
   82SAPS   C28 7664   6.061   5.333  10.156  0.4738  0.1061  0.0052
   82SAPS   H8R 7665   5.958   5.321  10.194  0.1800 -1.1123 -1.0902
   82SAPS   C29 7666   6.079   5.445  10.080 -0.0811 -0.0339  0.3180
   82SAPS   H9R 7667   6.001   5.520  10.061 -0.0698 -0.3098 -0.9125
   82SAPS  C210 7668   6.209   5.484  10.003  0.1285 -0.1646 -0.0632
   82SAPS  H10R 7669   6.297   5.474  10.070 -0.0557  0.2013  0.2402
   82SAPS  H10S 7670   6.205   5.594   9.990  1.7107 -0.3692 -3.2270
   82SAPS  C211 7671   6.226   5.415   9.871  0.5814 -0.2048  0.3448
   82SAPS  H11R 7672   6.275   5.316   9.870 -2.3342 -1.7361 -0.4008
   82SAPS  C212 7673   6.178   5.460   9.756 -0.5042 -0.2486 -0.2538
   82SAPS  H12R 7674   6.211   5.407   9.665  0.4134 -0.9340  0.4581
   82SAPS  C213 7675   6.101   5.586   9.736  0.1295 -0.2074 -0.0562
   82SAPS  H13R 7676   6.162   5.675   9.710 -1.4392  0.4747 -1.5716
   82SAPS  H13S 7677   6.052   5.610   9.833 -3.4967  0.3266 -1.8452
   82SAPS  C214 7678   6.002   5.569   9.624  0.1879  0.5634  0.1369
   82SAPS  H14R 7679   5.898   5.555   9.658  0.4478 -0.1500  0.6479
   82SAPS  C215 7680   6.027   5.594   9.490 -0.1297 -0.1124 -0.1645
   82SAPS  H15R 7681   5.943   5.576   9.421 -0.5702  0.3375  0.2404
   82SAPS  C216 7682   6.164   5.626   9.428  0.1042 -0.5330  0.4845
   82SAPS  H16R 7683   6.250   5.580   9.482  0.4344  1.6501  1.9905
   82SAPS  H16S 7684   6.172   5.737   9.436 -1.3728 -0.0745 -2.9492
   82SAPS  C217 7685   6.174   5.602   9.278  0.4781 -0.4953  0.5031
   82SAPS  H17R 7686   6.159   5.495   9.256 -0.2364 -0.8862  2.6336
   82SAPS  H17S 7687   6.276   5.636   9.249  1.4075 -0.9550  2.9317
   82SAPS  C218 7688   6.073   5.690   9.191 -0.4760 -0.8808  0.5995
   82SAPS  H18R 7689   6.086   5.799   9.204  0.9192 -0.4602 -3.0455
   82SAPS  H18S 7690   5.973   5.659   9.227  0.2854 -2.7040  1.2655
   82SAPS  C219 7691   6.068   5.651   9.041 -0.1902  0.0200  0.7655
   82SAPS  H19R 7692   6.161   5.686   8.991 -0.4398  1.1150  1.0548
   82SAPS  H19S 7693   5.992   5.715   8.993 -0.3568 -0.3144  0.5794
   82SAPS  C220 7694   6.027   5.512   9.013 -0.0524  0.1535  0.6120
   82SAPS  H20R 7695   6.094   5.434   9.055 -0.3938  0.1400  1.1446
   82SAPS  H20S 7696   6.026   5.504   8.902  0.8751 -0.0630  0.6066
   82SAPS  H20T 7697   5.927   5.495   9.057 -0.3269 -2.3672 -0.7615
   82SAPS   C33 7698   6.006   4.975   9.730  0.4444  0.2469 -0.5822
   82SAPS   H3X 7699   5.968   4.874   9.756 -3.0365  1.7885  0.8626
   82SAPS   H3Y 7700   6.116   4.964   9.720  0.9724  3.8728  0.1887
   82SAPS   C34 7701   5.951   5.022   9.596 -0.6426  0.0147 -0.0615
   82SAPS   H4X 7702   5.843   5.001   9.584 -0.5714 -0.1671 -0.3786
   82SAPS   H4Y 7703   6.007   4.957   9.526 -0.2949  0.4569 -0.2014
   82SAPS   C35 7704   5.978   5.164   9.560  0.1156 -0.3197 -0.6333
   82SAPS   H5X 7705   6.086   5.186   9.569  0.2410 -1.0112 -0.3768
   82SAPS   H5Y 7706   5.937   5.234   9.635  3.1238  0.8366  0.0849
   82SAPS   C36 7707   5.941   5.202   9.415  0.3980  0.5587  0.2743
   82SAPS   H6X 7708   5.984   5.302   9.395 -0.6226  0.7981 -0.8409
   82SAPS   H6Y 7709   5.831   5.209   9.400 -0.0328 -1.0406  2.1579
   82SAPS   C37 7710   5.988   5.101   9.307 -0.5629  0.4760 -0.7532
   82SAPS   H7X 7711   5.929   5.008   9.313  0.3435 -0.0399  0.8875
   82SAPS   H7Y 7712   6.097   5.085   9.318 -0.7677  0.3722  1.5625
   82SAPS   C38 7713   5.969   5.164   9.174  0.8101 -0.3694  0.0044
   82SAPS   H8X 7714   6.045   5.244   9.161 -0.4799  0.5811 -2.1336
   82SAPS   H8Y 7715   5.867   5.209   9.174  1.0358  0.2248  1.5081
   82SAPS   C39 7716   5.972   5.060   9.060  0.5084  0.2979 -0.1360
   82SAPS   H9X 7717   5.891   4.985   9.069  1.4463 -0.5808  1.3892
   82SAPS   H9Y 7718   6.068   5.004   9.058 -0.7765 -1.9975 -1.7642
   82SAPS  C310 7719   5.951   5.127   8.922  0.2260 -0.2331 -0.5803
   82SAPS  H10X 7720   6.041   5.190   8.909 -1.6305  2.3823 -1.4567
   82SAPS  H10Y 7721   5.864   5.196   8.923  0.0168 -0.3094  3.2988
   82SAPS  C311 7722   5.940   5.031   8.805  0.2363 -0.0512 -0.1786
   82SAPS  H11X 7723   5.844   4.978   8.824  0.1741 -1.0352 -2.8064
   82SAPS  H11Y 7724   6.026   4.961   8.807 -0.2943 -0.6906  0.7454
   82SAPS  C312 7725   5.931   5.099   8.661  0.7036  0.1670  0.1440
   82SAPS  H12X 7726   6.021   5.162   8.643  0.7995  0.0026  0.0543
   82SAPS  H12Y 7727   5.842   5.164   8.678  1.8622  1.2184  2.6888
   82SAPS  C313 7728   5.924   4.994   8.547 -0.3099  0.1156  0.0157
   82SAPS  H13X 7729   6.024   4.948   8.550 -0.4807 -0.2317  0.7586
   82SAPS  H13Y 7730   5.917   5.043   8.448  1.1561 -0.4574 -0.3836
   82SAPS  C314 7731   5.810   4.894   8.546  0.6770  0.1880  0.4569
   82SAPS  H14X 7732   5.807   4.845   8.646  0.8634 -1.8425 -0.4952
   82SAPS  H14Y 7733   5.822   4.809   8.477 -3.3188  0.9852 -1.5258
   82SAPS  C315 7734   5.672   4.950   8.499 -0.4179 -0.2979 -0.6566
   82SAPS  H15X 7735   5.599   4.867   8.486 -0.6696  0.0811 -1.8130
   82SAPS  H15Y 7736   5.681   5.009   8.405  0.8412  0.6282  0.0211
   82SAPS  C316 7737   5.609   5.052   8.601  0.0414  0.0527 -0.2099
   82SAPS  H16X 7738   5.654   5.147   8.567  1.4622 -1.1750 -1.9041
   82SAPS  H16Y 7739   5.643   5.033   8.706 -0.8236 -0.7388 -0.0543
   82SAPS  C317 7740   5.458   5.065   8.601 -0.5234 -0.7354 -0.7267
   82SAPS  H17X 7741   5.439   5.093   8.495  2.4317  0.2537 -1.0955
   82SAPS  H17Y 7742   5.427   5.152   8.663 -2.6613 -0.3310 -2.2488
   82SAPS  C318 7743   5.376   4.946   8.647 -0.2906  0.5375  0.1990
   82SAPS  H18X 7744   5.393   4.927   8.755  1.8418 -2.2376 -0.5114
   82SAPS  H18Y 7745   5.408   4.852   8.598 -0.5241 -0.1977  1.4103
   82SAPS  H18Z 7746   5.267   4.967   8.635  0.0464  1.7052 -1.1616
   83SAPS     N 7747   1.104   0.649  10.836 -1.2573 -0.2894  0.1682
   83SAPS   HN1 7748   1.030   0.707  10.791 -0.4847  1.1616  0.7055
   83SAPS   HN2 7749   1.058   0.577  10.895 -0.0996 -1.1818  0.0114
   83SAPS   HN3 7750   1.153   0.709  10.906 -0.4717 -1.1312  0.3577
   83SAPS   C12 7751   1.201   0.573  10.744  0.1342 -0.3896  0.3610
   83SAPS  H12A 7752   1.229   0.636  10.661  2.1170  2.2258  2.8101
   83SAPS   C13 7753   1.339   0.538  10.806 -0.3299  0.1911  0.3381
   83SAPS  O13A 7754   1.352   0.565  10.929 -0.0029  0.0148  0.1378
   83SAPS  O13B 7755   1.413   0.462  10.736 -0.8562  0.1574  0.2618
   83SAPS   C11 7756   1.137   0.430  10.706 -1.0613  0.0604  0.3535
   83SAPS  H11A 7757   1.158   0.352  10.782  2.8020  2.4681  2.0373
   83SAPS  H11B 7758   1.204   0.404  10.622 -0.3816  0.1330  0.8618
   83SAPS     P 7759   0.956   0.442  10.523  0.0359  0.0424  0.1102
   83SAPS   O13 7760   0.988   0.313  10.456  0.2735  0.7999 -0.1021
   83SAPS   O14 7761   0.815   0.492  10.508  0.4220 -0.3007  0.4585
   83SAPS   O12 7762   1.000   0.436  10.673  0.4647 -0.6918 -0.7130
   83SAPS   O11 7763   1.058   0.548  10.462 -0.2203 -0.4719  0.2615
   83SAPS    C1 7764   1.013   0.678  10.415  0.3285  0.4986 -0.0088
   83SAPS    HA 7765   0.937   0.713  10.487  0.4896 -2.5202  1.7852
   83SAPS    HB 7766   1.106   0.739  10.410  0.3160  0.7241  2.0184
   83SAPS    C2 7767   0.960   0.668  10.277  0.5235 -0.5512  0.5500
   83SAPS    HS 7768   0.875   0.598  10.288 -0.1509  0.5352  2.7914
   83SAPS   O21 7769   1.065   0.607  10.199 -0.8759 -0.4604  0.4211
   83SAPS   C21 7770   1.031   0.541  10.091 -0.0613 -0.2866  0.7993
   83SAPS   O22 7771   0.918   0.501  10.071  0.4858  0.0901  0.0241
   83SAPS   C22 7772   1.147   0.525   9.996 -0.1343  0.0513 -0.5275
   83SAPS   H2R 7773   1.217   0.611   9.989  2.6716 -2.1478 -1.7335
   83SAPS   H2S 7774   1.207   0.439  10.034  1.6506  1.0419 -0.9645
   83SAPS    C3 7775   0.922   0.805  10.212 -0.3821 -0.1901  1.0509
   83SAPS    HX 7776   0.857   0.865  10.279 -0.3978 -0.1790  1.0263
   83SAPS    HY 7777   0.857   0.787  10.123  0.4391  0.5526  0.2864
   83SAPS   O31 7778   1.046   0.886  10.188  0.3094  0.5442 -0.2639
   83SAPS   C31 7779   1.088   0.871  10.058  0.2752  0.2191  0.3702
   83SAPS   O32 7780   1.024   0.805   9.975  0.2199 -0.6662 -0.2786
   83SAPS   C32 7781   1.209   0.949  10.027 -0.2531  0.4985  0.1418
   83SAPS   H2X 7782   1.298   0.916  10.086  0.5838 -0.8905 -1.7908
   83SAPS   H2Y 7783   1.195   1.057  10.052  0.8606  0.9450 -1.0139
   83SAPS   C23 7784   1.104   0.485   9.852  0.1517  0.0309  0.2351
   83SAPS   H3R 7785   1.015   0.545   9.825  0.1358 -0.5235 -1.0104
   83SAPS   H3S 7786   1.063   0.381   9.857  0.4242 -0.1794 -1.4325
   83SAPS   C24 7787   1.219   0.496   9.751  0.1647 -0.2273 -0.2886
   83SAPS   H4R 7788   1.316   0.461   9.790  0.4305  0.9275  0.1151
   83SAPS   H4S 7789   1.227   0.607   9.745  0.6958 -0.2984 -1.2186
   83SAPS   C25 7790   1.198   0.439   9.617  0.1443 -0.0975  0.6550
   83SAPS   H5R 7791   1.206   0.329   9.616  0.2810 -0.0910 -0.3038
   83SAPS   C26 7792   1.172   0.494   9.494 -0.5791  0.5363 -0.0642
   83SAPS   H6R 7793   1.168   0.426   9.408 -2.1913  0.2410  0.2198
   83SAPS   C27 7794   1.153   0.640   9.452  0.4757  0.0321  0.3423
   83SAPS   H7R 7795   1.201   0.708   9.525 -0.6064  0.3552  0.7807
   83SAPS   H7S 7796   1.048   0.677   9.449  0.0010 -1.2987 -2.5370
   83SAPS   C28 7797   1.229   0.680   9.325  0.6923  0.3321 -0.6452
   83SAPS   H8R 7798   1.325   0.723   9.357 -0.5169  1.5362  1.6392
   83SAPS   C29 7799   1.194   0.649   9.195  0.0509  0.1869  0.1250
   83SAPS   H9R 7800   1.261   0.674   9.112 -2.4324 -0.3044 -2.1868
   83SAPS  C210 7801   1.065   0.584   9.149 -0.3221  0.0788  0.3482
   83SAPS  H10R 7802   1.010   0.647   9.076  0.8587  0.1201 -0.5205
   83SAPS  H10S 7803   0.992   0.576   9.233 -1.0562 -0.4731 -0.3286
   83SAPS  C211 7804   1.104   0.456   9.083 -0.3922 -0.2322 -1.0832
   83SAPS  H11R 7805   1.104   0.368   9.150  3.2046  1.1215  0.9543
   83SAPS  C212 7806   1.107   0.427   8.949 -0.2903  1.1818 -0.0885
   83SAPS  H12R 7807   1.137   0.324   8.925  0.8296  1.8457 -1.7664
   83SAPS  C213 7808   1.088   0.520   8.832  0.5758  0.2362 -0.8897
   83SAPS  H13R 7809   1.179   0.526   8.769  0.5366  2.0008 -0.8295
   83SAPS  H13S 7810   1.076   0.622   8.874  1.6637 -0.5356  1.4879
   83SAPS  C214 7811   0.965   0.484   8.754  0.0766  0.2786 -0.1457
   83SAPS  H14R 7812   0.896   0.416   8.806 -0.0167 -0.9406 -1.7698
   83SAPS  C215 7813   0.931   0.522   8.630  0.5855 -0.3063  0.0511
   83SAPS  H15R 7814   0.855   0.459   8.583 -0.4974  1.1035 -0.1647
   83SAPS  C216 7815   1.008   0.613   8.541 -0.9044  0.1582 -0.3132
   83SAPS  H16R 7816   1.060   0.688   8.605  1.8744 -2.1509  0.3620
   83SAPS  H16S 7817   0.930   0.665   8.482 -3.1560 -1.1276  1.3822
   83SAPS  C217 7818   1.123   0.553   8.458 -0.3895  0.8610  0.3801
   83SAPS  H17R 7819   1.101   0.472   8.385 -0.2009  1.4735 -0.3715
   83SAPS  H17S 7820   1.208   0.510   8.515  0.8208 -0.0917 -1.9770
   83SAPS  C218 7821   1.172   0.665   8.360 -0.2572 -0.7333 -0.9074
   83SAPS  H18R 7822   1.207   0.752   8.419  1.5991 -1.0375 -1.4898
   83SAPS  H18S 7823   1.084   0.695   8.298 -0.0710  0.2225 -0.7176
   83SAPS  C219 7824   1.287   0.624   8.275  0.1331 -0.2970 -0.3749
   83SAPS  H19R 7825   1.253   0.536   8.215 -1.1947  0.0318 -0.1477
   83SAPS  H19S 7826   1.370   0.590   8.340 -0.4766 -2.8539 -0.8108
   83SAPS  C220 7827   1.327   0.738   8.177 -0.4146  0.1672  0.2674
   83SAPS  H20R 7828   1.234   0.768   8.124  0.2311 -0.6312 -1.4101
   83SAPS  H20S 7829   1.403   0.702   8.105 -0.9349  1.5722 -1.0344
   83SAPS  H20T 7830   1.359   0.828   8.232  2.1426 -0.9295  0.7089
   83SAPS   C33 7831   1.228   0.949   9.871 -0.1629 -0.8442 -0.1205
   83SAPS   H3X 7832   1.222   0.846   9.828  0.4532 -0.6152 -0.7779
   83SAPS   H3Y 7833   1.328   0.986   9.837  0.3788 -1.6388  0.5496
   83SAPS   C34 7834   1.115   1.033   9.794  0.0513 -0.1290 -0.1150
   83SAPS   H4X 7835   1.112   1.127   9.852  1.7406 -0.0584 -0.0992
   83SAPS   H4Y 7836   1.014   0.989   9.809  0.7805 -1.4448  1.1781
   83SAPS   C35 7837   1.148   1.049   9.647 -0.8656 -0.9285 -0.2907
   83SAPS   H5X 7838   1.166   0.957   9.588 -0.6768 -0.6883 -0.6184
   83SAPS   H5Y 7839   1.243   1.108   9.644 -2.3321  1.5765 -0.6411
   83SAPS   C36 7840   1.046   1.133   9.561 -0.4902  0.1134 -0.3588
   83SAPS   H6X 7841   1.045   1.235   9.606  3.5024  0.7436 -1.3659
   83SAPS   H6Y 7842   0.948   1.081   9.569 -1.4876  1.8570 -0.6780
   83SAPS   C37 7843   1.102   1.142   9.418  0.7964 -0.2100  0.2187
   83SAPS   H7X 7844   1.132   1.043   9.380  1.5332  0.4322 -0.9391
   83SAPS   H7Y 7845   1.199   1.197   9.420  0.9352 -0.1102 -3.2222
   83SAPS   C38 7846   1.021   1.216   9.316  0.0396  0.2016  0.0508
   83SAPS   H8X 7847   1.021   1.321   9.354  1.1325  0.5310 -0.8048
   83SAPS   H8Y 7848   0.914   1.186   9.314 -0.4615  1.8876 -0.7857
   83SAPS   C39 7849   1.082   1.193   9.182 -0.0742  0.5258  0.0676
   83SAPS   H9X 7850   1.056   1.088   9.157 -1.6557  0.2820  2.4094
   83SAPS   H9Y 7851   1.190   1.217   9.172 -0.4632  1.4761 -2.6351
   83SAPS  C310 7852   1.022   1.291   9.079 -0.6201  0.5077  0.2011
   83SAPS  H10X 7853   1.021   1.400   9.103  0.6122  0.9259 -1.4964
   83SAPS  H10Y 7854   0.912   1.273   9.081 -0.7786  1.4568  0.5902
   83SAPS  C311 7855   1.067   1.269   8.935  0.0845  0.4208 -0.1366
   83SAPS  H11X 7856   1.025   1.174   8.896  0.9442 -0.7220  1.5840
   83SAPS  H11Y 7857   1.176   1.252   8.947 -0.1220 -1.4482 -0.5975
   83SAPS  C312 7858   1.029   1.383   8.842  0.6445  0.0671 -0.8118
   83SAPS  H12X 7859   1.069   1.478   8.884  1.1310 -0.2727 -0.4952
   83SAPS  H12Y 7860   0.919   1.395   8.843  0.8777  4.1052 -2.6819
   83SAPS  C313 7861   1.084   1.364   8.700  0.2816  0.1553 -0.5113
   83SAPS  H13X 7862   1.057   1.259   8.678 -2.9140  0.6052  0.7754
   83SAPS  H13Y 7863   1.194   1.377   8.711  0.3046 -1.0445  0.9410
   83SAPS  C314 7864   1.029   1.464   8.597 -0.8277  0.7688  0.2685
   83SAPS  H14X 7865   1.044   1.570   8.628  0.9948  0.6649 -0.1562
   83SAPS  H14Y 7866   0.919   1.460   8.605 -0.8401 -0.1532 -0.2201
   83SAPS  C315 7867   1.091   1.441   8.455 -0.9349  0.3632  0.5049
   83SAPS  H15X 7868   1.062   1.522   8.385  1.2092  0.5954 -0.1859
   83SAPS  H15Y 7869   1.064   1.337   8.429 -0.5536 -0.0741  1.8020
   83SAPS  C316 7870   1.240   1.458   8.462 -0.7930  0.2016  1.2239
   83SAPS  H16X 7871   1.281   1.373   8.520 -2.3317 -1.2551  0.2483
   83SAPS  H16Y 7872   1.262   1.558   8.507 -0.1299  0.9059 -0.5789
   83SAPS  C317 7873   1.309   1.453   8.320 -0.4801  0.1459  0.1060
   83SAPS  H17X 7874   1.254   1.525   8.256  0.0726 -0.9855 -1.7117
   83SAPS  H17Y 7875   1.282   1.357   8.271 -0.5336 -0.1852  0.7735
   83SAPS  C318 7876   1.466   1.469   8.321 -0.0874  0.2905 -0.1337
   83SAPS  H18X 7877   1.510   1.470   8.219  1.6008  0.0236  0.5649
   83SAPS  H18Y 7878   1.513   1.394   8.387 -1.2178  0.4402  0.8792
   83SAPS  H18Z 7879   1.492   1.567   8.367 -0.8679 -0.2268  1.4800
   84SAPS     N 7880   2.863   6.742  11.149 -0.1523 -0.3331  0.4520
   84SAPS   HN1 7881   2.920   6.692  11.220 -0.1619  0.4143  0.9908
   84SAPS   HN2 7882   2.803   6.804  11.205 -0.8776 -0.4521 -0.1767
   84SAPS   HN3 7883   2.807   6.669  11.101 -0.4365 -1.0886  1.8688
   84SAPS   C12 7884   2.950   6.817  11.054  0.0573 -0.0125  0.5326
   84SAPS  H12A 7885   2.897   6.908  11.030 -1.3689 -1.3091 -1.5713
   84SAPS   C13 7886   3.084   6.868  11.118  0.2828 -0.3078  0.1884
   84SAPS  O13A 7887   3.093   6.868  11.243 -0.3043  0.0198 -0.5752
   84SAPS  O13B 7888   3.170   6.929  11.046 -0.3718  0.3734  0.0520
   84SAPS   C11 7889   2.977   6.717  10.942 -0.4825  0.1548  1.1582
   84SAPS  H11A 7890   3.035   6.629  10.977 -0.4330  0.0495  0.8089
   84SAPS  H11B 7891   3.042   6.766  10.866 -0.5261  0.3638  1.2551
   84SAPS     P 7892   2.826   6.612  10.752 -0.3230 -0.3744 -0.3350
   84SAPS   O13 7893   2.913   6.496  10.742 -0.5121 -0.3559 -0.8127
   84SAPS   O14 7894   2.680   6.592  10.726  0.0241  0.4805 -0.2880
   84SAPS   O12 7895   2.851   6.684  10.891  0.5795 -0.1654 -0.2274
   84SAPS   O11 7896   2.882   6.722  10.649 -0.2081  0.1048  0.1955
   84SAPS    C1 7897   2.835   6.854  10.642  0.2988 -0.6618 -0.1341
   84SAPS    HA 7898   2.725   6.854  10.631  0.1209  0.1747  1.3421
   84SAPS    HB 7899   2.867   6.911  10.732 -2.7561  0.2316  0.4863
   84SAPS    C2 7900   2.888   6.930  10.515  0.1051 -0.0417 -0.4015
   84SAPS    HS 7901   2.847   7.034  10.516  0.5853  0.1609  1.2632
   84SAPS   O21 7902   2.854   6.859  10.397  0.5457  0.9656  0.0416
   84SAPS   C21 7903   2.728   6.821  10.373  0.0826 -0.3427 -0.0118
   84SAPS   O22 7904   2.624   6.870  10.420  0.5179  0.2110  0.5106
   84SAPS   C22 7905   2.739   6.711  10.266  0.3345 -0.4956  0.6741
   84SAPS   H2R 7906   2.634   6.679  10.252 -0.2547  0.2775  2.9770
   84SAPS   H2S 7907   2.777   6.749  10.169  1.0546 -0.2141  1.0588
   84SAPS    C3 7908   3.043   6.952  10.527  0.5613 -0.4807  0.9702
   84SAPS    HX 7909   3.088   6.865  10.579  0.2892 -1.2718 -0.0852
   84SAPS    HY 7910   3.055   7.035  10.600 -0.0160 -0.8888  1.5442
   84SAPS   O31 7911   3.101   7.000  10.399 -0.5677 -0.0058 -0.3062
   84SAPS   C31 7912   3.182   6.920  10.334 -0.3456  0.3420  0.0338
   84SAPS   O32 7913   3.207   6.808  10.370  0.0304  0.1484 -0.3004
   84SAPS   C32 7914   3.247   6.981  10.207 -0.0308 -1.0525  0.3242
   84SAPS   H2X 7915   3.348   7.011  10.241 -1.0798  2.2942  0.8246
   84SAPS   H2Y 7916   3.186   7.073  10.194 -2.2806 -2.2387  1.8948
   84SAPS   C23 7917   2.820   6.579  10.301 -0.1997  0.5782 -0.5948
   84SAPS   H3R 7918   2.776   6.536  10.393 -1.3783  0.2444 -1.2868
   84SAPS   H3S 7919   2.929   6.592  10.318 -0.1388 -0.8537  0.2720
   84SAPS   C24 7920   2.808   6.480  10.181 -0.4243 -0.4358  0.1341
   84SAPS   H4R 7921   2.832   6.542  10.092  0.1555  0.4810  0.9128
   84SAPS   H4S 7922   2.701   6.458  10.165 -0.0597 -1.8007 -0.6476
   84SAPS   C25 7923   2.892   6.352  10.200  0.5617  0.9356  0.2705
   84SAPS   H5R 7924   2.905   6.310  10.301  1.5742  1.9985  0.6043
   84SAPS   C26 7925   2.966   6.306  10.097 -0.2117 -0.3999 -0.3244
   84SAPS   H6R 7926   3.035   6.221  10.106 -0.7344 -0.9970 -1.7592
   84SAPS   C27 7927   2.957   6.362   9.961  0.3906  0.4659  0.1581
   84SAPS   H7R 7928   2.994   6.466   9.972 -1.5590  1.0736  1.6626
   84SAPS   H7S 7929   2.849   6.380   9.942  0.0956 -0.0527  1.2710
   84SAPS   C28 7930   3.024   6.294   9.842 -0.2171  0.2335 -0.9590
   84SAPS   H8R 7931   3.121   6.254   9.875 -0.6320  0.2874  0.3970
   84SAPS   C29 7932   2.964   6.266   9.723 -0.5476  0.1776 -0.7464
   84SAPS   H9R 7933   3.020   6.222   9.638 -0.8096  0.5330 -1.1089
   84SAPS  C210 7934   2.823   6.301   9.672 -0.1075  0.0284  0.4649
   84SAPS  H10R 7935   2.818   6.369   9.585  1.4519 -0.2396  0.1448
   84SAPS  H10S 7936   2.760   6.350   9.750  0.2089  0.0678  0.6966
   84SAPS  C211 7937   2.751   6.175   9.641  0.2051 -0.3665  0.4820
   84SAPS  H11R 7938   2.731   6.113   9.730  1.6631 -0.3551  0.8516
   84SAPS  C212 7939   2.718   6.131   9.521 -0.6606  0.6014 -0.8933
   84SAPS  H12R 7940   2.657   6.041   9.511 -0.2626  0.5268 -3.4450
   84SAPS  C213 7941   2.757   6.196   9.392  0.2644 -0.2043 -0.2698
   84SAPS  H13R 7942   2.866   6.218   9.394  0.3356 -0.5744  0.1678
   84SAPS  H13S 7943   2.696   6.289   9.393  0.4550  0.1939 -4.7102
   84SAPS  C214 7944   2.728   6.112   9.270  0.0468  0.0388 -0.3150
   84SAPS  H14R 7945   2.706   6.005   9.286 -3.3255  0.4934 -1.2038
   84SAPS  C215 7946   2.725   6.154   9.146  0.3007 -0.2375 -0.6983
   84SAPS  H15R 7947   2.697   6.076   9.074  0.4754  0.1861 -1.2319
   84SAPS  C216 7948   2.734   6.291   9.088  0.0858 -0.1887 -0.0041
   84SAPS  H16R 7949   2.812   6.295   9.009  1.1843 -1.3878  0.9748
   84SAPS  H16S 7950   2.768   6.369   9.160  0.1118  0.2271 -0.4587
   84SAPS  C217 7951   2.597   6.322   9.026  0.3325 -0.3651  0.0254
   84SAPS  H17R 7952   2.517   6.325   9.103 -0.4028  0.4188 -0.7466
   84SAPS  H17S 7953   2.573   6.242   8.953  1.7617 -0.3882 -0.4535
   84SAPS  C218 7954   2.598   6.452   8.942 -0.0269 -0.0439  0.4976
   84SAPS  H18R 7955   2.626   6.543   8.999  0.0094 -0.7436  1.6206
   84SAPS  H18S 7956   2.493   6.471   8.911  0.4174  1.1757 -0.2912
   84SAPS  C219 7957   2.684   6.430   8.809  1.0213  0.0188  0.2619
   84SAPS  H19R 7958   2.658   6.328   8.772  1.5682 -0.6559  1.6450
   84SAPS  H19S 7959   2.789   6.415   8.840  1.0213 -0.3546  0.0889
   84SAPS  C220 7960   2.688   6.532   8.698 -0.5604 -0.7804  0.0980
   84SAPS  H20R 7961   2.586   6.550   8.658 -0.6379 -0.3850  0.4632
   84SAPS  H20S 7962   2.758   6.506   8.615  0.0042  0.9587 -0.0100
   84SAPS  H20T 7963   2.724   6.624   8.747 -1.2280 -0.6328  0.3115
   84SAPS   C33 7964   3.225   6.895  10.077 -0.2747  0.0450  0.7303
   84SAPS   H3X 7965   3.279   6.799  10.093  1.0385  0.6750  0.3118
   84SAPS   H3Y 7966   3.283   6.942   9.994 -0.0192 -0.8154  0.4133
   84SAPS   C34 7967   3.081   6.874  10.039 -0.4991 -0.3181 -0.1840
   84SAPS   H4X 7968   3.020   6.966  10.022 -0.2392 -0.4858 -2.2921
   84SAPS   H4Y 7969   3.034   6.812  10.119  0.4864  1.1346  1.5963
   84SAPS   C35 7970   3.070   6.790   9.914  0.7543  1.2080  0.0692
   84SAPS   H5X 7971   3.123   6.694   9.929 -1.0916 -0.3168 -2.3749
   84SAPS   H5Y 7972   3.116   6.850   9.833 -1.3910 -2.5008 -4.3641
   84SAPS   C36 7973   2.922   6.761   9.867  0.1087  0.2063  0.6507
   84SAPS   H6X 7974   2.851   6.845   9.876  0.3450  0.2469  2.6141
   84SAPS   H6Y 7975   2.879   6.688   9.939 -1.2338 -2.1901 -2.3588
   84SAPS   C37 7976   2.905   6.696   9.727 -0.5958  0.1584 -0.2358
   84SAPS   H7X 7977   2.968   6.606   9.714 -1.0051 -0.0953 -0.5105
   84SAPS   H7Y 7978   2.935   6.769   9.650  0.6793 -0.9204 -0.7929
   84SAPS   C38 7979   2.754   6.671   9.691  0.0116 -0.3813 -0.3028
   84SAPS   H8X 7980   2.705   6.765   9.723  1.1818 -0.4171  1.7917
   84SAPS   H8Y 7981   2.724   6.578   9.745  2.1359 -0.1974  1.3519
   84SAPS   C39 7982   2.738   6.659   9.541 -0.4921 -0.4431 -0.1095
   84SAPS   H9X 7983   2.826   6.610   9.495 -0.7441 -0.3241 -0.7293
   84SAPS   H9Y 7984   2.755   6.761   9.500 -0.6837 -0.8252 -1.1674
   84SAPS  C310 7985   2.613   6.582   9.492  0.3468 -0.0622 -0.3284
   84SAPS  H10X 7986   2.531   6.627   9.552 -1.4083 -1.9247 -1.2491
   84SAPS  H10Y 7987   2.620   6.477   9.527  0.1351  0.5559  1.7486
   84SAPS  C311 7988   2.589   6.600   9.343 -0.1711 -0.6495 -0.1182
   84SAPS  H11X 7989   2.664   6.544   9.284 -2.1296  0.5257 -4.0594
   84SAPS  H11Y 7990   2.613   6.707   9.330  1.3660 -1.0572 -0.8869
   84SAPS  C312 7991   2.438   6.586   9.295 -0.4530 -0.0553 -0.7570
   84SAPS  H12X 7992   2.435   6.600   9.185  1.9721 -0.2850 -0.8977
   84SAPS  H12Y 7993   2.369   6.658   9.345  0.0401 -0.4818  0.5856
   84SAPS  C313 7994   2.381   6.446   9.337 -1.2032  0.0743  0.2677
   84SAPS  H13X 7995   2.365   6.449   9.447  0.6202  0.7385  0.5480
   84SAPS  H13Y 7996   2.464   6.376   9.313 -2.4204 -0.5494 -2.6147
   84SAPS  C314 7997   2.250   6.410   9.271  0.4063 -0.1824 -0.2074
   84SAPS  H14X 7998   2.245   6.299   9.265 -0.7667 -0.2415  1.3108
   84SAPS  H14Y 7999   2.254   6.442   9.165 -2.0635 -1.1439 -0.6762
   84SAPS  C315 8000   2.125   6.444   9.348  0.1592 -0.5578 -0.3815
   84SAPS  H15X 8001   2.129   6.551   9.377  1.5155 -0.2323 -1.6854
   84SAPS  H15Y 8002   2.131   6.390   9.445 -1.0654  0.4373  0.2819
   84SAPS  C316 8003   1.985   6.408   9.288  0.1989 -0.5338  0.2828
   84SAPS  H16X 8004   1.911   6.430   9.369  0.1468  1.3658 -0.2415
   84SAPS  H16Y 8005   1.996   6.298   9.283  0.8393 -0.5450  1.4590
   84SAPS  C317 8006   1.936   6.480   9.161 -0.2463  0.5186  0.2025
   84SAPS  H17X 8007   2.009   6.451   9.083  0.6771  2.5769  0.2423
   84SAPS  H17Y 8008   1.960   6.587   9.174  0.7097  0.2579  0.7145
   84SAPS  C318 8009   1.793   6.455   9.120 -1.0075  0.2165 -0.9005
   84SAPS  H18X 8010   1.754   6.530   9.048 -0.4435 -0.7877 -2.2996
   84SAPS  H18Y 8011   1.735   6.465   9.214  1.5036  2.2765  0.5585
   84SAPS  H18Z 8012   1.776   6.352   9.082 -0.1090 -1.0255  1.7739
   85SAPS     N 8013   5.823   1.855  10.801 -0.1086 -0.1655  0.5420
   85SAPS   HN1 8014   5.800   1.766  10.753  0.4280  0.2546 -0.5279
   85SAPS   HN2 8015   5.881   1.914  10.737 -0.2307 -0.5198  0.1019
   85SAPS   HN3 8016   5.876   1.848  10.890 -0.1671 -1.3344  0.4928
   85SAPS   C12 8017   5.690   1.918  10.834 -0.6374 -0.1234 -0.2898
   85SAPS  H12A 8018   5.648   1.852  10.909  2.0757 -1.3908  0.2481
   85SAPS   C13 8019   5.692   2.068  10.891 -0.1065  0.6372  0.1332
   85SAPS  O13A 8020   5.806   2.124  10.917 -0.4038 -0.9672 -0.2723
   85SAPS  O13B 8021   5.581   2.130  10.895  0.2960 -0.0114  0.6637
   85SAPS   C11 8022   5.580   1.908  10.721 -0.0146 -0.2805 -0.1230
   85SAPS  H11A 8023   5.616   1.965  10.633  0.1243  1.8260  1.2311
   85SAPS  H11B 8024   5.483   1.955  10.747  1.2523  1.9497  0.8596
   85SAPS     P 8025   5.466   1.730  10.567 -0.2463  0.1377  0.1630
   85SAPS   O13 8026   5.551   1.674  10.458 -0.2671  0.2792  0.3999
   85SAPS   O14 8027   5.366   1.638  10.630  0.3176 -0.1576 -0.5749
   85SAPS   O12 8028   5.562   1.773  10.689  0.2524  0.0808 -0.7316
   85SAPS   O11 8029   5.398   1.862  10.524 -0.2502 -0.3517  0.3567
   85SAPS    C1 8030   5.257   1.873  10.545 -0.1051 -0.4746  0.1531
   85SAPS    HA 8031   5.209   1.796  10.481  0.2235  0.1561 -0.8665
   85SAPS    HB 8032   5.229   1.865  10.652 -4.0495  0.8953 -0.6035
   85SAPS    C2 8033   5.215   2.005  10.484  0.0472  0.2263  0.2286
   85SAPS    HS 8034   5.104   2.014  10.489 -0.2800 -2.0973 -1.1829
   85SAPS   O21 8035   5.249   2.031  10.346 -0.1554  0.1506 -0.1240
   85SAPS   C21 8036   5.199   1.943  10.262 -0.1679  0.4364 -0.7208
   85SAPS   O22 8037   5.109   1.862  10.293 -0.3831 -0.2836  0.1925
   85SAPS   C22 8038   5.260   1.948  10.126 -0.6664 -0.9341  0.1052
   85SAPS   H2R 8039   5.235   2.042  10.071 -0.7590 -2.1469 -2.0213
   85SAPS   H2S 8040   5.370   1.949  10.140 -0.7019 -1.1968  0.4004
   85SAPS    C3 8041   5.275   2.117  10.571  0.2326  0.4940  0.0341
   85SAPS    HX 8042   5.386   2.125  10.568  0.0944  2.6138 -1.1343
   85SAPS    HY 8043   5.248   2.091  10.676 -0.2839  1.3528  0.1206
   85SAPS   O31 8044   5.225   2.248  10.546 -0.1519  0.4153 -0.1683
   85SAPS   C31 8045   5.100   2.263  10.565 -0.1700 -0.2084 -0.0093
   85SAPS   O32 8046   5.022   2.184  10.617 -0.0042 -0.1496 -0.0454
   85SAPS   C32 8047   5.055   2.399  10.522 -0.0651  1.1068 -0.5895
   85SAPS   H2X 8048   5.112   2.464  10.592  0.8198  0.4720 -0.7130
   85SAPS   H2Y 8049   4.948   2.420  10.545  0.0763  0.9278  0.2752
   85SAPS   C23 8050   5.203   1.834  10.036 -0.6311 -0.4699 -0.1869
   85SAPS   H3R 8051   5.093   1.839  10.051 -0.4821  2.1222  0.4986
   85SAPS   H3S 8052   5.241   1.736  10.071 -0.9613 -1.4029 -2.2710
   85SAPS   C24 8053   5.248   1.872   9.889 -0.2800  0.2251 -0.3678
   85SAPS   H4R 8054   5.358   1.867   9.880 -0.4277  0.3262 -3.2426
   85SAPS   H4S 8055   5.212   1.975   9.870  0.6536  0.5549 -0.3630
   85SAPS   C25 8056   5.179   1.767   9.804 -0.6220  0.1738  0.7830
   85SAPS   H5R 8057   5.085   1.725   9.842  0.0334 -0.7959  1.3740
   85SAPS   C26 8058   5.236   1.718   9.695  0.3289 -0.0614  0.5702
   85SAPS   H6R 8059   5.172   1.644   9.645 -0.4089  0.3758  0.8482
   85SAPS   C27 8060   5.366   1.763   9.640 -0.2405 -0.4561 -0.8048
   85SAPS   H7R 8061   5.442   1.739   9.718  0.0319 -0.0633 -0.9465
   85SAPS   H7S 8062   5.358   1.874   9.632  0.5614 -0.4585 -1.9054
   85SAPS   C28 8063   5.431   1.720   9.511  0.1849  0.4456  0.9200
   85SAPS   H8R 8064   5.540   1.712   9.522  0.0094 -2.4702  1.2386
   85SAPS   C29 8065   5.371   1.713   9.387 -0.2307 -0.1082  0.1334
   85SAPS   H9R 8066   5.440   1.681   9.308  0.0826  0.6092  0.1084
   85SAPS  C210 8067   5.228   1.735   9.348  0.3103  0.4709  0.9872
   85SAPS  H10R 8068   5.181   1.821   9.400 -2.7175 -0.3632 -0.1848
   85SAPS  H10S 8069   5.160   1.655   9.385 -0.0904  1.1736  1.8037
   85SAPS  C211 8070   5.195   1.756   9.202 -0.7069  0.1671  0.2513
   85SAPS  H11R 8071   5.269   1.827   9.162 -1.2467  2.2167  2.6277
   85SAPS  C212 8072   5.098   1.703   9.121 -0.3527  0.0582  0.0905
   85SAPS  H12R 8073   5.084   1.741   9.019  0.4298 -0.9129 -0.3929
   85SAPS  C213 8074   5.006   1.600   9.170 -0.0870  0.6985 -0.3131
   85SAPS  H13R 8075   5.031   1.570   9.274 -2.7345 -1.1090 -0.1149
   85SAPS  H13S 8076   5.009   1.514   9.099  2.4316  0.3957  0.0442
   85SAPS  C214 8077   4.866   1.650   9.205  0.2168 -0.3697 -0.1445
   85SAPS  H14R 8078   4.867   1.749   9.251  1.2671 -0.7210  0.6398
   85SAPS  C215 8079   4.746   1.595   9.173  0.4117  0.5510 -0.4010
   85SAPS  H15R 8080   4.661   1.657   9.203  1.3061  1.6394 -0.0498
   85SAPS  C216 8081   4.724   1.460   9.106  0.4042 -0.1486 -0.3817
   85SAPS  H16R 8082   4.822   1.412   9.082  1.1371  1.3550 -0.5036
   85SAPS  H16S 8083   4.669   1.483   9.013 -0.2673  1.3698  0.3605
   85SAPS  C217 8084   4.644   1.361   9.188  0.1106  0.6823 -0.2278
   85SAPS  H17R 8085   4.684   1.363   9.291  0.4865 -0.1896 -0.3539
   85SAPS  H17S 8086   4.648   1.259   9.144  2.2456  0.1747  1.0354
   85SAPS  C218 8087   4.494   1.403   9.194  0.5674 -0.2202 -0.0372
   85SAPS  H18R 8088   4.458   1.463   9.108 -1.8013 -0.6630  0.5603
   85SAPS  H18S 8089   4.493   1.495   9.257 -0.7321  0.0280 -0.3956
   85SAPS  C219 8090   4.391   1.300   9.241 -0.5632 -0.2584 -0.0455
   85SAPS  H19R 8091   4.384   1.222   9.162 -0.2631 -1.4754  1.0879
   85SAPS  H19S 8092   4.290   1.347   9.238 -0.5666 -0.2893 -0.3926
   85SAPS  C220 8093   4.429   1.225   9.373 -0.2364 -0.0994 -0.0895
   85SAPS  H20R 8094   4.421   1.283   9.467 -1.2974  1.6549 -1.1915
   85SAPS  H20S 8095   4.535   1.196   9.359 -0.1990  0.7393 -1.8518
   85SAPS  H20T 8096   4.364   1.135   9.379  0.5560 -0.6646  0.1908
   85SAPS   C33 8097   5.087   2.435  10.371  0.0999 -0.6852  0.1255
   85SAPS   H3X 8098   5.195   2.413  10.357 -0.2239 -1.0181 -2.2522
   85SAPS   H3Y 8099   5.064   2.541  10.351 -1.1869 -1.1396 -0.9399
   85SAPS   C34 8100   5.018   2.345  10.265  0.2820  0.0900 -0.6739
   85SAPS   H4X 8101   4.910   2.332  10.286  0.5780 -1.5018 -0.0310
   85SAPS   H4Y 8102   5.058   2.242  10.269 -0.9405 -0.4088 -0.8513
   85SAPS   C35 8103   5.027   2.392  10.120 -0.4854 -0.0299 -0.3609
   85SAPS   H5X 8104   4.997   2.499  10.119 -0.5471 -0.0336  0.4240
   85SAPS   H5Y 8105   4.959   2.332  10.057 -1.2833  0.6017 -0.1290
   85SAPS   C36 8106   5.174   2.394  10.073  0.4493  0.5336 -0.5397
   85SAPS   H6X 8107   5.219   2.296  10.101 -1.4581  0.1816  1.4685
   85SAPS   H6Y 8108   5.224   2.483  10.116 -1.0847  0.7145  0.9625
   85SAPS   C37 8109   5.194   2.398   9.920  0.4693  0.7243  0.1117
   85SAPS   H7X 8110   5.302   2.414   9.904  0.9132 -2.3737 -0.5240
   85SAPS   H7Y 8111   5.144   2.486   9.873 -0.7554  0.9539  1.7087
   85SAPS   C38 8112   5.147   2.277   9.850  0.2050 -0.1655  0.6627
   85SAPS   H8X 8113   5.037   2.269   9.865 -0.0385  0.7713 -0.4997
   85SAPS   H8Y 8114   5.199   2.191   9.897  1.6654  0.8470  0.9561
   85SAPS   C39 8115   5.178   2.281   9.690 -0.7599 -0.2361  0.2271
   85SAPS   H9X 8116   5.279   2.312   9.657 -0.2698 -0.7196  1.2662
   85SAPS   H9Y 8117   5.100   2.351   9.652 -1.7934 -1.0692  0.7517
   85SAPS  C310 8118   5.157   2.140   9.626 -0.1193 -0.0935  0.4135
   85SAPS  H10X 8119   5.082   2.095   9.694 -2.4588 -1.0858 -2.5970
   85SAPS  H10Y 8120   5.248   2.077   9.632 -0.1254 -0.2205 -0.6608
   85SAPS  C311 8121   5.109   2.139   9.479 -0.2048  0.0128  0.4040
   85SAPS  H11X 8122   5.024   2.210   9.465  0.1599  0.1306 -1.4612
   85SAPS  H11Y 8123   5.086   2.035   9.447  1.1689  0.3090 -1.7156
   85SAPS  C312 8124   5.217   2.189   9.382  0.4106 -0.3222  0.3656
   85SAPS  H12X 8125   5.317   2.144   9.400  0.5936 -0.3736 -0.6994
   85SAPS  H12Y 8126   5.226   2.299   9.374 -1.1655 -0.2957 -2.3227
   85SAPS  C313 8127   5.175   2.172   9.244 -0.7666 -0.0556  0.1618
   85SAPS  H13X 8128   5.097   2.243   9.211  0.5295  0.7802 -1.2419
   85SAPS  H13Y 8129   5.146   2.067   9.222  1.0689 -0.4681 -0.5369
   85SAPS  C314 8130   5.287   2.180   9.144  0.0109 -0.6542  0.2927
   85SAPS  H14X 8131   5.358   2.096   9.156  0.3473 -0.1891  1.7374
   85SAPS  H14Y 8132   5.345   2.275   9.154  0.3135 -0.6931 -0.8749
   85SAPS  C315 8133   5.230   2.171   9.008 -0.2845 -0.6894 -0.2538
   85SAPS  H15X 8134   5.150   2.246   8.995  0.4917 -0.2408 -2.8385
   85SAPS  H15Y 8135   5.174   2.075   9.003  2.1110 -2.1727 -0.5077
   85SAPS  C316 8136   5.346   2.170   8.906  0.7472  0.0604  0.3448
   85SAPS  H16X 8137   5.419   2.091   8.931 -0.1622 -0.2366  2.2389
   85SAPS  H16Y 8138   5.401   2.266   8.923  3.3444 -1.5176  1.4027
   85SAPS  C317 8139   5.292   2.154   8.762 -0.0271 -0.2329  0.3126
   85SAPS  H17X 8140   5.249   2.250   8.725 -0.3598 -1.0278 -1.4673
   85SAPS  H17Y 8141   5.226   2.065   8.757  1.6535 -1.4713 -0.6382
   85SAPS  C318 8142   5.407   2.123   8.663  0.6221 -0.0797  0.4066
   85SAPS  H18X 8143   5.452   2.217   8.625 -3.4669  1.1639 -1.9810
   85SAPS  H18Y 8144   5.355   2.078   8.575  0.8919  0.0020  0.2058
   85SAPS  H18Z 8145   5.480   2.045   8.696 -1.3928 -1.8842  0.8595
   86SAPS     N 8146   1.653   2.267  10.511 -0.1608 -0.3663 -0.1938
   86SAPS   HN1 8147   1.709   2.201  10.453  0.3874  2.7773 -3.6268
   86SAPS   HN2 8148   1.566   2.218  10.540 -0.1785  0.9617  2.2669
   86SAPS   HN3 8149   1.643   2.338  10.437  2.5167  0.4126  0.0777
   86SAPS   C12 8150   1.728   2.325  10.624 -0.4055 -0.2750 -0.7914
   86SAPS  H12A 8151   1.665   2.395  10.677  0.6907  1.4578 -1.6714
   86SAPS   C13 8152   1.769   2.215  10.725 -0.3049  0.2788  0.5044
   86SAPS  O13A 8153   1.744   2.094  10.696  0.3488  0.2937 -0.1229
   86SAPS  O13B 8154   1.770   2.251  10.845 -0.7043  0.4470  0.0636
   86SAPS   C11 8155   1.858   2.401  10.585 -1.0867 -0.2324  0.5310
   86SAPS  H11A 8156   1.942   2.335  10.558 -1.9361 -2.2754  2.5220
   86SAPS  H11B 8157   1.897   2.458  10.672  0.0265  1.4233 -0.9882
   86SAPS     P 8158   1.916   2.600  10.427  0.1082  0.2705  0.2788
   86SAPS   O13 8159   1.831   2.712  10.399 -0.2669  0.0433  0.9853
   86SAPS   O14 8160   2.029   2.617  10.521  0.2813  0.1947  0.1338
   86SAPS   O12 8161   1.825   2.488  10.477  0.0389  0.0467  0.0425
   86SAPS   O11 8162   1.977   2.543  10.301 -0.0323  0.1654  0.1091
   86SAPS    C1 8163   1.921   2.543  10.169  0.3118 -0.0260  0.2751
   86SAPS    HA 8164   1.873   2.639  10.139  0.5086  1.2107  3.5753
   86SAPS    HB 8165   2.004   2.527  10.096 -0.6234  1.9172 -1.3572
   86SAPS    C2 8166   1.823   2.422  10.149 -0.5812 -0.2838  0.4270
   86SAPS    HS 8167   1.736   2.434  10.217 -0.3909 -1.0026  0.8063
   86SAPS   O21 8168   1.900   2.300  10.175 -0.0076 -0.4960  0.3839
   86SAPS   C21 8169   1.844   2.193  10.201  0.4878  0.1142 -0.2354
   86SAPS   O22 8170   1.733   2.176  10.249 -0.0502  0.4781  0.5177
   86SAPS   C22 8171   1.947   2.078  10.188 -0.3447  0.0116 -0.1471
   86SAPS   H2R 8172   2.005   2.097  10.095  1.5044 -1.2344  0.6805
   86SAPS   H2S 8173   2.013   2.081  10.277  0.2476  1.2673 -0.6165
   86SAPS    C3 8174   1.763   2.428  10.000  0.1049  0.2922  0.3467
   86SAPS    HX 8175   1.703   2.521   9.988  0.9081  0.5133 -2.7256
   86SAPS    HY 8176   1.693   2.343   9.988 -0.7468  1.2065 -1.6691
   86SAPS   O31 8177   1.866   2.441   9.899  0.4688 -1.1491  0.3433
   86SAPS   C31 8178   1.927   2.332   9.859 -0.1189 -0.3266 -0.3285
   86SAPS   O32 8179   1.887   2.220   9.882 -0.4449  0.8140 -0.0909
   86SAPS   C32 8180   2.048   2.380   9.780  0.6664 -0.1291 -0.4941
   86SAPS   H2X 8181   2.118   2.395   9.866 -0.4846 -1.8575  0.7972
   86SAPS   H2Y 8182   2.015   2.472   9.728 -2.0482 -0.7105  0.0897
   86SAPS   C23 8183   1.879   1.940  10.172  0.4061 -0.4463  0.0370
   86SAPS   H3R 8184   1.818   1.907  10.258 -1.9126 -0.7361 -1.6170
   86SAPS   H3S 8185   1.957   1.864  10.151  1.4263  1.0968 -2.2498
   86SAPS   C24 8186   1.793   1.918  10.049 -0.8676  0.8978  0.2777
   86SAPS   H4R 8187   1.820   1.987   9.966 -1.5537  1.4275  0.4946
   86SAPS   H4S 8188   1.688   1.941  10.075 -1.0532 -0.1095  0.4582
   86SAPS   C25 8189   1.791   1.778   9.994  0.2878 -0.3549 -0.4114
   86SAPS   H5R 8190   1.799   1.703  10.075  0.4954  1.1028  0.9801
   86SAPS   C26 8191   1.778   1.736   9.871 -0.1778 -0.8837  0.6549
   86SAPS   H6R 8192   1.767   1.627   9.859 -2.6288 -0.3846 -3.2199
   86SAPS   C27 8193   1.758   1.819   9.740 -0.5812  0.3808 -0.1206
   86SAPS   H7R 8194   1.685   1.902   9.755 -0.6867  0.3752 -0.5807
   86SAPS   H7S 8195   1.729   1.746   9.662  0.8533 -1.2462  0.7955
   86SAPS   C28 8196   1.881   1.902   9.704  0.5915 -0.6547 -0.3639
   86SAPS   H8R 8197   1.937   1.957   9.781 -3.2719  2.0283  0.8276
   86SAPS   C29 8198   1.930   1.923   9.581 -0.6220  0.6548  0.3722
   86SAPS   H9R 8199   2.013   1.989   9.552 -0.0455 -0.9447 -1.8898
   86SAPS  C210 8200   1.883   1.872   9.444  0.0349 -0.0103 -0.5200
   86SAPS  H10R 8201   1.788   1.814   9.447 -0.4751  0.8066 -0.4963
   86SAPS  H10S 8202   1.957   1.801   9.401 -0.4411 -2.0699  1.8665
   86SAPS  C211 8203   1.862   1.985   9.347  0.7653  0.1245 -0.5699
   86SAPS  H11R 8204   1.778   2.052   9.372 -1.0795 -2.4882  0.7234
   86SAPS  C212 8205   1.929   2.000   9.233  0.4123  0.4321  0.3640
   86SAPS  H12R 8206   1.906   2.085   9.168 -0.1443 -1.1378 -1.5838
   86SAPS  C213 8207   2.021   1.908   9.158 -0.1348 -0.8907  0.0683
   86SAPS  H13R 8208   1.974   1.809   9.136  0.5848 -1.0079 -1.0835
   86SAPS  H13S 8209   2.105   1.888   9.228 -0.7896  3.2603  2.3725
   86SAPS  C214 8210   2.080   1.957   9.029 -0.8400  0.1654  0.1211
   86SAPS  H14R 8211   2.187   1.983   9.036 -0.9438  0.1789  2.0364
   86SAPS  C215 8212   2.020   1.995   8.914 -0.7945 -0.3994 -0.2577
   86SAPS  H15R 8213   2.077   2.033   8.828 -3.0038 -0.5772 -1.8856
   86SAPS  C216 8214   1.875   1.973   8.881 -0.5991  0.7516  0.1796
   86SAPS  H16R 8215   1.832   1.903   8.956 -1.1716 -1.4542 -2.0856
   86SAPS  H16S 8216   1.883   1.916   8.787  2.1200 -1.1698  1.4326
   86SAPS  C217 8217   1.796   2.101   8.863 -0.4444 -0.3986  0.2584
   86SAPS  H17R 8218   1.828   2.161   8.950  0.2450 -1.1775  0.5593
   86SAPS  H17S 8219   1.688   2.081   8.883 -1.4329  3.1471 -0.7859
   86SAPS  C218 8220   1.814   2.175   8.722  0.4029  0.0277 -0.4028
   86SAPS  H18R 8221   1.768   2.098   8.656  0.7456 -2.6612  2.2602
   86SAPS  H18S 8222   1.923   2.178   8.698 -0.2089 -0.1317 -3.7439
   86SAPS  C219 8223   1.757   2.323   8.697  0.2106 -0.3741 -0.3914
   86SAPS  H19R 8224   1.791   2.403   8.766 -1.2544 -1.1135  1.2610
   86SAPS  H19S 8225   1.647   2.314   8.710  0.0132  3.0618  1.4827
   86SAPS  C220 8226   1.791   2.354   8.550 -0.3679 -0.4477  0.4748
   86SAPS  H20R 8227   1.890   2.404   8.540 -1.0996  0.5896 -3.0075
   86SAPS  H20S 8228   1.715   2.409   8.491 -0.1332 -1.0892 -0.4599
   86SAPS  H20T 8229   1.807   2.258   8.495  1.4513  1.3161 -2.3767
   86SAPS   C33 8230   2.101   2.271   9.687 -0.1068  0.1996 -0.2231
   86SAPS   H3X 8231   2.102   2.179   9.750  0.4461 -0.2724 -0.9042
   86SAPS   H3Y 8232   2.209   2.289   9.667  0.0636  1.1032  1.3591
   86SAPS   C34 8233   2.029   2.257   9.554  0.3519 -0.4299 -0.7519
   86SAPS   H4X 8234   1.922   2.232   9.566  0.1598  1.2253  1.8953
   86SAPS   H4Y 8235   2.087   2.185   9.493 -0.1894  0.8568 -2.8955
   86SAPS   C35 8236   2.028   2.379   9.470 -0.1207  0.0022 -0.4001
   86SAPS   H5X 8237   2.125   2.433   9.467 -0.2641  0.4029  1.0622
   86SAPS   H5Y 8238   1.955   2.448   9.517 -0.1641 -1.8563  2.5051
   86SAPS   C36 8239   1.992   2.346   9.324 -0.9306  0.0471  0.2275
   86SAPS   H6X 8240   1.943   2.437   9.284  3.0553  0.9561 -3.2579
   86SAPS   H6Y 8241   1.927   2.257   9.309 -1.7217  0.8023 -0.9803
   86SAPS   C37 8242   2.117   2.314   9.234  0.0884  0.1076 -0.9343
   86SAPS   H7X 8243   2.079   2.242   9.159 -1.4311 -0.2417  0.1309
   86SAPS   H7Y 8244   2.197   2.262   9.290 -1.7705 -0.5109  1.2919
   86SAPS   C38 8245   2.170   2.429   9.145 -0.4883  0.0301  0.0402
   86SAPS   H8X 8246   2.263   2.382   9.104 -0.8115 -1.5048  0.9730
   86SAPS   H8Y 8247   2.200   2.516   9.207 -1.4758  0.7618 -0.4723
   86SAPS   C39 8248   2.061   2.460   9.043 -0.5174 -0.2702  0.6951
   86SAPS   H9X 8249   1.979   2.523   9.084 -0.7831 -1.4693  2.1002
   86SAPS   H9Y 8250   2.008   2.364   9.022  0.5763 -1.0794  1.5422
   86SAPS  C310 8251   2.135   2.513   8.920  0.1139  0.5196  0.6008
   86SAPS  H10X 8252   2.215   2.583   8.951  0.9092 -1.1379  2.4864
   86SAPS  H10Y 8253   2.057   2.572   8.867  1.5823 -0.2326 -2.6908
   86SAPS  C311 8254   2.194   2.393   8.833  1.1090  0.1364 -0.4869
   86SAPS  H11X 8255   2.106   2.329   8.808 -0.8104  1.6987  1.8215
   86SAPS  H11Y 8256   2.257   2.326   8.895  2.1543 -0.0242 -1.6797
   86SAPS  C312 8257   2.269   2.437   8.709 -0.1232  0.2739  0.9272
   86SAPS  H12X 8258   2.360   2.488   8.748  0.3509 -1.3497  2.0620
   86SAPS  H12Y 8259   2.206   2.494   8.638 -0.4623  0.5789  1.4707
   86SAPS  C313 8260   2.313   2.321   8.611 -0.3214  0.3873 -0.2645
   86SAPS  H13X 8261   2.350   2.234   8.670 -0.0975  0.6447 -0.0257
   86SAPS  H13Y 8262   2.393   2.356   8.543  2.4315  0.3292  2.6800
   86SAPS  C314 8263   2.202   2.236   8.541 -0.3143  0.5054  0.7338
   86SAPS  H14X 8264   2.147   2.300   8.469  1.4464  0.1573 -0.9971
   86SAPS  H14Y 8265   2.128   2.203   8.618  0.1296  0.5127  1.1689
   86SAPS  C315 8266   2.250   2.116   8.451 -0.4086 -0.2986  0.3436
   86SAPS  H15X 8267   2.351   2.149   8.418 -0.0093 -0.4095  1.4087
   86SAPS  H15Y 8268   2.188   2.109   8.360 -0.1221  0.0711  0.1167
   86SAPS  C316 8269   2.249   1.980   8.513  0.7844 -0.2420 -0.3248
   86SAPS  H16X 8270   2.281   1.966   8.619 -1.3243  0.3125  0.4448
   86SAPS  H16Y 8271   2.314   1.914   8.451  0.9624  0.5590 -1.0044
   86SAPS  C317 8272   2.113   1.917   8.513 -0.2628 -0.2821  0.1814
   86SAPS  H17X 8273   2.065   1.901   8.413  0.5755  0.8425 -0.4230
   86SAPS  H17Y 8274   2.039   1.979   8.568  0.2755 -1.3257  2.1443
   86SAPS  C318 8275   2.109   1.778   8.573 -0.4469 -0.0874 -0.0946
   86SAPS  H18X 8276   2.134   1.790   8.680  2.6065  0.7054 -0.7892
   86SAPS  H18Y 8277   2.177   1.702   8.527 -0.7232 -0.0134 -0.6362
   86SAPS  H18Z 8278   2.005   1.739   8.575 -1.6637  2.9657  0.4804
   87SAPS     N 8279   1.511   1.934  10.679  0.3629  0.0558 -0.0960
   87SAPS   HN1 8280   1.588   2.002  10.696  0.0556  0.5292 -0.5617
   87SAPS   HN2 8281   1.524   1.835  10.708 -1.7828 -0.1867  0.2616
   87SAPS   HN3 8282   1.501   1.935  10.575 -1.9184 -1.3685  0.0251
   87SAPS   C12 8283   1.380   1.983  10.737 -0.2128  0.0981  0.5305
   87SAPS  H12A 8284   1.409   1.996  10.840 -0.0338  0.9158  0.3853
   87SAPS   C13 8285   1.339   2.116  10.680 -0.4268  0.0515 -0.2715
   87SAPS  O13A 8286   1.416   2.173  10.593 -0.1896 -0.7840 -0.3945
   87SAPS  O13B 8287   1.227   2.167  10.704 -0.3202  0.4766  0.5015
   87SAPS   C11 8288   1.273   1.876  10.722  0.1164 -0.0150 -0.1629
   87SAPS  H11A 8289   1.258   1.878  10.612  1.7414 -1.6373 -0.4442
   87SAPS  H11B 8290   1.174   1.907  10.763  1.5459  0.3893  3.2462
   87SAPS     P 8291   1.319   1.627  10.677 -0.3160 -0.0637  0.1717
   87SAPS   O13 8292   1.357   1.499  10.750 -0.0266  0.0747  0.5454
   87SAPS   O14 8293   1.191   1.625  10.600 -0.6132  0.3227  0.0607
   87SAPS   O12 8294   1.298   1.752  10.776 -0.1128  0.1385 -0.5444
   87SAPS   O11 8295   1.455   1.672  10.591  0.4643  0.3387  0.8144
   87SAPS    C1 8296   1.484   1.577  10.486  0.2709  0.2426  0.1218
   87SAPS    HA 8297   1.517   1.476  10.520  0.7366 -0.6477 -2.6397
   87SAPS    HB 8298   1.402   1.558  10.414  0.2089  0.4066  0.1487
   87SAPS    C2 8299   1.608   1.626  10.407 -0.0643 -0.5336  0.3548
   87SAPS    HS 8300   1.673   1.667  10.487 -1.7546  0.3991  1.3066
   87SAPS   O21 8301   1.574   1.716  10.302 -0.2852 -0.3974  0.6975
   87SAPS   C21 8302   1.560   1.849  10.322 -0.1798  0.5918  0.2013
   87SAPS   O22 8303   1.595   1.912  10.421  0.3978  0.2072  0.0332
   87SAPS   C22 8304   1.474   1.902  10.205  0.1013 -0.7559 -0.2967
   87SAPS   H2R 8305   1.500   2.009  10.191 -0.3351 -0.0506  3.3035
   87SAPS   H2S 8306   1.488   1.831  10.122  0.4177  1.5100 -2.2905
   87SAPS    C3 8307   1.677   1.501  10.355 -0.2925  0.6424  0.3813
   87SAPS    HX 8308   1.601   1.456  10.287 -1.5938  0.0398  2.1509
   87SAPS    HY 8309   1.689   1.433  10.442 -0.4313 -0.7444 -0.6422
   87SAPS   O31 8310   1.805   1.535  10.285 -0.3028  0.2100  0.3197
   87SAPS   C31 8311   1.877   1.437  10.243 -0.0865  0.3623  0.4041
   87SAPS   O32 8312   1.851   1.319  10.271 -0.1413 -0.6351 -0.1922
   87SAPS   C32 8313   1.986   1.484  10.144  0.1859  0.4571  0.4226
   87SAPS   H2X 8314   2.050   1.558  10.197  1.5618  1.4602 -2.4579
   87SAPS   H2Y 8315   1.947   1.520  10.047  1.7261 -1.4049 -0.9609
   87SAPS   C23 8316   1.327   1.906  10.253  0.7454 -0.2054  0.5796
   87SAPS   H3R 8317   1.306   1.933  10.359  0.4013  2.6691 -0.1555
   87SAPS   H3S 8318   1.299   1.798  10.253 -2.0081  0.3524 -2.7488
   87SAPS   C24 8319   1.233   1.988  10.169 -0.8637 -0.0234 -0.0362
   87SAPS   H4R 8320   1.126   1.969  10.193  0.0261 -1.3135  3.4068
   87SAPS   H4S 8321   1.245   1.941  10.068  0.5609  1.3487 -0.5429
   87SAPS   C25 8322   1.258   2.132  10.158 -1.0639 -0.0831  0.3292
   87SAPS   H5R 8323   1.242   2.184  10.254 -2.3599  0.7462 -0.3108
   87SAPS   C26 8324   1.318   2.198  10.059 -0.0216 -0.5355 -0.1735
   87SAPS   H6R 8325   1.324   2.305  10.083 -0.5925 -0.3039 -1.0421
   87SAPS   C27 8326   1.365   2.155   9.926 -0.5125 -0.3094 -0.0466
   87SAPS   H7R 8327   1.329   2.230   9.852 -1.1011  0.0823  0.6271
   87SAPS   H7S 8328   1.309   2.065   9.893  1.0274 -0.8493 -1.3263
   87SAPS   C28 8329   1.513   2.140   9.908 -1.0329 -0.6888 -1.4366
   87SAPS   H8R 8330   1.572   2.100   9.992 -2.1799  0.2692 -0.1187
   87SAPS   C29 8331   1.590   2.160   9.797 -0.6652  0.0364 -0.6581
   87SAPS   H9R 8332   1.697   2.133   9.793 -1.1860 -2.3771  0.0513
   87SAPS  C210 8333   1.533   2.210   9.668 -0.2173 -0.2593 -0.4052
   87SAPS  H10R 8334   1.431   2.254   9.675 -1.1630 -2.1570 -1.5333
   87SAPS  H10S 8335   1.510   2.118   9.610  0.5060 -0.8182  0.1741
   87SAPS  C211 8336   1.636   2.294   9.598  0.4185 -0.4365 -0.4487
   87SAPS  H11R 8337   1.716   2.325   9.667  0.0906  0.1341 -0.3122
   87SAPS  C212 8338   1.629   2.357   9.477 -0.5047  0.4612  0.0253
   87SAPS  H12R 8339   1.716   2.414   9.440 -1.0598 -0.6059 -3.2033
   87SAPS  C213 8340   1.518   2.342   9.376 -0.2454 -1.0289  0.0268
   87SAPS  H13R 8341   1.507   2.439   9.323  0.7509 -1.0917 -0.3175
   87SAPS  H13S 8342   1.420   2.332   9.427 -0.3504  2.8087  0.9330
   87SAPS  C214 8343   1.552   2.242   9.269 -0.1591  0.5099 -0.6094
   87SAPS  H14R 8344   1.560   2.134   9.289  0.4456 -0.3320 -4.4744
   87SAPS  C215 8345   1.561   2.273   9.141 -0.3435 -0.0833  0.4653
   87SAPS  H15R 8346   1.577   2.187   9.074  1.8101 -0.7966  1.7686
   87SAPS  C216 8347   1.546   2.409   9.075  0.4619 -0.0942 -0.2310
   87SAPS  H16R 8348   1.469   2.474   9.122  1.2379  0.2955  0.5373
   87SAPS  H16S 8349   1.509   2.386   8.973  1.2752 -0.3881 -0.4623
   87SAPS  C217 8350   1.684   2.485   9.069 -0.7670 -0.5437 -0.6858
   87SAPS  H17R 8351   1.762   2.429   9.013  0.2408 -1.1730  1.2634
   87SAPS  H17S 8352   1.727   2.506   9.169 -1.6123  0.0513 -0.4368
   87SAPS  C218 8353   1.668   2.624   9.002  0.2008  0.0004  0.0407
   87SAPS  H18R 8354   1.639   2.602   8.897 -1.8118  2.7463 -0.0939
   87SAPS  H18S 8355   1.764   2.676   8.988 -0.9584  2.5733  1.0336
   87SAPS  C219 8356   1.577   2.725   9.073 -0.4178  0.0039 -0.1985
   87SAPS  H19R 8357   1.473   2.697   9.046  0.1232 -2.2073 -0.1567
   87SAPS  H19S 8358   1.609   2.818   9.022  3.1445 -0.6778  0.5410
   87SAPS  C220 8359   1.592   2.747   9.225  0.5158  0.1492  0.6626
   87SAPS  H20R 8360   1.697   2.772   9.252  0.5930  1.6211 -0.8172
   87SAPS  H20S 8361   1.541   2.667   9.283  0.4461 -0.2340  0.0830
   87SAPS  H20T 8362   1.535   2.838   9.252 -2.0592 -0.9431 -0.8072
   87SAPS   C33 8363   2.084   1.370  10.104  0.3532  0.3480  0.5459
   87SAPS   H3X 8364   2.025   1.289  10.058  0.6680  0.0994  0.5756
   87SAPS   H3Y 8365   2.136   1.335  10.196  0.9259 -1.2962 -0.3700
   87SAPS   C34 8366   2.185   1.413  10.000 -0.4583 -0.0819 -0.3760
   87SAPS   H4X 8367   2.270   1.341   9.995 -0.6922 -0.3477 -0.5590
   87SAPS   H4Y 8368   2.233   1.510  10.023 -0.3100  0.0015 -1.0115
   87SAPS   C35 8369   2.143   1.404   9.857 -0.4479  0.2665  0.3057
   87SAPS   H5X 8370   2.056   1.472   9.843  1.0120  1.8026 -1.8366
   87SAPS   H5Y 8371   2.102   1.306   9.826 -0.4076 -0.0104  1.1067
   87SAPS   C36 8372   2.250   1.446   9.756  0.2636 -0.4387 -0.1931
   87SAPS   H6X 8373   2.338   1.380   9.740 -0.0736 -0.6988 -1.0318
   87SAPS   H6Y 8374   2.295   1.542   9.789  2.8526 -2.3637  2.4543
   87SAPS   C37 8375   2.187   1.448   9.616  1.1730  0.0465  0.3753
   87SAPS   H7X 8376   2.113   1.531   9.610 -0.4498 -1.2028  2.0432
   87SAPS   H7Y 8377   2.125   1.360   9.590  1.7083 -0.0635 -0.5655
   87SAPS   C38 8378   2.297   1.461   9.511 -0.4923  0.1116 -0.0625
   87SAPS   H8X 8379   2.361   1.370   9.504  0.6888  0.9852 -1.1793
   87SAPS   H8Y 8380   2.370   1.544   9.521  1.9648 -1.6397 -2.0216
   87SAPS   C39 8381   2.233   1.485   9.368 -0.2342  0.4282  0.1055
   87SAPS   H9X 8382   2.164   1.572   9.378  1.1518  1.5724 -0.0189
   87SAPS   H9Y 8383   2.184   1.392   9.332 -0.5048  0.8059 -0.5186
   87SAPS  C310 8384   2.335   1.520   9.258  0.5687  0.7137  0.6643
   87SAPS  H10X 8385   2.423   1.453   9.244  2.0403  2.4922  1.0088
   87SAPS  H10Y 8386   2.386   1.617   9.278  0.1303  1.1202 -0.1254
   87SAPS  C311 8387   2.272   1.537   9.122 -0.0709 -0.2080 -0.1920
   87SAPS  H11X 8388   2.190   1.607   9.151 -1.4862 -1.9593  0.1650
   87SAPS  H11Y 8389   2.222   1.442   9.093 -0.6476 -1.0350  3.0684
   87SAPS  C312 8390   2.370   1.586   9.023  0.8137  0.4179  0.6429
   87SAPS  H12X 8391   2.441   1.504   9.000 -1.3267 -1.4664  0.5279
   87SAPS  H12Y 8392   2.424   1.662   9.084 -1.2000  0.7793  2.0741
   87SAPS  C313 8393   2.305   1.656   8.900  0.1328 -0.6143  0.0093
   87SAPS  H13X 8394   2.263   1.750   8.941 -0.3834 -1.2140  0.8822
   87SAPS  H13Y 8395   2.227   1.592   8.853 -0.9142  1.1396 -0.7182
   87SAPS  C314 8396   2.408   1.690   8.793 -0.2643  0.0915  0.4025
   87SAPS  H14X 8397   2.466   1.777   8.831 -1.0604  0.7263  0.2117
   87SAPS  H14Y 8398   2.364   1.734   8.700  1.5722  1.0276 -0.0770
   87SAPS  C315 8399   2.507   1.582   8.756  0.4240 -0.0883 -0.2276
   87SAPS  H15X 8400   2.560   1.571   8.853  1.7045 -0.0477 -0.8965
   87SAPS  H15Y 8401   2.580   1.601   8.674 -1.0673 -0.7892 -1.7786
   87SAPS  C316 8402   2.439   1.448   8.712  0.9284  0.5985  0.0860
   87SAPS  H16X 8403   2.377   1.408   8.796 -0.4379 -0.5156 -1.3915
   87SAPS  H16Y 8404   2.523   1.378   8.688 -0.1419 -0.0667 -1.9124
   87SAPS  C317 8405   2.348   1.454   8.590 -0.4530  0.5452  0.0231
   87SAPS  H17X 8406   2.259   1.517   8.607  0.3683  2.0414 -0.9705
   87SAPS  H17Y 8407   2.323   1.354   8.548  2.1517 -0.4271  0.5831
   87SAPS  C318 8408   2.418   1.537   8.481  0.2441  0.1177  0.6862
   87SAPS  H18X 8409   2.365   1.519   8.384 -1.2027 -0.0340  1.4728
   87SAPS  H18Y 8410   2.526   1.513   8.473  0.0128 -2.5490  3.7602
   87SAPS  H18Z 8411   2.411   1.646   8.501 -0.8563  0.2217 -0.1093
   88SAPS     N 8412   5.329   6.209  10.733 -0.3889 -0.8688  0.3817
   88SAPS   HN1 8413   5.325   6.285  10.803 -0.5602 -1.7220  1.3143
   88SAPS   HN2 8414   5.232   6.213  10.695 -0.7066  1.4054  1.2695
   88SAPS   HN3 8415   5.343   6.118  10.782  1.2169 -0.7866  0.1234
   88SAPS   C12 8416   5.442   6.249  10.644  0.0191  0.1149 -0.4699
   88SAPS  H12A 8417   5.421   6.341  10.592  0.9964  0.9441  0.5620
   88SAPS   C13 8418   5.568   6.276  10.732 -0.0188  0.1985 -0.0653
   88SAPS  O13A 8419   5.560   6.267  10.853  0.3435  0.0458 -0.6158
   88SAPS  O13B 8420   5.670   6.317  10.675 -0.4720  0.0098  0.1103
   88SAPS   C11 8421   5.470   6.129  10.557  0.1057  0.6644  0.2514
   88SAPS  H11A 8422   5.513   6.044  10.613 -1.6981 -1.4564 -1.4105
   88SAPS  H11B 8423   5.546   6.168  10.485  1.2937 -1.3029  0.3714
   88SAPS     P 8424   5.364   5.992  10.354  0.2615 -0.1015 -0.4886
   88SAPS   O13 8425   5.447   5.870  10.379 -0.0698 -0.6453  0.0332
   88SAPS   O14 8426   5.224   5.968  10.311 -0.4561  0.9214  0.2883
   88SAPS   O12 8427   5.352   6.086  10.488 -0.1517  0.1356  0.3309
   88SAPS   O11 8428   5.437   6.077  10.243  0.0808 -0.1269 -0.0492
   88SAPS    C1 8429   5.390   6.216  10.227 -0.4092 -0.0324 -0.6061
   88SAPS    HA 8430   5.312   6.243  10.301  2.0687 -1.1211  2.6161
   88SAPS    HB 8431   5.479   6.281  10.242  0.0008 -0.5423 -0.8066
   88SAPS    C2 8432   5.331   6.240  10.088  0.0415 -0.1018  0.3089
   88SAPS    HS 8433   5.235   6.185  10.094 -0.2138  0.2782 -0.1315
   88SAPS   O21 8434   5.424   6.175   9.997 -0.2804 -0.3062  0.1284
   88SAPS   C21 8435   5.363   6.097   9.913  0.3782  0.3413  0.2157
   88SAPS   O22 8436   5.242   6.073   9.907 -0.3025 -0.2101 -0.4405
   88SAPS   C22 8437   5.471   6.015   9.843 -0.4538 -0.1364  0.4641
   88SAPS   H2R 8438   5.571   6.044   9.881 -0.6345 -0.3552  1.1021
   88SAPS   H2S 8439   5.452   5.916   9.889 -0.4289  0.0022  0.7763
   88SAPS    C3 8440   5.314   6.393  10.056 -0.1513  0.1208  0.3212
   88SAPS    HX 8441   5.418   6.432  10.061 -0.3419  0.5578  0.8564
   88SAPS    HY 8442   5.251   6.450  10.126 -0.1581  1.3068 -0.6227
   88SAPS   O31 8443   5.268   6.417   9.915  0.3226  0.1700 -0.3586
   88SAPS   C31 8444   5.143   6.382   9.896  0.2640 -0.2675 -0.2509
   88SAPS   O32 8445   5.061   6.366   9.986  0.1283  0.8379 -0.3759
   88SAPS   C32 8446   5.109   6.364   9.749  0.5424 -0.3573  0.3212
   88SAPS   H2X 8447   5.175   6.287   9.706  0.5258 -0.5177  0.5803
   88SAPS   H2Y 8448   5.138   6.462   9.706  1.6890  0.1778  2.1726
   88SAPS   C23 8449   5.457   6.007   9.688  0.4334 -0.6466  0.7973
   88SAPS   H3R 8450   5.483   6.103   9.640  2.2808 -1.1792  0.6724
   88SAPS   H3S 8451   5.348   5.989   9.673  0.3648  0.0970  0.3458
   88SAPS   C24 8452   5.534   5.888   9.624  0.7286 -0.4716 -0.0108
   88SAPS   H4R 8453   5.500   5.884   9.518  0.3288 -2.2951  0.1537
   88SAPS   H4S 8454   5.491   5.795   9.667 -0.4761  0.5289  1.0273
   88SAPS   C25 8455   5.682   5.920   9.616 -0.0441  0.0263 -0.5028
   88SAPS   H5R 8456   5.729   5.977   9.697  1.5799  1.3750 -2.2781
   88SAPS   C26 8457   5.765   5.887   9.513 -0.1598  0.8280 -0.6681
   88SAPS   H6R 8458   5.868   5.924   9.519  0.3389 -0.3832 -1.3844
   88SAPS   C27 8459   5.721   5.837   9.373 -0.3253 -0.4837  0.2998
   88SAPS   H7R 8460   5.814   5.833   9.312 -1.9634  0.9934 -2.4787
   88SAPS   H7S 8461   5.654   5.901   9.312  0.0489 -0.6056 -0.2442
   88SAPS   C28 8462   5.660   5.699   9.372 -0.2462 -0.2271 -0.9285
   88SAPS   H8R 8463   5.633   5.653   9.468  2.6858  0.5738  0.3852
   88SAPS   C29 8464   5.620   5.636   9.257 -0.2881  0.1175  0.1794
   88SAPS   H9R 8465   5.586   5.533   9.276 -2.8117  0.8906  0.2241
   88SAPS  C210 8466   5.637   5.686   9.120 -0.2339 -0.0902 -0.1588
   88SAPS  H10R 8467   5.719   5.761   9.118  0.0604 -0.2529  2.3923
   88SAPS  H10S 8468   5.550   5.743   9.079  0.6637  1.9543  0.6445
   88SAPS  C211 8469   5.672   5.571   9.021  0.3192 -0.4705  0.2669
   88SAPS  H11R 8470   5.765   5.593   8.965 -0.1020  1.4885  0.2711
   88SAPS  C212 8471   5.608   5.458   8.993  0.1938  0.1131 -0.1011
   88SAPS  H12R 8472   5.655   5.391   8.919  3.3373  1.3438  0.5933
   88SAPS  C213 8473   5.492   5.392   9.066  0.3625  0.2318 -0.2476
   88SAPS  H13R 8474   5.421   5.473   9.092 -0.5194 -1.2652  2.2673
   88SAPS  H13S 8475   5.525   5.356   9.165 -0.1010  2.6448  0.8554
   88SAPS  C214 8476   5.412   5.291   8.987 -0.0475 -0.3010  0.0575
   88SAPS  H14R 8477   5.326   5.330   8.931  0.5802 -0.0070 -0.7324
   88SAPS  C215 8478   5.440   5.156   8.982 -0.4047 -0.3758 -0.5154
   88SAPS  H15R 8479   5.368   5.091   8.931 -1.3919  0.6725 -0.5092
   88SAPS  C216 8480   5.559   5.093   9.048 -0.2286 -0.2021 -0.3199
   88SAPS  H16R 8481   5.633   5.166   9.088  0.3246 -0.9931  0.1200
   88SAPS  H16S 8482   5.621   5.043   8.971  0.7429 -1.3841  1.1637
   88SAPS  C217 8483   5.505   5.011   9.160 -0.3432 -0.1404 -0.5343
   88SAPS  H17R 8484   5.440   5.068   9.230 -0.8511  1.2267 -2.0653
   88SAPS  H17S 8485   5.597   4.996   9.221 -0.0638  2.9971  0.0222
   88SAPS  C218 8486   5.451   4.872   9.131  0.3768  0.5036 -0.0514
   88SAPS  H18R 8487   5.359   4.873   9.069 -0.6493 -0.7317  1.3847
   88SAPS  H18S 8488   5.413   4.836   9.229 -1.8018  2.7584  0.0134
   88SAPS  C219 8489   5.549   4.778   9.051  0.4880 -0.2734 -0.0077
   88SAPS  H19R 8490   5.584   4.822   8.956 -2.1511 -2.4640 -2.1613
   88SAPS  H19S 8491   5.485   4.696   9.011  1.9353 -1.1153 -0.6619
   88SAPS  C220 8492   5.661   4.732   9.146  0.5692  0.0381  0.2237
   88SAPS  H20R 8493   5.716   4.813   9.198 -1.3908 -0.1154  2.6843
   88SAPS  H20S 8494   5.730   4.667   9.088 -0.4622 -0.5558 -0.3736
   88SAPS  H20T 8495   5.616   4.667   9.224 -1.2402 -0.0187 -0.8028
   88SAPS   C33 8496   4.963   6.330   9.719 -0.3257  0.3253  0.0501
   88SAPS   H3X 8497   4.894   6.388   9.783 -0.1464 -0.7387  1.2311
   88SAPS   H3Y 8498   4.940   6.225   9.744 -0.4710  0.6633  1.3955
   88SAPS   C34 8499   4.930   6.343   9.568 -0.0079 -0.2170 -0.3301
   88SAPS   H4X 8500   4.937   6.451   9.542 -0.5739 -0.0079  0.3355
   88SAPS   H4Y 8501   4.821   6.326   9.556 -0.5107  0.7561  2.1244
   88SAPS   C35 8502   5.010   6.254   9.473  0.0461 -0.4247 -0.6493
   88SAPS   H5X 8503   4.995   6.147   9.501  0.0275  0.2537  2.2168
   88SAPS   H5Y 8504   5.118   6.275   9.484 -0.1051 -0.5555  1.6949
   88SAPS   C36 8505   4.968   6.267   9.328 -0.7987  0.5078 -0.0393
   88SAPS   H6X 8506   5.000   6.370   9.300  1.0934  0.4589  1.6940
   88SAPS   H6Y 8507   4.859   6.244   9.327 -0.2804 -2.3416 -1.5721
   88SAPS   C37 8508   5.048   6.184   9.227 -0.3145  0.2843 -0.0917
   88SAPS   H7X 8509   5.039   6.080   9.264 -1.8941 -0.1650 -1.6148
   88SAPS   H7Y 8510   5.156   6.211   9.238 -0.1222 -0.0267 -1.1338
   88SAPS   C38 8511   4.983   6.181   9.092 -0.0278 -0.1372  0.6453
   88SAPS   H8X 8512   4.950   6.281   9.058  0.7367 -0.5596 -1.4423
   88SAPS   H8Y 8513   4.893   6.117   9.104 -0.8661  1.2532  2.2774
   88SAPS   C39 8514   5.062   6.105   8.988  0.4552  0.6496  0.2975
   88SAPS   H9X 8515   5.059   5.998   9.017 -1.9085  0.4357 -0.5460
   88SAPS   H9Y 8516   5.167   6.141   8.984  0.2416  1.4463  1.5081
   88SAPS  C310 8517   4.995   6.112   8.847  0.4438 -0.1497  0.0103
   88SAPS  H10X 8518   4.979   6.219   8.822  1.2839 -0.0183 -0.0132
   88SAPS  H10Y 8519   4.895   6.063   8.850  0.3850 -0.1320 -1.0777
   88SAPS  C311 8520   5.070   6.040   8.735  0.2085  0.6067  0.6556
   88SAPS  H11X 8521   5.069   5.930   8.752  0.9956  0.5359  0.2720
   88SAPS  H11Y 8522   5.176   6.071   8.738  0.1473  0.9031 -0.0070
   88SAPS  C312 8523   5.011   6.070   8.598 -0.1446  0.4062 -0.1165
   88SAPS  H12X 8524   4.948   6.161   8.610  0.2976  1.2712 -3.3504
   88SAPS  H12Y 8525   4.946   5.986   8.565  2.6307 -1.5787 -0.8817
   88SAPS  C313 8526   5.121   6.091   8.494  0.4137 -0.0764  0.2836
   88SAPS  H13X 8527   5.189   6.003   8.490  1.3054  0.5775  0.7108
   88SAPS  H13Y 8528   5.185   6.174   8.533 -0.1486  0.5825 -0.1808
   88SAPS  C314 8529   5.067   6.125   8.350 -0.1274 -0.1134  0.0191
   88SAPS  H14X 8530   5.148   6.104   8.277  0.4983 -1.2230  1.0137
   88SAPS  H14Y 8531   5.041   6.233   8.344 -0.4806 -0.2230 -0.5800
   88SAPS  C315 8532   4.950   6.037   8.305 -0.4757 -0.1379 -1.0183
   88SAPS  H15X 8533   4.964   5.938   8.353 -4.0421 -0.5921 -0.6552
   88SAPS  H15Y 8534   4.958   6.010   8.198 -0.6159 -1.4172 -0.7175
   88SAPS  C316 8535   4.810   6.091   8.324 -0.6983 -0.1071 -0.6212
   88SAPS  H16X 8536   4.800   6.183   8.261  1.9033  0.5664 -0.1543
   88SAPS  H16Y 8537   4.817   6.128   8.429 -1.2366 -1.9398  0.0933
   88SAPS  C317 8538   4.696   5.991   8.314 -0.2274 -0.3857 -0.5409
   88SAPS  H17X 8539   4.691   5.935   8.410 -0.6595  1.4292  0.5426
   88SAPS  H17Y 8540   4.697   5.929   8.221 -0.9660 -0.6312 -0.3958
   88SAPS  C318 8541   4.570   6.077   8.306  0.4043  0.4061 -0.0944
   88SAPS  H18X 8542   4.545   6.129   8.401 -1.5873 -1.4852  0.5069
   88SAPS  H18Y 8543   4.480   6.014   8.287 -0.5593  1.4678  0.8154
   88SAPS  H18Z 8544   4.575   6.154   8.226 -0.3707 -0.0431 -0.5911
   89SAPS     N 8545   3.386   4.069  10.644 -0.2919 -0.2213 -0.1854
   89SAPS   HN1 8546   3.352   4.161  10.677  2.3300  0.4442  0.8530
   89SAPS   HN2 8547   3.489   4.074  10.631 -0.0995 -0.7427  0.9333
   89SAPS   HN3 8548   3.336   4.048  10.555  1.4963  0.9288 -1.5111
   89SAPS   C12 8549   3.367   3.952  10.741  0.1566 -0.7626  0.3025
   89SAPS  H12A 8550   3.418   3.872  10.689 -1.6947 -2.8882  1.6020
   89SAPS   C13 8551   3.458   3.966  10.863  0.1147 -0.4627 -0.1521
   89SAPS  O13A 8552   3.537   4.063  10.875 -0.1107 -0.2073  0.5635
   89SAPS  O13B 8553   3.470   3.876  10.946  0.1906  0.6020 -1.0325
   89SAPS   C11 8554   3.217   3.933  10.773  0.0778  0.3701  0.0051
   89SAPS  H11A 8555   3.178   4.020  10.830 -1.1427 -0.8219  1.0755
   89SAPS  H11B 8556   3.216   3.845  10.841  0.6212  0.0957 -0.3401
   89SAPS     P 8557   2.987   3.856  10.669 -0.1099  0.3402 -0.2430
   89SAPS   O13 8558   2.987   3.728  10.742 -0.2222 -0.1052  0.2608
   89SAPS   O14 8559   2.901   3.956  10.717  0.4285 -0.1931 -0.3780
   89SAPS   O12 8560   3.144   3.911  10.653  0.7621  0.7917  0.0440
   89SAPS   O11 8561   2.952   3.831  10.511  0.0064  0.6085 -0.1581
   89SAPS    C1 8562   3.038   3.742  10.441 -0.2238  0.7133  0.6395
   89SAPS    HA 8563   3.132   3.794  10.413  0.9378 -0.8228  1.4658
   89SAPS    HB 8564   3.068   3.653  10.502  0.0845  0.3740  0.0021
   89SAPS    C2 8565   2.984   3.696  10.303  0.0392  0.0007 -0.5562
   89SAPS    HS 8566   2.957   3.786  10.242  1.9922  0.3871 -0.9097
   89SAPS   O21 8567   2.872   3.607  10.315  0.1112  0.2150  0.6770
   89SAPS   C21 8568   2.780   3.602  10.218  0.3902  0.0985 -0.4147
   89SAPS   O22 8569   2.776   3.682  10.127 -0.4579 -0.1902  0.6466
   89SAPS   C22 8570   2.687   3.487  10.239 -0.3585 -0.3059 -0.1486
   89SAPS   H2R 8571   2.651   3.493  10.344  1.5562  2.5330  0.4612
   89SAPS   H2S 8572   2.609   3.489  10.160  0.2440 -0.6522 -0.7644
   89SAPS    C3 8573   3.101   3.624  10.235 -0.5298 -0.1017 -0.7359
   89SAPS    HX 8574   3.119   3.524  10.281 -2.8312  0.2637  1.1777
   89SAPS    HY 8575   3.195   3.682  10.243  0.4354 -1.8697  2.7636
   89SAPS   O31 8576   3.059   3.602  10.092 -0.6096 -0.7399 -0.4308
   89SAPS   C31 8577   3.153   3.617  10.007  0.1466  0.3336  0.0824
   89SAPS   O32 8578   3.273   3.628  10.033  0.2413 -0.2971 -0.0050
   89SAPS   C32 8579   3.081   3.620   9.875 -0.1077  0.0563 -0.4567
   89SAPS   H2X 8580   3.003   3.698   9.886  1.0009  1.3133 -1.2360
   89SAPS   H2Y 8581   3.022   3.525   9.870  0.0457 -0.1380  0.9927
   89SAPS   C23 8582   2.750   3.342  10.226 -0.2431 -0.9592 -0.3471
   89SAPS   H3R 8583   2.667   3.280  10.186  1.2747 -2.8666 -0.7428
   89SAPS   H3S 8584   2.763   3.321  10.335  1.7457 -1.4234 -0.6282
   89SAPS   C24 8585   2.885   3.333  10.151 -0.6476 -0.0630 -0.5658
   89SAPS   H4R 8586   2.967   3.390  10.198 -0.0610  0.4772 -2.1773
   89SAPS   H4S 8587   2.867   3.384  10.054 -2.4467 -0.1163 -0.2973
   89SAPS   C25 8588   2.919   3.182  10.151  0.5385 -0.5992 -0.0031
   89SAPS   H5R 8589   2.958   3.145  10.247  0.4854  1.0314  0.6704
   89SAPS   C26 8590   2.887   3.088  10.064  0.6282 -0.6349  0.2590
   89SAPS   H6R 8591   2.944   2.995  10.080  2.4961  0.6889  1.9316
   89SAPS   C27 8592   2.805   3.118   9.936 -0.7297  0.1541  0.0010
   89SAPS   H7R 8593   2.862   3.059   9.861 -0.3097 -1.6408  1.6432
   89SAPS   H7S 8594   2.811   3.226   9.913 -2.9374  0.8915  2.5002
   89SAPS   C28 8595   2.662   3.084   9.945 -0.0292  0.2689  0.0852
   89SAPS   H8R 8596   2.616   3.074  10.044 -1.1588  1.3913 -0.3024
   89SAPS   C29 8597   2.592   3.057   9.834 -0.1188  0.1324 -0.8023
   89SAPS   H9R 8598   2.486   3.032   9.848  0.1187 -1.0018 -0.9513
   89SAPS  C210 8599   2.632   3.055   9.686 -0.4426  0.0441  0.2549
   89SAPS  H10R 8600   2.659   2.948   9.672  1.1983  0.6029 -1.3016
   89SAPS  H10S 8601   2.723   3.116   9.663 -0.0094 -0.0033  1.7075
   89SAPS  C211 8602   2.514   3.083   9.599  0.9365  0.1894  0.6024
   89SAPS  H11R 8603   2.413   3.104   9.636  0.7619  0.2867  0.0900
   89SAPS  C212 8604   2.517   3.075   9.467 -0.7816  0.2713 -0.4238
   89SAPS  H12R 8605   2.420   3.077   9.413 -0.7238  1.1582 -0.5138
   89SAPS  C213 8606   2.625   3.048   9.367  0.0427 -0.0343  0.2901
   89SAPS  H13R 8607   2.607   2.947   9.324 -0.8269  0.7027 -1.1711
   89SAPS  H13S 8608   2.725   3.045   9.415 -0.4528 -1.6951  1.2926
   89SAPS  C214 8609   2.645   3.144   9.252 -0.4338 -0.6476  0.3852
   89SAPS  H14R 8610   2.735   3.204   9.270 -0.1312 -1.0346  0.1994
   89SAPS  C215 8611   2.568   3.163   9.149  0.1785  0.4144 -0.0200
   89SAPS  H15R 8612   2.619   3.225   9.073  1.7274  1.1499  1.5577
   89SAPS  C216 8613   2.444   3.081   9.112  0.0160 -0.1053  0.4353
   89SAPS  H16R 8614   2.355   3.147   9.104  0.4405  0.6043  1.4272
   89SAPS  H16S 8615   2.419   2.996   9.178  0.8003 -1.5164 -1.0245
   89SAPS  C217 8616   2.471   3.037   8.966  0.1960 -0.5956 -0.1036
   89SAPS  H17R 8617   2.559   2.969   8.965 -0.0844 -1.1304  3.2591
   89SAPS  H17S 8618   2.503   3.125   8.905 -0.6243 -0.2264 -0.0139
   89SAPS  C218 8619   2.347   2.977   8.891  0.1930 -0.3528  0.1165
   89SAPS  H18R 8620   2.257   3.039   8.872  1.5215  1.6221 -0.1466
   89SAPS  H18S 8621   2.318   2.892   8.956  1.3668 -0.4731  0.5117
   89SAPS  C219 8622   2.402   2.917   8.755  0.1852 -0.0380  0.0452
   89SAPS  H19R 8623   2.497   2.864   8.776 -0.1383 -1.4471 -1.7606
   89SAPS  H19S 8624   2.443   2.988   8.680  2.8052 -0.9406  0.5343
   89SAPS  C220 8625   2.291   2.832   8.698 -0.6032  0.6275  0.0243
   89SAPS  H20R 8626   2.327   2.780   8.607  1.3392  2.5795 -0.4301
   89SAPS  H20S 8627   2.200   2.892   8.676 -1.2783 -0.7988 -1.2255
   89SAPS  H20T 8628   2.257   2.749   8.764 -1.5525 -0.9893 -2.3658
   89SAPS   C33 8629   3.172   3.660   9.754  0.1130 -0.2090  0.2770
   89SAPS   H3X 8630   3.273   3.620   9.777  0.9057  0.2774 -2.1270
   89SAPS   H3Y 8631   3.182   3.770   9.749  2.2149 -0.4171 -0.9356
   89SAPS   C34 8632   3.114   3.608   9.621 -0.2768 -0.2391  0.3576
   89SAPS   H4X 8633   3.039   3.687   9.602  2.2511  2.0145 -0.9657
   89SAPS   H4Y 8634   3.065   3.512   9.648  1.2180 -0.5837  2.0350
   89SAPS   C35 8635   3.229   3.606   9.519 -0.2325  0.2909 -0.6054
   89SAPS   H5X 8636   3.301   3.523   9.535  0.7574  1.2290 -0.0129
   89SAPS   H5Y 8637   3.287   3.701   9.523 -1.7790  1.2373  2.4585
   89SAPS   C36 8638   3.177   3.584   9.372 -0.5109  0.2062 -0.0910
   89SAPS   H6X 8639   3.136   3.681   9.336 -0.5726 -0.1949 -1.1102
   89SAPS   H6Y 8640   3.099   3.505   9.367 -0.4486  0.2320 -1.7577
   89SAPS   C37 8641   3.293   3.560   9.285  0.0852  0.5724  0.2987
   89SAPS   H7X 8642   3.365   3.480   9.313  0.7997 -0.4191 -3.7355
   89SAPS   H7Y 8643   3.353   3.652   9.264  1.7902 -0.4951  0.3287
   89SAPS   C38 8644   3.241   3.534   9.138 -0.6706  0.1686 -0.1896
   89SAPS   H8X 8645   3.153   3.596   9.111  0.2232  1.5461 -0.0636
   89SAPS   H8Y 8646   3.205   3.431   9.119  1.3957 -0.8297  0.9601
   89SAPS   C39 8647   3.350   3.556   9.030  0.3027  0.2050 -1.0156
   89SAPS   H9X 8648   3.439   3.500   9.065 -0.4923  0.0208  0.8030
   89SAPS   H9Y 8649   3.387   3.660   9.033 -1.8573  1.0116 -0.2707
   89SAPS  C310 8650   3.316   3.516   8.890 -0.8169 -0.1478 -0.5815
   89SAPS  H10X 8651   3.232   3.581   8.855 -0.0280  0.8620 -0.6510
   89SAPS  H10Y 8652   3.277   3.414   8.871 -0.1927 -0.3479 -0.8127
   89SAPS  C311 8653   3.444   3.533   8.800 -0.2761  0.0984 -0.6471
   89SAPS  H11X 8654   3.526   3.470   8.841 -0.5335  0.1136 -0.0979
   89SAPS  H11Y 8655   3.470   3.636   8.832 -1.2875  0.1293  0.0957
   89SAPS  C312 8656   3.423   3.495   8.650  0.3729  0.1224 -0.3089
   89SAPS  H12X 8657   3.438   3.386   8.634 -0.0341 -0.1288  0.9027
   89SAPS  H12Y 8658   3.501   3.553   8.596 -0.8215  0.9284 -1.2257
   89SAPS  C313 8659   3.277   3.527   8.599 -0.4975  0.2319 -0.4475
   89SAPS  H13X 8660   3.261   3.637   8.600 -0.4757  0.2334  0.9573
   89SAPS  H13Y 8661   3.204   3.476   8.665  0.1366 -0.1002 -0.0008
   89SAPS  C314 8662   3.246   3.476   8.459 -0.6205 -0.2452 -0.0589
   89SAPS  H14X 8663   3.286   3.373   8.445 -1.5006 -0.4959 -0.8586
   89SAPS  H14Y 8664   3.282   3.537   8.374 -2.1620 -0.5613 -0.9672
   89SAPS  C315 8665   3.095   3.446   8.441  0.5447  0.7848 -0.5879
   89SAPS  H15X 8666   3.050   3.548   8.439 -0.6825  0.2754  0.0063
   89SAPS  H15Y 8667   3.037   3.395   8.520  0.3785 -1.9720 -2.3665
   89SAPS  C316 8668   3.076   3.374   8.309 -0.5789 -0.1841  0.5594
   89SAPS  H16X 8669   3.146   3.288   8.318  0.1789  0.4097  0.4305
   89SAPS  H16Y 8670   3.107   3.442   8.227 -2.1863  0.2199  0.2564
   89SAPS  C317 8671   2.939   3.325   8.280  0.8903  0.3328 -0.3382
   89SAPS  H17X 8672   2.852   3.379   8.322  1.4461  1.4342 -0.5580
   89SAPS  H17Y 8673   2.941   3.223   8.323 -0.1360 -0.1419 -1.3683
   89SAPS  C318 8674   2.911   3.319   8.133 -0.0701 -0.2473  0.8216
   89SAPS  H18X 8675   2.943   3.417   8.092  1.3526  0.4559  3.3982
   89SAPS  H18Y 8676   2.811   3.285   8.099  0.4798  0.1579 -1.3653
   89SAPS  H18Z 8677   2.984   3.244   8.095  1.5770  1.3305  0.7293
   90SAPS     N 8678   6.528   1.494  10.694 -0.0132  0.1058 -0.7775
   90SAPS   HN1 8679   6.550   1.392  10.692  1.5802  0.4391 -1.2778
   90SAPS   HN2 8680   6.527   1.543  10.603  3.0405  0.7808 -0.5409
   90SAPS   HN3 8681   6.596   1.552  10.747  0.5256 -1.9176  0.8760
   90SAPS   C12 8682   6.406   1.511  10.773  1.4471 -0.7681  0.1396
   90SAPS  H12A 8683   6.322   1.481  10.713  3.0415 -0.9228 -2.1493
   90SAPS   C13 8684   6.408   1.454  10.917 -0.0239  0.0428 -0.4546
   90SAPS  O13A 8685   6.511   1.411  10.978 -0.6996  0.3284 -0.7468
   90SAPS  O13B 8686   6.295   1.445  10.976 -0.1466 -0.2293  0.2183
   90SAPS   C11 8687   6.371   1.665  10.781 -0.3085 -0.0729 -0.0740
   90SAPS  H11A 8688   6.449   1.719  10.839  0.8823 -1.2845 -0.4813
   90SAPS  H11B 8689   6.281   1.685  10.843 -0.2859 -1.6114  0.5170
   90SAPS     P 8690   6.332   1.870  10.632  0.2141 -0.5774  0.3492
   90SAPS   O13 8691   6.213   1.870  10.546  0.4690  0.5988  0.1616
   90SAPS   O14 8692   6.321   1.943  10.764 -0.0279  0.0052  0.0928
   90SAPS   O12 8693   6.368   1.718  10.654 -0.1372  0.0586  0.1493
   90SAPS   O11 8694   6.461   1.897  10.547  0.0482 -0.6497  0.1194
   90SAPS    C1 8695   6.547   2.009  10.580  0.8089 -0.3493 -0.1750
   90SAPS    HA 8696   6.570   2.021  10.688 -2.4654  1.3458  0.4684
   90SAPS    HB 8697   6.641   1.988  10.525  0.0509 -0.6897 -1.4070
   90SAPS    C2 8698   6.492   2.145  10.520  0.2684 -0.1630 -0.7629
   90SAPS    HS 8699   6.404   2.159  10.585  1.0834  1.0275  0.1234
   90SAPS   O21 8700   6.472   2.152  10.375 -0.3145  0.1127  0.3895
   90SAPS   C21 8701   6.339   2.173  10.348 -0.5231 -0.8656  0.1871
   90SAPS   O22 8702   6.257   2.207  10.430  0.1084 -0.0599 -0.8195
   90SAPS   C22 8703   6.303   2.140  10.206 -0.0699 -0.4593 -0.3806
   90SAPS   H2R 8704   6.351   2.221  10.148 -1.1953  0.8466  0.4353
   90SAPS   H2S 8705   6.347   2.045  10.171  0.8180  0.1607 -0.9624
   90SAPS    C3 8706   6.589   2.263  10.551 -0.7835  0.0390 -0.2302
   90SAPS    HX 8707   6.663   2.266  10.469 -1.9965  2.1728 -1.3507
   90SAPS    HY 8708   6.631   2.237  10.650 -0.9244  0.9384  0.0726
   90SAPS   O31 8709   6.499   2.375  10.567 -0.0785 -0.0039 -0.2852
   90SAPS   C31 8710   6.556   2.491  10.547  0.0220  0.6359 -0.8456
   90SAPS   O32 8711   6.674   2.504  10.527 -0.1736 -0.5114  0.1391
   90SAPS   C32 8712   6.460   2.607  10.558  0.1591 -0.7452 -0.0923
   90SAPS   H2X 8713   6.502   2.698  10.510  0.0258  0.4004  1.8516
   90SAPS   H2Y 8714   6.460   2.634  10.665 -0.8124  0.8498 -0.4572
   90SAPS   C23 8715   6.151   2.149  10.174 -0.2131  0.1919  0.6180
   90SAPS   H3R 8716   6.088   2.223  10.227 -1.3760 -0.7966  0.6554
   90SAPS   H3S 8717   6.103   2.062  10.224  0.2500  0.4850  1.5977
   90SAPS   C24 8718   6.123   2.139  10.020 -0.0026 -0.6095  0.6105
   90SAPS   H4R 8719   6.154   2.239   9.984 -1.5714 -0.1186  0.5760
   90SAPS   H4S 8720   6.016   2.127   9.994  0.4837 -2.4218 -0.7523
   90SAPS   C25 8721   6.200   2.031   9.952  0.5243  0.5653  0.3786
   90SAPS   H5R 8722   6.222   1.950  10.024 -1.2112  0.5697  0.9659
   90SAPS   C26 8723   6.238   2.015   9.821  0.9313  0.1888  0.1171
   90SAPS   H6R 8724   6.296   1.925   9.798  1.7195  0.9998 -1.1934
   90SAPS   C27 8725   6.211   2.114   9.709  0.2515  0.8090 -0.2397
   90SAPS   H7R 8726   6.299   2.179   9.690  1.4514 -0.5049  0.5672
   90SAPS   H7S 8727   6.118   2.170   9.732  1.1122  2.1812  0.0196
   90SAPS   C28 8728   6.177   2.034   9.577  0.6905  0.8702  0.2575
   90SAPS   H8R 8729   6.173   1.925   9.584 -0.6842  0.9351  0.7858
   90SAPS   C29 8730   6.176   2.086   9.454  0.2135  0.8326 -0.2677
   90SAPS   H9R 8731   6.157   2.016   9.373  1.4591  0.4432 -0.2485
   90SAPS  C210 8732   6.188   2.223   9.413 -0.0737 -0.3717 -0.3755
   90SAPS  H10R 8733   6.292   2.260   9.415 -0.0189 -0.5644  0.5278
   90SAPS  H10S 8734   6.136   2.285   9.488  1.0251 -1.4473  1.3283
   90SAPS  C211 8735   6.132   2.271   9.281  0.2393  0.0005  0.0819
   90SAPS  H11R 8736   6.027   2.306   9.281  0.9584  2.3412 -1.0444
   90SAPS  C212 8737   6.189   2.269   9.162  0.3946 -0.2518  1.2336
   90SAPS  H12R 8738   6.131   2.288   9.071  0.5500 -0.8763  1.0002
   90SAPS  C213 8739   6.327   2.220   9.135 -0.0655 -0.4626  0.1033
   90SAPS  H13R 8740   6.324   2.128   9.073  2.6358 -0.4212 -0.2052
   90SAPS  H13S 8741   6.375   2.190   9.231 -0.7503  2.0289  1.3232
   90SAPS  C214 8742   6.430   2.310   9.073 -0.8607 -0.7993  0.8736
   90SAPS  H14R 8743   6.508   2.344   9.142 -0.7836  0.0831  0.3643
   90SAPS  C215 8744   6.441   2.346   8.944  0.3213  0.2380  0.3053
   90SAPS  H15R 8745   6.519   2.414   8.908  0.5784 -0.6307 -0.8753
   90SAPS  C216 8746   6.340   2.320   8.837  0.3211 -0.0406 -0.2297
   90SAPS  H16R 8747   6.277   2.411   8.837 -0.1398 -0.3548 -1.2564
   90SAPS  H16S 8748   6.269   2.238   8.860 -1.7528  1.1120 -2.2246
   90SAPS  C217 8749   6.393   2.287   8.700 -0.8943  0.0428  0.4817
   90SAPS  H17R 8750   6.448   2.190   8.693 -0.4813  0.2025  1.3842
   90SAPS  H17S 8751   6.467   2.368   8.681  0.2139 -1.0187  0.1419
   90SAPS  C218 8752   6.290   2.290   8.582  0.9573 -0.7322  0.4774
   90SAPS  H18R 8753   6.255   2.393   8.563 -0.6258 -1.0264  1.5775
   90SAPS  H18S 8754   6.210   2.217   8.607  0.2303 -0.3114 -0.5729
   90SAPS  C219 8755   6.355   2.229   8.453  0.5615 -0.3557 -0.0380
   90SAPS  H19R 8756   6.398   2.128   8.469  1.5436  0.0870  0.1952
   90SAPS  H19S 8757   6.445   2.292   8.439  1.1616 -0.6881  2.0396
   90SAPS  C220 8758   6.272   2.235   8.325 -0.5279 -0.4414 -0.4353
   90SAPS  H20R 8759   6.176   2.179   8.323 -0.7655 -0.1130  0.7675
   90SAPS  H20S 8760   6.328   2.203   8.235  0.1335  2.4992 -1.1515
   90SAPS  H20T 8761   6.254   2.344   8.320 -0.8983 -0.4005  1.2202
   90SAPS   C33 8762   6.318   2.583  10.492  0.2533 -0.8041 -0.5904
   90SAPS   H3X 8763   6.258   2.676  10.504 -0.2341 -0.7215 -3.1380
   90SAPS   H3Y 8764   6.264   2.502  10.547 -0.6375  1.0445  1.4190
   90SAPS   C34 8765   6.325   2.559  10.340 -0.4057 -0.8815 -0.0787
   90SAPS   H4X 8766   6.405   2.487  10.312 -1.2669 -1.9276  0.1150
   90SAPS   H4Y 8767   6.357   2.652  10.288  1.0507 -1.4523 -0.2618
   90SAPS   C35 8768   6.192   2.516  10.276  0.0062 -0.5139  0.4601
   90SAPS   H5X 8769   6.133   2.608  10.297  0.4313 -0.1140 -0.0526
   90SAPS   H5Y 8770   6.156   2.425  10.329 -1.2810 -1.0271 -1.2156
   90SAPS   C36 8771   6.195   2.499  10.126  0.7087  0.3076  0.0983
   90SAPS   H6X 8772   6.102   2.447  10.098 -1.0983  2.7385  1.1703
   90SAPS   H6Y 8773   6.286   2.442  10.096 -1.5092 -2.3687 -2.0211
   90SAPS   C37 8774   6.202   2.628  10.043 -0.1028 -0.1366 -0.2625
   90SAPS   H7X 8775   6.278   2.698  10.084 -0.8304 -0.2598  1.3660
   90SAPS   H7Y 8776   6.102   2.675  10.055  0.7204  1.9253 -0.9690
   90SAPS   C38 8777   6.220   2.609   9.893 -0.5629 -0.0416  0.6918
   90SAPS   H8X 8778   6.302   2.540   9.864 -1.3712 -0.5645 -0.4440
   90SAPS   H8Y 8779   6.245   2.706   9.847  1.8038 -0.3904  1.1398
   90SAPS   C39 8780   6.095   2.571   9.818  0.2362 -0.2730 -0.2547
   90SAPS   H9X 8781   6.018   2.651   9.827 -0.4023 -0.7759 -1.1018
   90SAPS   H9Y 8782   6.052   2.480   9.864 -3.5701  1.6508  0.4737
   90SAPS  C310 8783   6.104   2.543   9.667  0.3325 -0.1014  0.3298
   90SAPS  H10X 8784   6.006   2.497   9.639 -0.0427  1.8487 -1.9170
   90SAPS  H10Y 8785   6.183   2.466   9.662  2.6993  2.0575  1.9790
   90SAPS  C311 8786   6.127   2.660   9.569 -0.2427  0.4431  0.2473
   90SAPS  H11X 8787   6.226   2.707   9.588  0.5469 -0.7951 -0.6076
   90SAPS  H11Y 8788   6.041   2.729   9.579 -0.1970  0.3056  1.8388
   90SAPS  C312 8789   6.129   2.606   9.428  0.1084  0.0411 -0.2480
   90SAPS  H12X 8790   6.049   2.530   9.422  1.1864 -1.0671 -1.1405
   90SAPS  H12Y 8791   6.232   2.566   9.418  0.6939  1.7603 -1.7685
   90SAPS  C313 8792   6.111   2.708   9.310 -0.0444  0.1571 -0.0540
   90SAPS  H13X 8793   6.194   2.780   9.321 -1.0573  1.8177 -2.3824
   90SAPS  H13Y 8794   6.017   2.764   9.330  0.2262  1.1179 -1.3919
   90SAPS  C314 8795   6.110   2.647   9.166  0.2954  0.4119 -0.0378
   90SAPS  H14X 8796   6.186   2.567   9.157  0.2469  0.1427  1.5919
   90SAPS  H14Y 8797   6.134   2.733   9.100 -0.1516  0.4669 -0.1280
   90SAPS  C315 8798   5.973   2.599   9.119  0.3934  0.3739 -0.2617
   90SAPS  H15X 8799   5.903   2.686   9.123  0.1876  0.2843 -1.4573
   90SAPS  H15Y 8800   5.942   2.521   9.191 -0.0069  1.4197  0.7239
   90SAPS  C316 8801   5.953   2.557   8.977  0.3009 -0.7882  0.3317
   90SAPS  H16X 8802   5.846   2.564   8.951  0.7476 -0.5105 -1.6287
   90SAPS  H16Y 8803   5.972   2.448   8.969  0.2845 -0.8338  0.8670
   90SAPS  C317 8804   6.037   2.627   8.869 -0.1412 -0.4781  0.2102
   90SAPS  H17X 8805   6.141   2.644   8.902  0.4314  3.6302 -2.8482
   90SAPS  H17Y 8806   6.012   2.736   8.862  1.2067 -0.1697 -0.0415
   90SAPS  C318 8807   6.028   2.560   8.730 -0.1175 -0.1765  0.2042
   90SAPS  H18X 8808   5.925   2.586   8.699  0.0599  2.1536  1.3856
   90SAPS  H18Y 8809   6.039   2.449   8.734  1.0356 -0.0502  3.1302
   90SAPS  H18Z 8810   6.104   2.598   8.659 -1.4707 -0.9795 -1.7315
   91SAPS     N 8811   5.260   2.486   6.329  0.5140  0.1209 -0.3713
   91SAPS   HN1 8812   5.319   2.400   6.331 -1.1204 -1.1039 -1.5035
   91SAPS   HN2 8813   5.312   2.571   6.298  0.6324  0.2439  0.1604
   91SAPS   HN3 8814   5.232   2.513   6.425  1.5958 -0.2968  0.0759
   91SAPS   C12 8815   5.143   2.459   6.236 -0.3278  0.3821 -0.8498
   91SAPS  H12A 8816   5.081   2.546   6.249  0.9677  1.0921  1.0816
   91SAPS   C13 8817   5.189   2.466   6.084 -0.2274 -0.4551  0.7696
   91SAPS  O13A 8818   5.306   2.498   6.046  0.3566  0.0190 -0.1356
   91SAPS  O13B 8819   5.098   2.475   5.997 -0.6711  0.5350 -0.6537
   91SAPS   C11 8820   5.065   2.339   6.287 -0.0284  0.3000  0.1024
   91SAPS  H11A 8821   4.975   2.328   6.223  1.2846 -1.7618 -1.5083
   91SAPS  H11B 8822   5.023   2.359   6.388  1.1658 -0.2982  0.7344
   91SAPS     P 8823   5.086   2.081   6.310 -0.0496  0.1709 -0.6872
   91SAPS   O13 8824   5.004   2.038   6.198 -0.3836 -0.6920 -0.0779
   91SAPS   O14 8825   5.196   1.990   6.353 -0.2751 -0.0364 -0.1050
   91SAPS   O12 8826   5.140   2.221   6.280  0.6321  0.2996  0.0567
   91SAPS   O11 8827   4.980   2.110   6.427 -0.1417  0.4494 -0.1528
   91SAPS    C1 8828   5.042   2.146   6.556  0.6247  0.4972 -0.2938
   91SAPS    HA 8829   5.150   2.129   6.572 -0.1558 -2.2188  3.5010
   91SAPS    HB 8830   5.020   2.250   6.588  1.4440  0.1957  1.3586
   91SAPS    C2 8831   4.983   2.051   6.666  0.6615  0.0160 -0.2407
   91SAPS    HS 8832   5.001   1.951   6.623 -1.4500 -0.8094  0.6566
   91SAPS   O21 8833   4.840   2.074   6.662  0.1608 -0.8857  0.3331
   91SAPS   C21 8834   4.770   1.963   6.684  0.0670 -0.0736 -0.2405
   91SAPS   O22 8835   4.816   1.856   6.712  0.3284 -0.4311 -0.3291
   91SAPS   C22 8836   4.621   1.990   6.667 -0.1810 -0.1689  0.3665
   91SAPS   H2R 8837   4.610   2.005   6.558  1.7410 -2.9302 -0.3042
   91SAPS   H2S 8838   4.567   1.895   6.689  0.4785 -0.2040  2.0312
   91SAPS    C3 8839   5.034   2.072   6.818  0.4379  0.5494  0.8163
   91SAPS    HX 8840   5.014   2.179   6.842 -1.3600  0.4663 -0.1632
   91SAPS    HY 8841   5.143   2.050   6.825 -0.1853 -2.4530  3.0076
   91SAPS   O31 8842   4.967   1.991   6.915 -0.0127  0.3389 -0.3133
   91SAPS   C31 8843   5.016   1.865   6.927  0.3008  0.2015 -0.4718
   91SAPS   O32 8844   5.092   1.809   6.853 -0.2944 -0.2981 -0.1398
   91SAPS   C32 8845   4.969   1.799   7.052 -0.4381 -0.3839 -0.4788
   91SAPS   H2X 8846   5.009   1.696   7.063 -0.0972 -0.2398 -0.3556
   91SAPS   H2Y 8847   4.858   1.787   7.050 -0.4874  0.1592 -1.6099
   91SAPS   C23 8848   4.567   2.120   6.740  0.4251 -0.2526 -0.1982
   91SAPS   H3R 8849   4.472   2.145   6.687  0.6884  0.2200 -0.4514
   91SAPS   H3S 8850   4.638   2.205   6.742 -0.5884  0.6714 -1.6682
   91SAPS   C24 8851   4.541   2.089   6.889 -0.7553  0.6558 -0.6554
   91SAPS   H4R 8852   4.637   2.083   6.944 -0.8391  1.3759 -0.4188
   91SAPS   H4S 8853   4.500   1.986   6.896  1.2025 -0.1558 -0.4002
   91SAPS   C25 8854   4.457   2.189   6.958  0.2964 -0.1974 -0.3927
   91SAPS   H5R 8855   4.402   2.247   6.883 -0.3683 -1.2384 -0.7316
   91SAPS   C26 8856   4.455   2.224   7.089 -0.7451 -0.4837 -0.1625
   91SAPS   H6R 8857   4.383   2.304   7.115  2.7293  3.1387 -0.6897
   91SAPS   C27 8858   4.512   2.150   7.204 -0.7965  0.3350  0.2457
   91SAPS   H7R 8859   4.563   2.054   7.178  1.8619  1.1594  2.0038
   91SAPS   H7S 8860   4.435   2.128   7.280 -0.3069 -0.2768  0.5732
   91SAPS   C28 8861   4.620   2.233   7.276 -0.3648 -0.2047  0.4806
   91SAPS   H8R 8862   4.698   2.262   7.205 -1.6770  0.5291 -0.7214
   91SAPS   C29 8863   4.639   2.268   7.405 -0.1227  0.2871  0.2466
   91SAPS   H9R 8864   4.732   2.321   7.434  0.5458 -0.8162  0.1698
   91SAPS  C210 8865   4.533   2.238   7.515  0.0229 -0.0421 -0.8002
   91SAPS  H10R 8866   4.433   2.249   7.467 -0.4095 -1.0103 -0.1656
   91SAPS  H10S 8867   4.518   2.314   7.594 -0.5561 -1.2821  0.3159
   91SAPS  C211 8868   4.568   2.102   7.565 -0.1368  0.3462  0.3155
   91SAPS  H11R 8869   4.672   2.090   7.601 -0.4760  0.7557  1.4611
   91SAPS  C212 8870   4.495   1.986   7.572 -0.4177  0.3498  0.2844
   91SAPS  H12R 8871   4.552   1.904   7.616 -1.1116  1.1317  2.8622
   91SAPS  C213 8872   4.353   1.952   7.528  0.1820  0.7000 -0.4799
   91SAPS  H13R 8873   4.337   1.842   7.520 -1.4581  1.0173 -2.3261
   91SAPS  H13S 8874   4.344   1.986   7.422  0.0348  1.7476 -0.1372
   91SAPS  C214 8875   4.246   2.010   7.623  0.3237 -0.3211  0.2870
   91SAPS  H14R 8876   4.189   2.097   7.589 -1.1403 -0.4282  2.3231
   91SAPS  C215 8877   4.229   1.974   7.750  0.1455 -0.0224 -0.2855
   91SAPS  H15R 8878   4.141   2.024   7.794  0.8289  0.7323  0.2708
   91SAPS  C216 8879   4.297   1.865   7.825  0.5426 -0.7862 -0.8445
   91SAPS  H16R 8880   4.335   1.784   7.759  0.4682 -1.9545  0.4930
   91SAPS  H16S 8881   4.234   1.799   7.890  0.2155 -0.5086 -0.8756
   91SAPS  C217 8882   4.407   1.926   7.919  0.5881  0.2372  0.4185
   91SAPS  H17R 8883   4.469   2.000   7.864 -2.2198  1.8969 -0.7483
   91SAPS  H17S 8884   4.472   1.846   7.959 -0.0886 -0.3971  0.2715
   91SAPS  C218 8885   4.355   2.008   8.034 -0.0896 -0.3257 -0.1436
   91SAPS  H18R 8886   4.329   1.936   8.115  1.0779 -1.7556 -0.9730
   91SAPS  H18S 8887   4.263   2.060   8.002 -0.2198 -0.9710 -0.8493
   91SAPS  C219 8888   4.462   2.102   8.089 -0.2766 -0.2140 -0.4671
   91SAPS  H19R 8889   4.560   2.050   8.085 -0.3966 -0.4603 -0.2911
   91SAPS  H19S 8890   4.436   2.121   8.196 -0.4018 -0.6014 -0.4266
   91SAPS  C220 8891   4.468   2.239   8.024  0.3754  0.7235 -0.1000
   91SAPS  H20R 8892   4.538   2.227   7.939  2.0942 -1.5058  1.5046
   91SAPS  H20S 8893   4.498   2.318   8.097 -2.2558  0.5535  1.2835
   91SAPS  H20T 8894   4.367   2.269   7.988  0.1124  1.1666  0.9586
   91SAPS   C33 8895   5.005   1.879   7.180 -0.2932 -0.1435  1.0534
   91SAPS   H3X 8896   5.000   1.989   7.165  0.5546 -0.0274  1.5196
   91SAPS   H3Y 8897   5.112   1.863   7.205  0.1774  0.6779 -0.3245
   91SAPS   C34 8898   4.902   1.851   7.289  0.0707  0.4487 -0.0800
   91SAPS   H4X 8899   4.872   1.744   7.283 -2.0167  0.9094  1.1165
   91SAPS   H4Y 8900   4.806   1.903   7.269  0.0483  0.3321 -0.2732
   91SAPS   C35 8901   4.959   1.884   7.424  0.4238  0.3468 -0.2399
   91SAPS   H5X 8902   4.944   1.989   7.458  0.4607 -0.1260  1.3188
   91SAPS   H5Y 8903   5.065   1.853   7.429  0.7755  1.2895 -1.2372
   91SAPS   C36 8904   4.876   1.808   7.524 -0.5152 -0.1811  0.8577
   91SAPS   H6X 8905   4.899   1.700   7.526  0.2931 -0.1146 -1.3479
   91SAPS   H6Y 8906   4.770   1.813   7.493 -0.3747  1.5244  0.5100
   91SAPS   C37 8907   4.898   1.849   7.669  0.5513  0.8271  0.2503
   91SAPS   H7X 8908   4.881   1.958   7.673 -1.5664  0.5363  0.0809
   91SAPS   H7Y 8909   5.006   1.834   7.689  0.2577 -0.2508  1.1601
   91SAPS   C38 8910   4.825   1.770   7.779  1.5953 -0.0378  0.5999
   91SAPS   H8X 8911   4.858   1.665   7.788 -1.3589 -1.0219  1.1542
   91SAPS   H8Y 8912   4.718   1.758   7.750  1.7334  1.8939 -0.9577
   91SAPS   C39 8913   4.808   1.832   7.913 -0.5487 -0.8917 -0.7164
   91SAPS   H9X 8914   4.735   1.915   7.897  0.1588 -0.1680 -0.2540
   91SAPS   H9Y 8915   4.899   1.874   7.961 -3.5638  1.3165  3.8208
   91SAPS  C310 8916   4.755   1.736   8.017  0.2899  0.0545  0.3182
   91SAPS  H10X 8917   4.827   1.653   8.035 -1.8476 -1.9831  0.0017
   91SAPS  H10Y 8918   4.677   1.690   7.953  0.8205  2.8989 -2.6223
   91SAPS  C311 8919   4.718   1.808   8.149  0.7109  0.7752 -0.5228
   91SAPS  H11X 8920   4.679   1.910   8.130 -3.0840 -0.0444  1.8699
   91SAPS  H11Y 8921   4.804   1.821   8.218  1.1788  1.8504 -1.2765
   91SAPS  C312 8922   4.604   1.745   8.230  0.2231  0.0731  0.1303
   91SAPS  H12X 8923   4.638   1.642   8.256 -1.4801 -1.6399 -3.6199
   91SAPS  H12Y 8924   4.516   1.732   8.163  0.9962 -1.0448 -0.7240
   91SAPS  C313 8925   4.568   1.829   8.356 -0.4839 -0.2631 -0.4070
   91SAPS  H13X 8926   4.484   1.791   8.419 -1.1796  0.0861 -1.1037
   91SAPS  H13Y 8927   4.535   1.931   8.326  0.3128 -0.6714 -2.8360
   91SAPS  C314 8928   4.681   1.841   8.464 -0.7381 -0.2557 -0.4731
   91SAPS  H14X 8929   4.647   1.901   8.551 -1.5427  0.1597 -1.0523
   91SAPS  H14Y 8930   4.755   1.910   8.420 -0.8163 -0.4519 -0.9159
   91SAPS  C315 8931   4.729   1.712   8.508 -0.0715 -0.3692 -0.4840
   91SAPS  H15X 8932   4.782   1.660   8.425 -1.5498  0.4135 -1.9925
   91SAPS  H15Y 8933   4.645   1.644   8.536  0.8680 -1.5896 -0.5721
   91SAPS  C316 8934   4.822   1.725   8.632 -0.5036 -0.8021 -0.1049
   91SAPS  H16X 8935   4.764   1.740   8.725  0.7103  2.4102  0.2562
   91SAPS  H16Y 8936   4.871   1.824   8.616 -0.6319 -0.9863 -1.8292
   91SAPS  C317 8937   4.937   1.621   8.645 -0.2054  0.1889 -0.0303
   91SAPS  H17X 8938   5.013   1.641   8.567 -0.1284  0.5943  0.1438
   91SAPS  H17Y 8939   4.907   1.514   8.641 -0.2670  0.1920  0.2850
   91SAPS  C318 8940   5.003   1.628   8.784 -0.5315  0.4117  0.1430
   91SAPS  H18X 8941   5.066   1.538   8.798  0.5292  1.2610  1.0829
   91SAPS  H18Y 8942   4.929   1.647   8.865 -0.5676 -0.2352  0.2651
   91SAPS  H18Z 8943   5.078   1.710   8.790  0.5981 -0.5055 -0.9420
   92SAPS     N 8944   4.761   1.015   6.366 -0.6753  1.1217 -0.0835
   92SAPS   HN1 8945   4.794   1.102   6.412  1.6486  0.2225  0.0730
   92SAPS   HN2 8946   4.695   1.045   6.291  1.2483  1.5471 -1.7090
   92SAPS   HN3 8947   4.724   0.944   6.433 -2.2173  1.2861 -0.7176
   92SAPS   C12 8948   4.882   0.958   6.289 -0.3162 -0.0964  0.4072
   92SAPS  H12A 8949   4.842   0.881   6.225 -0.8508  0.7267 -0.2809
   92SAPS   C13 8950   4.954   1.059   6.198  0.3037  0.2590 -0.0312
   92SAPS  O13A 8951   4.925   1.181   6.196 -0.4217  0.3181  0.2863
   92SAPS  O13B 8952   5.047   1.022   6.120 -0.8339  0.2304 -0.9416
   92SAPS   C11 8953   4.986   0.889   6.387 -0.3040  0.1243  0.4475
   92SAPS  H11A 8954   5.009   0.960   6.469 -1.0225 -0.4443  1.1599
   92SAPS  H11B 8955   5.082   0.869   6.335 -1.2668 -1.7563 -0.7213
   92SAPS     P 8956   4.953   0.635   6.383 -0.2330  0.2324 -0.5115
   92SAPS   O13 8957   4.822   0.591   6.318 -0.0784  0.4185 -0.3073
   92SAPS   O14 8958   5.073   0.626   6.288  0.0483  0.4379 -0.5421
   92SAPS   O12 8959   4.932   0.778   6.446  0.5759 -0.7982 -0.8598
   92SAPS   O11 8960   4.987   0.560   6.514 -0.2314 -0.3210 -0.0294
   92SAPS    C1 8961   4.886   0.526   6.609  0.0864 -0.0290  0.3052
   92SAPS    HA 8962   4.782   0.516   6.572  0.0685 -0.4313  0.4643
   92SAPS    HB 8963   4.914   0.423   6.638  1.1239  0.3438  0.6577
   92SAPS    C2 8964   4.884   0.612   6.733  0.0010 -0.2696 -0.6086
   92SAPS    HS 8965   4.991   0.620   6.761  0.2783 -0.6161 -1.5144
   92SAPS   O21 8966   4.810   0.535   6.829 -0.1850 -0.8236 -0.0210
   92SAPS   C21 8967   4.862   0.526   6.948 -0.5938 -0.4597 -0.1388
   92SAPS   O22 8968   4.951   0.595   6.996  0.3145  0.1402 -0.5033
   92SAPS   C22 8969   4.787   0.425   7.035  0.5264  0.4122 -0.5474
   92SAPS   H2R 8970   4.679   0.434   7.010  0.0961  1.4010  1.4134
   92SAPS   H2S 8971   4.824   0.323   7.013 -2.3912 -0.3803 -2.3487
   92SAPS    C3 8972   4.819   0.751   6.713 -0.5723 -0.8435 -0.4296
   92SAPS    HX 8973   4.738   0.728   6.640 -0.9510  0.3784 -0.4120
   92SAPS    HY 8974   4.899   0.814   6.669  0.4845 -1.1130  1.0477
   92SAPS   O31 8975   4.755   0.802   6.836 -0.6089 -0.5089 -0.0282
   92SAPS   C31 8976   4.846   0.862   6.912  0.3232 -0.0024  0.6265
   92SAPS   O32 8977   4.967   0.869   6.897  0.9767 -0.2732 -0.0445
   92SAPS   C32 8978   4.776   0.926   7.034 -0.3210  0.3550  0.3271
   92SAPS   H2X 8979   4.666   0.914   7.024 -0.4736  0.9822  1.1536
   92SAPS   H2Y 8980   4.805   1.032   7.050 -1.8302  0.6527  1.2894
   92SAPS   C23 8981   4.805   0.456   7.181 -0.0907  0.6938 -1.2284
   92SAPS   H3R 8982   4.767   0.558   7.204  2.1226  1.6302 -1.4858
   92SAPS   H3S 8983   4.915   0.455   7.201 -0.3534 -0.2528  0.3439
   92SAPS   C24 8984   4.737   0.349   7.263 -0.4731 -0.1733 -0.7945
   92SAPS   H4R 8985   4.777   0.250   7.231 -1.2797 -1.0439  0.7437
   92SAPS   H4S 8986   4.626   0.343   7.251 -0.9056  0.9847  1.7837
   92SAPS   C25 8987   4.771   0.377   7.404 -0.1687  0.7632  0.5423
   92SAPS   H5R 8988   4.879   0.380   7.426  0.3206 -0.9269 -1.2833
   92SAPS   C26 8989   4.687   0.366   7.514 -0.1331  0.1758 -0.5561
   92SAPS   H6R 8990   4.727   0.406   7.609  0.7577 -1.4175 -0.2327
   92SAPS   C27 8991   4.545   0.320   7.515 -0.1579 -1.2140  0.3933
   92SAPS   H7R 8992   4.544   0.218   7.559  0.8982 -1.3800  0.0649
   92SAPS   H7S 8993   4.500   0.315   7.413  1.8816 -0.3126 -0.6141
   92SAPS   C28 8994   4.454   0.421   7.583  0.0993 -0.5938 -0.0523
   92SAPS   H8R 8995   4.437   0.507   7.517  0.7113 -0.7053 -0.3612
   92SAPS   C29 8996   4.389   0.416   7.696  0.4127 -0.6940 -0.1783
   92SAPS   H9R 8997   4.344   0.510   7.732  0.7356 -0.2411 -0.9469
   92SAPS  C210 8998   4.401   0.303   7.793  0.0374 -0.1398 -0.3783
   92SAPS  H10R 8999   4.383   0.347   7.894 -4.0024 -0.6547 -0.7026
   92SAPS  H10S 9000   4.507   0.269   7.787  0.0223 -0.0946 -0.9754
   92SAPS  C211 9001   4.309   0.182   7.771  0.9020  0.1629  0.2069
   92SAPS  H11R 9002   4.275   0.164   7.668  1.6020 -1.3044  0.2078
   92SAPS  C212 9003   4.253   0.103   7.869  0.5177 -0.0441 -0.8504
   92SAPS  H12R 9004   4.188   0.023   7.831  0.9763 -0.2181 -1.2794
   92SAPS  C213 9005   4.273   0.107   8.023  0.0663 -1.4437 -0.0706
   92SAPS  H13R 9006   4.380   0.111   8.053 -0.5218  0.1259  2.0404
   92SAPS  H13S 9007   4.230   0.014   8.065 -2.0641 -0.8295 -0.7263
   92SAPS  C214 9008   4.196   0.227   8.078 -0.5388 -0.3402  1.0506
   92SAPS  H14R 9009   4.250   0.323   8.082  0.1786 -0.7621  2.8651
   92SAPS  C215 9010   4.075   0.221   8.138  0.3773 -0.4274 -0.3475
   92SAPS  H15R 9011   4.039   0.317   8.179  3.1474  1.6922 -2.4825
   92SAPS  C216 9012   3.997   0.097   8.157 -0.0239  0.4496 -0.3049
   92SAPS  H16R 9013   4.056   0.004   8.146  2.2627  1.3432  2.8901
   92SAPS  H16S 9014   3.915   0.088   8.082  0.0652 -1.1584 -0.2513
   92SAPS  C217 9015   3.937   0.091   8.300 -0.2045  0.4901  0.0403
   92SAPS  H17R 9016   3.847   0.156   8.307 -0.8824 -0.4097 -0.1548
   92SAPS  H17S 9017   4.024   0.113   8.367  0.8461 -4.1291  0.5096
   92SAPS  C218 9018   3.900  -0.056   8.343  0.1580 -0.1437  0.2106
   92SAPS  H18R 9019   3.985  -0.126   8.328  1.2233  1.1510  0.0709
   92SAPS  H18S 9020   3.823  -0.074   8.266  1.3486  0.2899 -1.1139
   92SAPS  C219 9021   3.831  -0.074   8.483  0.9575  0.3188  0.0353
   92SAPS  H19R 9022   3.757   0.008   8.495  0.4188 -0.1055 -0.3387
   92SAPS  H19S 9023   3.906  -0.051   8.561 -0.9807  3.3065  1.2187
   92SAPS  C220 9024   3.771  -0.210   8.507 -0.1483  0.2034  0.5758
   92SAPS  H20R 9025   3.722  -0.237   8.411  2.1046 -3.1251  0.1989
   92SAPS  H20S 9026   3.710  -0.228   8.597  1.0355  1.1678  1.6142
   92SAPS  H20T 9027   3.853  -0.283   8.521 -0.2967 -0.2456 -0.7150
   92SAPS   C33 9028   4.824   0.854   7.168  0.8879 -0.4470  0.3680
   92SAPS   H3X 9029   4.931   0.861   7.195  0.5799  1.3543  1.2528
   92SAPS   H3Y 9030   4.808   0.748   7.136  0.2027  0.1792 -1.4908
   92SAPS   C34 9031   4.747   0.881   7.294  0.0488  0.4350  1.0172
   92SAPS   H4X 9032   4.641   0.857   7.267  0.8509 -1.3870 -0.8011
   92SAPS   H4Y 9033   4.752   0.990   7.314  0.8963  0.4819  0.5925
   92SAPS   C35 9034   4.799   0.816   7.415  0.0514  0.2759 -0.2574
   92SAPS   H5X 9035   4.904   0.849   7.428 -0.1803  0.2210  2.3634
   92SAPS   H5Y 9036   4.791   0.706   7.407  0.1555  0.2804 -0.4166
   92SAPS   C36 9037   4.726   0.846   7.544 -0.1422  0.1455 -0.4159
   92SAPS   H6X 9038   4.619   0.869   7.525  0.2165  1.0455 -1.4408
   92SAPS   H6Y 9039   4.762   0.938   7.596  1.3456 -2.8088  4.4434
   92SAPS   C37 9040   4.734   0.725   7.629  0.3159  0.5059 -0.4601
   92SAPS   H7X 9041   4.840   0.693   7.641  0.3702  0.3874 -1.1960
   92SAPS   H7Y 9042   4.666   0.642   7.599  1.8140 -0.2554 -1.8848
   92SAPS   C38 9043   4.695   0.763   7.776  0.4356  0.1803  0.3981
   92SAPS   H8X 9044   4.590   0.800   7.764  0.3837  0.4067  1.4146
   92SAPS   H8Y 9045   4.756   0.846   7.817  1.6699  0.5335 -2.0551
   92SAPS   C39 9046   4.687   0.647   7.872  0.1147 -0.3832 -0.7356
   92SAPS   H9X 9047   4.795   0.631   7.893 -0.2088  0.9829  2.5103
   92SAPS   H9Y 9048   4.640   0.562   7.818  0.6781 -0.3293 -1.3302
   92SAPS  C310 9049   4.608   0.656   8.008 -0.2485 -0.3079  0.3409
   92SAPS  H10X 9050   4.501   0.651   7.978 -0.4529 -0.1535  1.0423
   92SAPS  H10Y 9051   4.621   0.756   8.054 -1.9086 -0.0780  0.3447
   92SAPS  C311 9052   4.646   0.539   8.096  0.8064 -0.1444  0.2646
   92SAPS  H11X 9053   4.752   0.554   8.123  0.7945 -2.8065  2.1615
   92SAPS  H11Y 9054   4.626   0.437   8.057 -1.9752 -0.3276  1.8857
   92SAPS  C312 9055   4.565   0.547   8.227 -0.2403  0.5008  0.7448
   92SAPS  H12X 9056   4.457   0.554   8.203 -0.8442 -4.3282  1.2001
   92SAPS  H12Y 9057   4.598   0.640   8.279 -0.9787  1.9562 -1.2868
   92SAPS  C313 9058   4.575   0.423   8.311 -0.3549 -0.4320  0.2642
   92SAPS  H13X 9059   4.682   0.414   8.340  0.3424 -0.7753 -2.2142
   92SAPS  H13Y 9060   4.569   0.333   8.248  0.1234  0.2991 -0.8637
   92SAPS  C314 9061   4.496   0.422   8.446  0.8043 -0.5557 -0.2091
   92SAPS  H14X 9062   4.463   0.316   8.456 -0.0715 -0.2487  0.2026
   92SAPS  H14Y 9063   4.401   0.476   8.430  0.0433 -2.0745 -1.0547
   92SAPS  C315 9064   4.581   0.478   8.552 -0.3383 -0.0417 -0.2355
   92SAPS  H15X 9065   4.614   0.573   8.506 -1.1185 -0.8496 -2.5943
   92SAPS  H15Y 9066   4.673   0.418   8.566 -0.5664 -0.0782  1.3386
   92SAPS  C316 9067   4.502   0.488   8.681 -0.9595  0.5284 -0.1129
   92SAPS  H16X 9068   4.500   0.391   8.735 -1.1894  1.2873  1.2964
   92SAPS  H16Y 9069   4.394   0.505   8.665 -1.1400 -2.7598 -3.6267
   92SAPS  C317 9070   4.571   0.586   8.775  1.2651 -0.7108  0.1020
   92SAPS  H17X 9071   4.674   0.553   8.800  0.3413 -2.3611  1.9926
   92SAPS  H17Y 9072   4.517   0.588   8.873  0.4607  1.7232 -0.3175
   92SAPS  C318 9073   4.578   0.729   8.717  0.2338 -0.1383  0.1722
   92SAPS  H18X 9074   4.481   0.750   8.668  0.1211 -1.6497 -0.3199
   92SAPS  H18Y 9075   4.651   0.721   8.633  0.3318 -2.8878  0.4031
   92SAPS  H18Z 9076   4.611   0.803   8.793  1.3527 -0.2587 -0.1685
   93SAPS     N 9077   5.550   2.647   6.044  0.3580 -0.2336  0.3040
   93SAPS   HN1 9078   5.477   2.576   6.060  0.1608  0.1701  1.3206
   93SAPS   HN2 9079   5.544   2.712   6.125 -0.2789 -0.5761  0.5386
   93SAPS   HN3 9080   5.525   2.688   5.952 -0.1702  0.2208  0.6468
   93SAPS   C12 9081   5.680   2.572   6.038 -0.0001 -0.2243  0.2212
   93SAPS  H12A 9082   5.677   2.492   5.965  1.5994  0.6994 -0.9220
   93SAPS   C13 9083   5.812   2.653   6.013 -0.5985  0.3011 -0.4631
   93SAPS  O13A 9084   5.818   2.772   5.975  0.3490 -0.3883  0.2271
   93SAPS  O13B 9085   5.920   2.582   6.028 -0.1069 -0.1437 -0.5045
   93SAPS   C11 9086   5.692   2.489   6.172  0.1324  0.0563  0.3842
   93SAPS  H11A 9087   5.731   2.556   6.251  1.2741 -0.0755 -0.0540
   93SAPS  H11B 9088   5.778   2.421   6.151  0.5717  0.7399 -0.0647
   93SAPS     P 9089   5.568   2.298   6.314  0.0077  0.3117  0.0190
   93SAPS   O13 9090   5.447   2.297   6.404  0.5531 -0.1306 -0.1808
   93SAPS   O14 9091   5.593   2.177   6.230  0.2576  0.4243 -0.4501
   93SAPS   O12 9092   5.564   2.425   6.217  0.4033  0.1947 -0.7613
   93SAPS   O11 9093   5.696   2.336   6.395  0.0341 -0.2387 -0.0209
   93SAPS    C1 9094   5.676   2.421   6.504  0.7168 -0.0860  0.2044
   93SAPS    HA 9095   5.630   2.516   6.468 -1.0180 -1.1934 -0.5859
   93SAPS    HB 9096   5.610   2.380   6.583 -1.8348  1.0016 -1.2446
   93SAPS    C2 9097   5.806   2.456   6.588  0.5903  0.0971  0.1722
   93SAPS    HS 9098   5.873   2.484   6.504 -0.9621  1.3253 -0.7354
   93SAPS   O21 9099   5.835   2.341   6.664  0.2273  0.1710 -0.4292
   93SAPS   C21 9100   5.957   2.321   6.711 -0.0188 -0.0176  1.0111
   93SAPS   O22 9101   6.051   2.386   6.669 -0.3502  0.1972  0.0826
   93SAPS   C22 9102   5.953   2.217   6.823  0.1510  0.5915 -0.0107
   93SAPS   H2R 9103   5.874   2.250   6.894  0.4235 -0.6166  0.8901
   93SAPS   H2S 9104   5.917   2.123   6.775 -0.4037  0.4076  0.7272
   93SAPS    C3 9105   5.803   2.587   6.680 -0.1106  0.2671  0.2194
   93SAPS    HX 9106   5.785   2.674   6.612  0.3055  0.8111  0.8005
   93SAPS    HY 9107   5.907   2.603   6.714  1.5459  0.8389 -4.4048
   93SAPS   O31 9108   5.691   2.580   6.775 -0.5484  0.6495  0.6568
   93SAPS   C31 9109   5.718   2.531   6.890  0.2696  0.2894  0.3134
   93SAPS   O32 9110   5.826   2.500   6.939  0.3086 -0.4073  0.8571
   93SAPS   C32 9111   5.586   2.546   6.974 -0.0649 -0.2598 -0.5128
   93SAPS   H2X 9112   5.522   2.464   6.933  0.2129 -1.4300  1.2416
   93SAPS   H2Y 9113   5.550   2.651   6.968  3.4988  1.2775  1.8643
   93SAPS   C23 9114   6.090   2.204   6.884  0.1872  0.5126 -0.3175
   93SAPS   H3R 9115   6.102   2.292   6.950  0.7423  0.0079  0.2786
   93SAPS   H3S 9116   6.167   2.192   6.805 -0.9523 -2.9270 -1.0632
   93SAPS   C24 9117   6.091   2.071   6.976 -0.7095  0.3998  0.0477
   93SAPS   H4R 9118   6.105   1.987   6.904  3.0555  1.5667 -0.8071
   93SAPS   H4S 9119   5.990   2.053   7.019  0.0092 -1.4234  1.0477
   93SAPS   C25 9120   6.210   2.071   7.067 -0.4259 -0.3012 -0.1120
   93SAPS   H5R 9121   6.307   2.050   7.020 -1.0505 -1.8556 -0.7641
   93SAPS   C26 9122   6.199   2.093   7.202  0.4080 -0.0895 -0.7433
   93SAPS   H6R 9123   6.285   2.087   7.271 -0.6240  1.4755  0.7585
   93SAPS   C27 9124   6.077   2.132   7.276  0.6902  0.1242 -0.4073
   93SAPS   H7R 9125   6.007   2.168   7.197 -1.7898 -0.4302  1.4318
   93SAPS   H7S 9126   6.095   2.216   7.346 -0.2872  0.3769 -0.4467
   93SAPS   C28 9127   6.025   2.021   7.358 -0.3350  1.0840 -0.0456
   93SAPS   H8R 9128   6.072   1.923   7.346  0.1686  1.0925  1.6193
   93SAPS   C29 9129   5.940   2.035   7.468 -0.7729  0.2028  0.0208
   93SAPS   H9R 9130   5.908   1.942   7.518  0.0222 -0.3082 -0.4041
   93SAPS  C210 9131   5.880   2.164   7.516 -0.1885 -0.1541 -0.2747
   93SAPS  H10R 9132   5.782   2.130   7.556  0.6240 -0.9359  1.1227
   93SAPS  H10S 9133   5.854   2.222   7.425  0.9604 -1.5781 -1.5827
   93SAPS  C211 9134   5.955   2.240   7.617 -0.1792  0.0185  0.4622
   93SAPS  H11R 9135   6.042   2.302   7.592 -0.5794  0.7645  0.8990
   93SAPS  C212 9136   5.941   2.228   7.747  0.1167  0.4393 -0.1213
   93SAPS  H12R 9137   6.000   2.289   7.817 -0.8888  0.4972  0.6943
   93SAPS  C213 9138   5.838   2.147   7.820  0.2341  0.0125  0.2682
   93SAPS  H13R 9139   5.888   2.107   7.912 -1.0945 -1.9744  0.1941
   93SAPS  H13S 9140   5.811   2.052   7.768  0.3827 -0.5507  1.1767
   93SAPS  C214 9141   5.713   2.225   7.863  0.2515 -0.1468 -0.3695
   93SAPS  H14R 9142   5.641   2.242   7.782  1.9697  3.2513 -1.3945
   93SAPS  C215 9143   5.690   2.283   7.982  0.8731  0.7101 -0.0001
   93SAPS  H15R 9144   5.601   2.345   7.996  1.4209  1.1496  1.8804
   93SAPS  C216 9145   5.781   2.287   8.096  0.1740  0.0695 -0.3629
   93SAPS  H16R 9146   5.758   2.380   8.153  0.0347  0.5152 -1.1331
   93SAPS  H16S 9147   5.889   2.286   8.071  1.3730 -1.0288  3.9885
   93SAPS  C217 9148   5.757   2.170   8.199 -0.7984 -0.1595 -0.3653
   93SAPS  H17R 9149   5.767   2.073   8.146 -1.0908 -0.8063  0.7266
   93SAPS  H17S 9150   5.648   2.175   8.224 -1.1916 -1.4449 -1.6837
   93SAPS  C218 9151   5.859   2.186   8.312  0.9229 -0.4320 -0.6624
   93SAPS  H18R 9152   5.838   2.280   8.368  0.2847 -2.1797  2.2023
   93SAPS  H18S 9153   5.962   2.183   8.270  0.8920  3.4101 -1.3850
   93SAPS  C219 9154   5.855   2.061   8.400 -0.1535 -0.1245 -0.3679
   93SAPS  H19R 9155   5.934   2.086   8.474  0.9443  0.2940 -1.6524
   93SAPS  H19S 9156   5.891   1.969   8.348  0.1048  0.0403 -0.4801
   93SAPS  C220 9157   5.723   2.044   8.473  0.2439 -0.0549 -0.0869
   93SAPS  H20R 9158   5.733   1.966   8.552  0.4903  0.4349  0.3776
   93SAPS  H20S 9159   5.645   2.014   8.401 -1.2758 -0.5522  1.6868
   93SAPS  H20T 9160   5.690   2.138   8.521 -0.5084 -0.4068  0.1031
   93SAPS   C33 9161   5.613   2.526   7.127  0.1564  0.2878 -0.7143
   93SAPS   H3X 9162   5.699   2.585   7.167  1.0121 -0.9731 -0.6328
   93SAPS   H3Y 9163   5.634   2.418   7.144  1.1588  0.3003 -1.7273
   93SAPS   C34 9164   5.493   2.558   7.212 -0.9172 -0.6629 -0.2944
   93SAPS   H4X 9165   5.415   2.480   7.210 -0.2948 -1.3171  0.2169
   93SAPS   H4Y 9166   5.452   2.660   7.195  0.9596  0.6733  2.3903
   93SAPS   C35 9167   5.521   2.560   7.360 -0.1566 -0.1435 -0.1704
   93SAPS   H5X 9168   5.558   2.459   7.388 -0.9423 -0.4530 -0.2316
   93SAPS   H5Y 9169   5.423   2.564   7.412 -0.6000  2.3908 -1.0634
   93SAPS   C36 9170   5.600   2.685   7.427 -0.3789  0.3193  0.1666
   93SAPS   H6X 9171   5.528   2.767   7.449 -1.6679 -0.7252  0.0009
   93SAPS   H6Y 9172   5.674   2.716   7.350  1.2971 -0.4031  1.4224
   93SAPS   C37 9173   5.668   2.646   7.565 -0.2935  0.0936  0.3903
   93SAPS   H7X 9174   5.730   2.727   7.608  2.1405 -0.0249 -2.5084
   93SAPS   H7Y 9175   5.745   2.568   7.548  0.3620  0.2512  2.4141
   93SAPS   C38 9176   5.575   2.605   7.674  0.9538  0.6940 -0.7162
   93SAPS   H8X 9177   5.636   2.556   7.753 -1.6110  0.1608  1.0682
   93SAPS   H8Y 9178   5.511   2.522   7.636  0.5786  0.2274  0.8550
   93SAPS   C39 9179   5.492   2.726   7.723  0.6072  0.6116 -0.1784
   93SAPS   H9X 9180   5.415   2.752   7.648  1.1501 -2.6829 -2.0167
   93SAPS   H9Y 9181   5.569   2.806   7.732  1.2964 -0.1290  0.7198
   93SAPS  C310 9182   5.422   2.702   7.860  0.1885  0.0540  0.0931
   93SAPS  H10X 9183   5.348   2.784   7.878 -0.0283 -0.1181 -0.0069
   93SAPS  H10Y 9184   5.501   2.718   7.936 -1.0460 -0.4455  1.5411
   93SAPS  C311 9185   5.360   2.563   7.878 -0.5794  0.3633  0.4020
   93SAPS  H11X 9186   5.439   2.485   7.873 -1.2144 -0.2375 -0.4181
   93SAPS  H11Y 9187   5.289   2.541   7.796  2.3832 -0.8233 -2.0308
   93SAPS  C312 9188   5.298   2.563   8.011  0.3803  0.0511 -1.2432
   93SAPS  H12X 9189   5.216   2.637   8.027 -0.6090 -1.5426  1.8507
   93SAPS  H12Y 9190   5.374   2.598   8.084  0.0400  0.2135 -0.9616
   93SAPS  C313 9191   5.249   2.427   8.061 -0.0347  0.0757  0.1859
   93SAPS  H13X 9192   5.296   2.347   8.001  0.2296 -0.2452  0.8133
   93SAPS  H13Y 9193   5.141   2.412   8.040 -0.8163  0.0205  3.6881
   93SAPS  C314 9194   5.283   2.408   8.210 -0.2904 -0.0723  0.3506
   93SAPS  H14X 9195   5.226   2.324   8.255 -0.6926  0.6611  1.2385
   93SAPS  H14Y 9196   5.259   2.499   8.268  0.7931 -0.7590  1.9539
   93SAPS  C315 9197   5.439   2.395   8.241 -0.1022  0.0901 -0.0402
   93SAPS  H15X 9198   5.496   2.477   8.192 -1.6172  0.7026 -0.8500
   93SAPS  H15Y 9199   5.472   2.309   8.179 -1.7019 -0.9456  0.4776
   93SAPS  C316 9200   5.463   2.375   8.393 -0.1088 -0.1287  0.4853
   93SAPS  H16X 9201   5.572   2.374   8.415  0.2334  1.2826 -0.9051
   93SAPS  H16Y 9202   5.419   2.276   8.416 -1.2169  0.2953  0.2429
   93SAPS  C317 9203   5.405   2.489   8.477 -0.0521  0.0228  0.3326
   93SAPS  H17X 9204   5.401   2.470   8.586 -1.6033  0.7026  0.4206
   93SAPS  H17Y 9205   5.295   2.483   8.466 -0.2027  1.9131  0.5777
   93SAPS  C318 9206   5.467   2.627   8.448  0.3637 -0.3824  0.2277
   93SAPS  H18X 9207   5.443   2.670   8.349  2.3752 -0.5139 -0.3632
   93SAPS  H18Y 9208   5.578   2.618   8.456  0.4849  1.4760  1.4923
   93SAPS  H18Z 9209   5.438   2.700   8.527 -1.2876  0.6205 -1.2340
   94SAPS     N 9210   4.876   2.338   5.904  0.2723 -0.5296 -0.0644
   94SAPS   HN1 9211   4.879   2.317   5.802 -2.0924 -0.5602 -0.1790
   94SAPS   HN2 9212   4.969   2.374   5.933  1.2433 -2.5691 -0.4346
   94SAPS   HN3 9213   4.868   2.245   5.949  0.8391 -0.3777  0.3591
   94SAPS   C12 9214   4.757   2.428   5.925  0.0876  0.3515  0.3202
   94SAPS  H12A 9215   4.793   2.521   5.883  2.3029  0.1287  1.5803
   94SAPS   C13 9216   4.624   2.387   5.854 -0.2974  0.1350  0.2727
   94SAPS  O13A 9217   4.618   2.282   5.794  0.1809  0.6483  0.4953
   94SAPS  O13B 9218   4.531   2.470   5.852  0.0998 -0.1906  0.0976
   94SAPS   C11 9219   4.725   2.450   6.069 -0.9284 -0.2779 -0.0408
   94SAPS  H11A 9220   4.703   2.359   6.129 -2.3181  1.6560  2.5737
   94SAPS  H11B 9221   4.627   2.501   6.063 -0.2144  1.0346 -1.3143
   94SAPS     P 9222   4.818   2.685   6.138 -0.1253  0.0436 -0.0771
   94SAPS   O13 9223   4.940   2.744   6.197 -0.0622  0.4336 -0.1318
   94SAPS   O14 9224   4.776   2.726   6.006  0.1972  0.1730 -0.2655
   94SAPS   O12 9225   4.826   2.528   6.138 -0.4542  0.4069 -0.1448
   94SAPS   O11 9226   4.695   2.717   6.232  0.7982  0.8042 -0.0280
   94SAPS    C1 9227   4.707   2.702   6.373  0.1848  0.8416 -0.4687
   94SAPS    HA 9228   4.615   2.645   6.399 -2.7001  4.2715 -2.2110
   94SAPS    HB 9229   4.793   2.641   6.409 -1.4686 -1.0316  0.4986
   94SAPS    C2 9230   4.720   2.834   6.458  0.2341 -0.0540  0.5864
   94SAPS    HS 9231   4.820   2.881   6.443  0.4477 -0.0364  1.9602
   94SAPS   O21 9232   4.696   2.804   6.596 -0.2021 -0.1104 -0.1828
   94SAPS   C21 9233   4.796   2.748   6.659 -1.0525 -0.0587  0.5944
   94SAPS   O22 9234   4.912   2.748   6.613 -0.2167  0.4223 -0.2666
   94SAPS   C22 9235   4.755   2.688   6.793  0.3984  0.2732  0.5550
   94SAPS   H2R 9236   4.791   2.758   6.871 -0.8644  1.8751 -0.2416
   94SAPS   H2S 9237   4.644   2.680   6.798  0.4992 -0.8199  1.6684
   94SAPS    C3 9238   4.628   2.951   6.416  0.1139  0.5618  0.7778
   94SAPS    HX 9239   4.529   2.903   6.430  0.3924 -1.1011 -2.0708
   94SAPS    HY 9240   4.625   2.978   6.308 -1.5758 -0.5998  0.4930
   94SAPS   O31 9241   4.642   3.067   6.503  0.4404 -0.2564  0.1175
   94SAPS   C31 9242   4.744   3.150   6.488 -0.9983  0.0707 -0.5001
   94SAPS   O32 9243   4.829   3.135   6.403 -0.6776  0.5451  0.2926
   94SAPS   C32 9244   4.750   3.257   6.594  1.2698 -0.2811 -0.2245
   94SAPS   H2X 9245   4.646   3.274   6.628  1.4039 -0.7254  0.4402
   94SAPS   H2Y 9246   4.786   3.349   6.543  0.5761 -0.4392 -1.0152
   94SAPS   C23 9247   4.806   2.546   6.827  0.1947  0.1752 -0.0270
   94SAPS   H3R 9248   4.916   2.542   6.812  0.4399 -0.4800  1.6768
   94SAPS   H3S 9249   4.762   2.470   6.760 -0.2454  1.3799 -1.1346
   94SAPS   C24 9250   4.791   2.502   6.977 -0.1531  0.2398 -0.0123
   94SAPS   H4R 9251   4.683   2.484   6.990 -0.5678  2.8883  0.9887
   94SAPS   H4S 9252   4.825   2.581   7.048 -0.8393 -0.1666  0.7796
   94SAPS   C25 9253   4.863   2.380   7.015 -0.8322  0.1449 -0.6052
   94SAPS   H5R 9254   4.872   2.299   6.942  3.0845  0.9061 -1.2114
   94SAPS   C26 9255   4.928   2.355   7.129  0.3480 -0.4468  0.0307
   94SAPS   H6R 9256   4.961   2.250   7.140 -2.3635 -1.4398 -0.5167
   94SAPS   C27 9257   4.921   2.426   7.257 -0.1142  0.0816  0.0873
   94SAPS   H7R 9258   4.930   2.353   7.341 -3.7766 -0.9478 -0.2138
   94SAPS   H7S 9259   4.819   2.465   7.278 -0.2394 -1.1401  2.1204
   94SAPS   C28 9260   5.032   2.525   7.260  0.2384  0.7374  0.0919
   94SAPS   H8R 9261   5.068   2.554   7.160 -0.2388  1.7836  0.2099
   94SAPS   C29 9262   5.104   2.567   7.365  0.2008  0.1887 -0.3704
   94SAPS   H9R 9263   5.185   2.640   7.357  0.4898  0.5773  3.8041
   94SAPS  C210 9264   5.086   2.533   7.506 -0.6007 -0.0510  0.1036
   94SAPS  H10R 9265   5.184   2.548   7.555 -0.2655 -1.8362  0.0488
   94SAPS  H10S 9266   5.045   2.430   7.519 -0.5481  0.1138  1.7877
   94SAPS  C211 9267   4.987   2.618   7.582  0.2337 -0.1008 -0.1425
   94SAPS  H11R 9268   4.963   2.716   7.537  1.7635 -0.5987 -2.1852
   94SAPS  C212 9269   4.924   2.577   7.699 -0.2025 -0.1182 -0.6336
   94SAPS  H12R 9270   4.866   2.657   7.747  0.2301  0.3224 -0.8275
   94SAPS  C213 9271   4.949   2.450   7.775  0.6165  0.0122  0.2764
   94SAPS  H13R 9272   4.980   2.469   7.880 -1.1036  0.6817  0.6936
   94SAPS  H13S 9273   5.029   2.391   7.725  0.7868 -1.3569  2.0435
   94SAPS  C214 9274   4.822   2.362   7.767  0.5445 -0.5098  0.8371
   94SAPS  H14R 9275   4.762   2.379   7.677  0.8002  0.8140  0.8912
   94SAPS  C215 9276   4.795   2.259   7.845 -1.2285  0.7674  0.5249
   94SAPS  H15R 9277   4.699   2.205   7.845  0.3285 -2.2320  0.8803
   94SAPS  C216 9278   4.874   2.221   7.967 -0.7374  0.1629  0.4831
   94SAPS  H16R 9279   4.981   2.252   7.961 -1.4227  2.6288 -0.0402
   94SAPS  H16S 9280   4.881   2.110   7.967  1.0271  0.1865 -1.9885
   94SAPS  C217 9281   4.826   2.281   8.100  0.0236  0.3603  0.7497
   94SAPS  H17R 9282   4.722   2.246   8.118  0.1986  0.0186  1.1285
   94SAPS  H17S 9283   4.811   2.388   8.076 -0.0625 -0.1193 -1.5119
   94SAPS  C218 9284   4.900   2.259   8.227 -0.6561  0.0966 -1.0957
   94SAPS  H18R 9285   4.996   2.315   8.225 -0.5661 -0.0654 -1.3703
   94SAPS  H18S 9286   4.937   2.154   8.236 -0.7803  0.0410 -1.2424
   94SAPS  C219 9287   4.824   2.304   8.351 -0.2237 -0.1014 -0.1713
   94SAPS  H19R 9288   4.736   2.238   8.365 -0.1230 -0.1016  0.4648
   94SAPS  H19S 9289   4.787   2.407   8.332  2.0242  0.8302  0.2064
   94SAPS  C220 9290   4.910   2.306   8.478 -0.1311  0.3545  0.8241
   94SAPS  H20R 9291   4.965   2.212   8.500 -3.7279 -1.1482  4.6274
   94SAPS  H20S 9292   4.856   2.321   8.573  0.5140 -1.0173  1.4464
   94SAPS  H20T 9293   4.985   2.388   8.473  0.4056 -0.1755 -3.0781
   94SAPS   C33 9294   4.834   3.226   6.710  0.1748  0.0299  0.0313
   94SAPS   H3X 9295   4.839   3.312   6.780  2.4716 -0.6130  0.7607
   94SAPS   H3Y 9296   4.937   3.220   6.668 -0.5545 -0.1622 -1.8261
   94SAPS   C34 9297   4.805   3.098   6.799  0.0640 -0.5690  0.3922
   94SAPS   H4X 9298   4.852   3.016   6.740  2.2839 -1.5747  3.2938
   94SAPS   H4Y 9299   4.695   3.099   6.808  0.0509 -0.6569  0.2326
   94SAPS   C35 9300   4.865   3.113   6.942 -0.1805  0.1219 -0.0995
   94SAPS   H5X 9301   4.842   3.211   6.988  1.8983  0.2835  0.7025
   94SAPS   H5Y 9302   4.975   3.113   6.924 -0.4920  3.0502 -2.8346
   94SAPS   C36 9303   4.821   3.003   7.045 -0.3694 -0.3903 -0.5704
   94SAPS   H6X 9304   4.870   2.904   7.031 -1.1447 -0.8779  0.0608
   94SAPS   H6Y 9305   4.711   3.005   7.034 -0.1457  0.5412 -3.2651
   94SAPS   C37 9306   4.871   3.043   7.190 -0.3393 -0.0304  1.1410
   94SAPS   H7X 9307   4.853   3.152   7.202 -0.9690 -0.0551  0.4926
   94SAPS   H7Y 9308   4.979   3.020   7.191 -0.2649 -0.5158 -2.7161
   94SAPS   C38 9309   4.806   2.954   7.299  0.6512 -0.1513 -0.0145
   94SAPS   H8X 9310   4.814   2.846   7.277 -0.3590 -0.5802  1.5296
   94SAPS   H8Y 9311   4.697   2.972   7.292  0.2958 -2.0657  0.1987
   94SAPS   C39 9312   4.866   2.964   7.440  0.4202 -0.8198 -0.3087
   94SAPS   H9X 9313   4.976   2.951   7.431  1.1414  1.3324  3.2088
   94SAPS   H9Y 9314   4.815   2.888   7.503 -0.7956 -1.2998 -1.8324
   94SAPS  C310 9315   4.838   3.100   7.501 -0.5526  0.0026 -0.2153
   94SAPS  H10X 9316   4.731   3.110   7.473 -0.8160 -2.1020 -0.1155
   94SAPS  H10Y 9317   4.912   3.168   7.454 -0.8744  0.7012  0.2622
   94SAPS  C311 9318   4.859   3.095   7.655  0.2989  0.1199  0.0478
   94SAPS  H11X 9319   4.790   3.023   7.704  1.0222 -0.4374  0.2681
   94SAPS  H11Y 9320   4.824   3.194   7.692  0.1392  1.4432 -3.2932
   94SAPS  C312 9321   5.002   3.074   7.693 -0.4676 -0.2032  0.3630
   94SAPS  H12X 9322   5.059   3.144   7.628  0.2039 -1.4549 -0.4379
   94SAPS  H12Y 9323   5.029   2.968   7.673 -0.3500 -0.2849  0.9430
   94SAPS  C313 9324   5.043   3.100   7.839  0.3571  0.5724 -0.1862
   94SAPS  H13X 9325   5.029   3.206   7.869 -1.5149  0.4728 -0.5751
   94SAPS  H13Y 9326   5.153   3.085   7.849  0.6094  0.6013 -2.3978
   94SAPS  C314 9327   4.967   3.008   7.940 -0.1346  0.3487  0.1467
   94SAPS  H14X 9328   4.994   2.908   7.902  2.2398  0.6581  0.8686
   94SAPS  H14Y 9329   4.857   3.024   7.937 -0.3662 -1.0742  0.5487
   94SAPS  C315 9330   5.018   3.019   8.084  0.1535 -0.3684 -0.9828
   94SAPS  H15X 9331   5.030   3.119   8.131 -0.8891 -1.7293  2.4392
   94SAPS  H15Y 9332   5.117   2.969   8.073 -0.5072 -1.8433 -0.4014
   94SAPS  C316 9333   4.933   2.934   8.181  0.2076 -0.5514  0.2131
   94SAPS  H16X 9334   4.891   2.838   8.143 -0.9601  0.1827 -0.4143
   94SAPS  H16Y 9335   4.844   2.998   8.201  1.2462  0.9201  0.2768
   94SAPS  C317 9336   4.995   2.897   8.319 -0.1595 -0.2830  0.5958
   94SAPS  H17X 9337   4.911   2.849   8.375 -1.8341  1.6052 -0.1752
   94SAPS  H17Y 9338   5.018   2.987   8.379 -2.0870  0.1798  0.7128
   94SAPS  C318 9339   5.112   2.797   8.317  0.0147  0.4160  0.7609
   94SAPS  H18X 9340   5.188   2.814   8.238  1.5062  1.4307  2.3328
   94SAPS  H18Y 9341   5.071   2.698   8.287  0.6596  0.1157  0.8458
   94SAPS  H18Z 9342   5.154   2.784   8.419  3.6599  1.0329 -0.5144
   95SAPS     N 9343   1.203   6.650   6.155  0.4000 -0.0316 -0.2778
   95SAPS   HN1 9344   1.180   6.745   6.190  1.5845  0.7593 -1.5494
   95SAPS   HN2 9345   1.150   6.649   6.065 -1.1906 -3.3517  0.5580
   95SAPS   HN3 9346   1.156   6.587   6.223  1.6769  0.3276  0.9766
   95SAPS   C12 9347   1.349   6.643   6.134 -0.3961  0.3742 -0.0738
   95SAPS  H12A 9348   1.392   6.648   6.233 -1.2783 -1.8715  0.4912
   95SAPS   C13 9349   1.401   6.509   6.068 -0.2646 -0.2121 -0.3630
   95SAPS  O13A 9350   1.322   6.422   6.015  0.1945  0.2247  0.0843
   95SAPS  O13B 9351   1.526   6.489   6.071 -0.5436  0.3363  0.5850
   95SAPS   C11 9352   1.417   6.767   6.064  0.4983  0.2582 -0.0615
   95SAPS  H11A 9353   1.389   6.781   5.957 -0.3519  1.8513  0.3466
   95SAPS  H11B 9354   1.526   6.746   6.059  0.2371 -1.4238  0.6112
   95SAPS     P 9355   1.415   7.030   6.103 -0.1224  0.2665  0.1811
   95SAPS   O13 9356   1.556   7.036   6.055  0.3968  0.1618  0.2493
   95SAPS   O14 9357   1.308   7.074   6.011 -0.4667  0.8692  0.0211
   95SAPS   O12 9358   1.392   6.878   6.146  0.3074  0.0950  0.3859
   95SAPS   O11 9359   1.393   7.100   6.244 -0.2540  0.3515  0.0073
   95SAPS    C1 9360   1.445   7.043   6.363  0.1446 -0.3217  0.6060
   95SAPS    HA 9361   1.540   6.989   6.345  0.3719  0.0473  0.7046
   95SAPS    HB 9362   1.481   7.124   6.429  1.4215 -2.3640  2.5763
   95SAPS    C2 9363   1.341   6.955   6.445 -0.1894 -0.8228 -0.1731
   95SAPS    HS 9364   1.250   6.929   6.386 -1.1756 -1.3858  1.5237
   95SAPS   O21 9365   1.307   7.027   6.571  0.0093  0.3879  0.0638
   95SAPS   C21 9366   1.223   7.130   6.560  0.4943  0.4146 -0.5986
   95SAPS   O22 9367   1.159   7.154   6.458  0.2008 -0.0737 -0.0075
   95SAPS   C22 9368   1.214   7.200   6.692 -0.4339 -0.2852 -0.0153
   95SAPS   H2R 9369   1.109   7.219   6.722 -0.4746  3.9694 -2.0363
   95SAPS   H2S 9370   1.264   7.144   6.773  2.0099  1.0782 -0.4570
   95SAPS    C3 9371   1.411   6.819   6.488 -0.4071 -0.1012  0.0538
   95SAPS    HX 9372   1.515   6.848   6.513  0.3815 -1.6136 -1.2980
   95SAPS    HY 9373   1.429   6.759   6.396  0.0414  2.8988 -1.9676
   95SAPS   O31 9374   1.342   6.750   6.599  0.0522  0.5112  0.1527
   95SAPS   C31 9375   1.264   6.653   6.553  0.2521  0.1579  0.4203
   95SAPS   O32 9376   1.255   6.611   6.440 -0.1550 -0.4915 -0.2747
   95SAPS   C32 9377   1.195   6.585   6.676 -0.0973 -0.1954  0.2057
   95SAPS   H2X 9378   1.199   6.651   6.765 -2.9534  1.4755 -0.7850
   95SAPS   H2Y 9379   1.248   6.489   6.694 -1.6972 -1.1642 -0.0743
   95SAPS   C23 9380   1.276   7.345   6.693  0.6901  0.3743  0.2599
   95SAPS   H3R 9381   1.211   7.396   6.767 -0.9671 -1.5748  0.2401
   95SAPS   H3S 9382   1.244   7.393   6.598 -0.6669 -0.8736  0.0435
   95SAPS   C24 9383   1.424   7.350   6.733 -0.1207  0.5276  0.1813
   95SAPS   H4R 9384   1.484   7.304   6.652 -0.3183  1.0202 -0.2437
   95SAPS   H4S 9385   1.439   7.291   6.827 -0.2401  2.1515  1.2522
   95SAPS   C25 9386   1.459   7.491   6.750 -0.4830 -0.1301  0.5844
   95SAPS   H5R 9387   1.470   7.527   6.647 -2.5396 -3.8128 -1.1198
   95SAPS   C26 9388   1.479   7.569   6.863 -0.7067 -0.2081  0.3199
   95SAPS   H6R 9389   1.506   7.675   6.852  0.2690 -0.5780 -1.1971
   95SAPS   C27 9390   1.469   7.521   7.005 -0.0398  0.0282  0.2005
   95SAPS   H7R 9391   1.375   7.466   7.026  0.3652 -0.1256  1.7427
   95SAPS   H7S 9392   1.476   7.605   7.077  0.2226 -1.3912  1.9291
   95SAPS   C28 9393   1.569   7.419   7.046 -0.3117  0.8578 -0.5617
   95SAPS   H8R 9394   1.652   7.400   6.976  0.5089  0.1211  0.5613
   95SAPS   C29 9395   1.569   7.351   7.161  0.2931 -0.7070  0.1493
   95SAPS   H9R 9396   1.654   7.282   7.175  0.2510 -1.5381 -3.0310
   95SAPS  C210 9397   1.463   7.370   7.268 -0.1441 -0.2451 -0.1361
   95SAPS  H10R 9398   1.389   7.448   7.236  0.3789  0.1890 -0.3110
   95SAPS  H10S 9399   1.510   7.426   7.351  2.4490 -0.5707 -1.2900
   95SAPS  C211 9400   1.388   7.243   7.297 -0.5677  0.8886  0.6580
   95SAPS  H11R 9401   1.358   7.182   7.210  0.3022  1.1535  0.1539
   95SAPS  C212 9402   1.344   7.204   7.414  0.1721  0.0142 -0.5627
   95SAPS  H12R 9403   1.281   7.114   7.426  0.7552 -0.5923 -1.8629
   95SAPS  C213 9404   1.355   7.295   7.537 -0.3214 -0.4422 -0.2472
   95SAPS  H13R 9405   1.264   7.294   7.602 -0.6237 -0.8498 -0.6668
   95SAPS  H13S 9406   1.358   7.399   7.500  1.2470  0.0837  1.2274
   95SAPS  C214 9407   1.477   7.285   7.617  0.3591 -0.3778  0.0521
   95SAPS  H14R 9408   1.558   7.247   7.552  0.4724 -1.2822  0.7079
   95SAPS  C215 9409   1.495   7.308   7.749 -0.1165  0.6736 -0.0279
   95SAPS  H15R 9410   1.591   7.275   7.793  0.2035  1.2484 -0.2809
   95SAPS  C216 9411   1.387   7.367   7.838  0.2211 -0.5528 -1.0765
   95SAPS  H16R 9412   1.310   7.426   7.783 -0.8036 -1.2361 -0.4021
   95SAPS  H16S 9413   1.425   7.442   7.911 -1.5567 -1.1267  0.5042
   95SAPS  C217 9414   1.323   7.240   7.900  0.1386 -0.7475  0.2164
   95SAPS  H17R 9415   1.310   7.164   7.820 -1.1678  0.2607 -0.5680
   95SAPS  H17S 9416   1.222   7.259   7.942 -0.0292  0.9327 -0.8386
   95SAPS  C218 9417   1.409   7.172   8.009  0.5019 -0.2334 -0.1519
   95SAPS  H18R 9418   1.424   7.243   8.093 -0.1453  1.2214 -1.2197
   95SAPS  H18S 9419   1.506   7.139   7.967  1.2281  0.4890  0.9221
   95SAPS  C219 9420   1.349   7.052   8.089  0.4250  1.0313  0.6783
   95SAPS  H19R 9421   1.362   6.962   8.025  0.9072  1.3642  0.3055
   95SAPS  H19S 9422   1.244   7.087   8.094  0.1335  0.2018  0.5553
   95SAPS  C220 9423   1.408   7.032   8.229  0.5695 -0.3873  0.6299
   95SAPS  H20R 9424   1.518   7.019   8.241  0.7885  0.6323 -0.0901
   95SAPS  H20S 9425   1.364   6.942   8.277 -0.1115 -0.0276  0.6888
   95SAPS  H20T 9426   1.384   7.123   8.288 -1.1663 -0.7846  0.5889
   95SAPS   C33 9427   1.048   6.551   6.646 -0.8664  0.6135  0.4304
   95SAPS   H3X 9428   1.050   6.509   6.544 -0.1683  1.8182 -0.0766
   95SAPS   H3Y 9429   0.982   6.639   6.627  1.2621  1.6656 -2.9109
   95SAPS   C34 9430   0.980   6.461   6.745  0.7636 -0.2051 -0.6875
   95SAPS   H4X 9431   1.029   6.366   6.776 -3.5948 -1.8578  2.1917
   95SAPS   H4Y 9432   0.889   6.427   6.691  0.4602  1.4682 -1.2852
   95SAPS   C35 9433   0.939   6.544   6.864  0.2138 -0.2041 -0.1269
   95SAPS   H5X 9434   0.906   6.646   6.834 -2.0721 -0.3740  1.5220
   95SAPS   H5Y 9435   1.026   6.558   6.932  0.0196 -0.9199  0.2739
   95SAPS   C36 9436   0.831   6.462   6.937  0.0908 -0.3721 -0.5513
   95SAPS   H6X 9437   0.873   6.359   6.936 -1.4281 -1.0441 -2.2640
   95SAPS   H6Y 9438   0.741   6.455   6.872 -0.5976  0.3334  0.2936
   95SAPS   C37 9439   0.804   6.506   7.077 -0.8506  0.3579  1.0802
   95SAPS   H7X 9440   0.734   6.593   7.079  0.2146  1.4161 -1.9266
   95SAPS   H7Y 9441   0.906   6.528   7.114 -0.0617 -1.0192 -0.1611
   95SAPS   C38 9442   0.753   6.383   7.163 -0.4984  0.1681  0.3105
   95SAPS   H8X 9443   0.823   6.297   7.152  0.1189  0.8846 -1.9376
   95SAPS   H8Y 9444   0.662   6.351   7.107  0.5994  0.0860 -1.4940
   95SAPS   C39 9445   0.706   6.412   7.306  0.9857  0.9317 -0.2641
   95SAPS   H9X 9446   0.623   6.485   7.311 -1.1438 -1.3970  0.4046
   95SAPS   H9Y 9447   0.797   6.448   7.359  1.4091 -0.9877  0.3744
   95SAPS  C310 9448   0.654   6.287   7.390 -0.1097 -0.6545  0.1076
   95SAPS  H10X 9449   0.741   6.220   7.403  2.4226  2.0687 -1.3758
   95SAPS  H10Y 9450   0.578   6.240   7.324 -0.5051  1.1419 -0.7802
   95SAPS  C311 9451   0.607   6.342   7.524  0.4014  0.3275 -0.1920
   95SAPS  H11X 9452   0.520   6.408   7.504  0.1454 -0.3181 -1.2818
   95SAPS  H11Y 9453   0.678   6.416   7.567  0.7712  0.8190 -1.5951
   95SAPS  C312 9454   0.562   6.234   7.621 -0.6737 -0.2420  0.2357
   95SAPS  H12X 9455   0.652   6.170   7.635  0.0553  1.1528  2.4942
   95SAPS  H12Y 9456   0.492   6.164   7.571 -0.3460 -0.0089 -0.5694
   95SAPS  C313 9457   0.520   6.274   7.761 -0.2139  0.0396 -0.0326
   95SAPS  H13X 9458   0.415   6.312   7.761 -1.0562 -2.1479  0.2037
   95SAPS  H13Y 9459   0.593   6.351   7.794 -0.9281  1.6636 -2.0154
   95SAPS  C314 9460   0.525   6.160   7.855  0.7966  0.0027 -1.2367
   95SAPS  H14X 9461   0.630   6.127   7.848  0.8542 -0.4686  1.0011
   95SAPS  H14Y 9462   0.455   6.083   7.815 -1.1605  0.8493  0.3758
   95SAPS  C315 9463   0.481   6.198   8.009 -0.6210  0.6272  0.3330
   95SAPS  H15X 9464   0.382   6.244   7.991 -0.4612  1.3862  1.3276
   95SAPS  H15Y 9465   0.559   6.274   8.031  1.7264 -1.5299 -0.0915
   95SAPS  C316 9466   0.477   6.072   8.101  0.2565  0.1876 -0.0756
   95SAPS  H16X 9467   0.578   6.045   8.138 -1.3120 -2.2248  2.9169
   95SAPS  H16Y 9468   0.426   5.995   8.038 -1.7874  2.4166 -1.3099
   95SAPS  C317 9469   0.391   6.110   8.224 -0.2248  0.0473 -1.0432
   95SAPS  H17X 9470   0.393   6.027   8.298 -1.4509  0.9457  0.0402
   95SAPS  H17Y 9471   0.283   6.127   8.206  0.3526  4.4085 -1.4845
   95SAPS  C318 9472   0.448   6.234   8.301 -0.6120  1.1000  0.2868
   95SAPS  H18X 9473   0.416   6.334   8.265 -3.8152  0.1503  0.2194
   95SAPS  H18Y 9474   0.559   6.224   8.304 -0.6133  1.1970  0.6611
   95SAPS  H18Z 9475   0.410   6.220   8.405 -1.5104 -1.0809 -0.2714
   96SAPS     N 9476   2.731   1.503   5.885 -0.8024  0.4164  0.3479
   96SAPS   HN1 9477   2.826   1.526   5.920 -0.4070  2.2126 -1.6999
   96SAPS   HN2 9478   2.693   1.590   5.843  0.8316 -0.1403 -2.5551
   96SAPS   HN3 9479   2.669   1.474   5.964 -1.3565 -0.0588 -0.2465
   96SAPS   C12 9480   2.742   1.406   5.774  0.5693 -0.1475  0.4184
   96SAPS  H12A 9481   2.640   1.400   5.737  0.5982 -0.2510  0.3553
   96SAPS   C13 9482   2.822   1.447   5.647 -0.1585  0.3241 -1.0177
   96SAPS  O13A 9483   2.868   1.566   5.638 -0.0985  0.8059 -0.7849
   96SAPS  O13B 9484   2.792   1.380   5.543 -0.6659  0.1772  0.0406
   96SAPS   C11 9485   2.799   1.272   5.836 -0.3156 -0.8003 -0.0162
   96SAPS  H11A 9486   2.890   1.304   5.890  0.6922 -2.7392 -0.4974
   96SAPS  H11B 9487   2.828   1.197   5.760 -1.4866 -0.2028 -1.0997
   96SAPS     P 9488   2.728   1.086   6.018 -0.1663  0.0046  0.5159
   96SAPS   O13 9489   2.673   0.977   5.937  0.3288  0.0680 -0.2332
   96SAPS   O14 9490   2.867   1.090   6.063 -0.0530 -0.8077  0.1396
   96SAPS   O12 9491   2.707   1.214   5.924  0.4631 -0.1337 -0.1953
   96SAPS   O11 9492   2.630   1.127   6.131  0.1460  0.4769  1.0450
   96SAPS    C1 9493   2.645   1.244   6.214  0.5655  0.3498  0.3778
   96SAPS    HA 9494   2.709   1.320   6.166  1.0942 -1.2974 -1.6512
   96SAPS    HB 9495   2.544   1.285   6.239  0.7304  2.2083 -1.7654
   96SAPS    C2 9496   2.712   1.213   6.349  0.0283  0.0077 -0.3892
   96SAPS    HS 9497   2.696   1.297   6.419 -0.0965 -0.1483 -0.2292
   96SAPS   O21 9498   2.849   1.179   6.345  0.0394  0.2557 -0.3634
   96SAPS   C21 9499   2.937   1.268   6.324  0.1577  0.7301  0.0589
   96SAPS   O22 9500   2.912   1.389   6.311  0.6039  0.4503  0.0129
   96SAPS   C22 9501   3.078   1.208   6.335 -0.3649 -0.3805 -0.1913
   96SAPS   H2R 9502   3.076   1.101   6.367 -0.5866 -0.2019  0.4000
   96SAPS   H2S 9503   3.128   1.228   6.238 -2.3274  0.4545 -1.0692
   96SAPS    C3 9504   2.642   1.087   6.417 -0.1894  0.1154  0.5792
   96SAPS    HX 9505   2.650   0.998   6.351 -1.2676  1.3505 -1.3181
   96SAPS    HY 9506   2.532   1.104   6.414 -0.2500 -0.2029  0.8825
   96SAPS   O31 9507   2.671   1.072   6.560  0.0299  0.3302 -0.6030
   96SAPS   C31 9508   2.742   0.961   6.586 -0.8878 -0.5474  0.5413
   96SAPS   O32 9509   2.776   0.876   6.508 -0.5558  0.4174 -0.0085
   96SAPS   C32 9510   2.790   0.957   6.731  0.3172  0.0567  0.0004
   96SAPS   H2X 9511   2.699   0.958   6.795  1.5076  2.1465  1.7904
   96SAPS   H2Y 9512   2.852   1.047   6.748 -1.3575  1.7704 -2.2550
   96SAPS   C23 9513   3.172   1.277   6.438 -0.8972 -0.6530  0.2142
   96SAPS   H3R 9514   3.189   1.386   6.421  0.6467 -1.1325 -1.6794
   96SAPS   H3S 9515   3.273   1.234   6.422  0.6622  2.0960  1.7039
   96SAPS   C24 9516   3.128   1.275   6.581  0.8605 -0.0744  0.0077
   96SAPS   H4R 9517   3.017   1.274   6.583  0.7766 -0.6982 -2.4361
   96SAPS   H4S 9518   3.148   1.370   6.636  0.5343  0.1759 -0.2996
   96SAPS   C25 9519   3.180   1.154   6.653  0.5030 -0.2069 -0.2284
   96SAPS   H5R 9520   3.206   1.074   6.583 -0.0397 -2.0444  1.5629
   96SAPS   C26 9521   3.170   1.126   6.785  0.1672  0.9050  0.3508
   96SAPS   H6R 9522   3.211   1.032   6.824  0.0459  0.0693 -1.3958
   96SAPS   C27 9523   3.103   1.220   6.876  0.4802 -0.0638 -0.5218
   96SAPS   H7R 9524   2.995   1.197   6.886  0.5885 -0.5489 -0.4257
   96SAPS   H7S 9525   3.108   1.327   6.848 -1.3107  0.8931  2.3818
   96SAPS   C28 9526   3.160   1.229   7.018 -0.0029 -0.4993 -0.5585
   96SAPS   H8R 9527   3.268   1.254   7.015 -0.3520  1.5728  1.0916
   96SAPS   C29 9528   3.094   1.222   7.134  0.2447  0.3460  0.0493
   96SAPS   H9R 9529   3.148   1.228   7.230 -0.5006 -2.3278  0.7110
   96SAPS  C210 9530   2.954   1.180   7.163  0.2974 -0.0283  0.1687
   96SAPS  H10R 9531   2.971   1.086   7.221  0.2773  0.3876  0.8630
   96SAPS  H10S 9532   2.890   1.164   7.075 -1.0215 -1.5012  1.3339
   96SAPS  C211 9533   2.877   1.282   7.244 -0.3665  0.3222  0.0446
   96SAPS  H11R 9534   2.836   1.358   7.176  1.0323  1.2081  0.1550
   96SAPS  C212 9535   2.849   1.287   7.376 -0.4551  0.0739 -0.5911
   96SAPS  H12R 9536   2.770   1.357   7.408 -0.4449 -0.1550 -0.0597
   96SAPS  C213 9537   2.905   1.192   7.480  0.8084 -0.2233  0.3526
   96SAPS  H13R 9538   2.948   1.099   7.436  0.4863 -2.0298  3.5911
   96SAPS  H13S 9539   2.825   1.160   7.549  1.0963 -0.3550  0.6255
   96SAPS  C214 9540   3.021   1.253   7.554  1.2641  0.7338 -0.1609
   96SAPS  H14R 9541   3.101   1.291   7.489  2.4805  0.0920  0.9079
   96SAPS  C215 9542   3.031   1.278   7.682 -0.3113 -0.0208  0.3922
   96SAPS  H15R 9543   3.122   1.326   7.719  0.9822 -0.3396 -2.1718
   96SAPS  C216 9544   2.943   1.224   7.789  0.1184 -0.1572 -1.3747
   96SAPS  H16R 9545   2.851   1.175   7.750  1.0247 -0.3406 -3.4066
   96SAPS  H16S 9546   2.909   1.310   7.851  0.4820 -0.2555 -1.0400
   96SAPS  C217 9547   3.011   1.126   7.883 -0.0526  1.0305  0.3868
   96SAPS  H17R 9548   3.103   1.171   7.927  0.8833 -1.0560  0.6857
   96SAPS  H17S 9549   3.037   1.036   7.824 -0.3201  1.5494 -0.5419
   96SAPS  C218 9550   2.916   1.086   8.000  0.5311 -0.2588 -0.6432
   96SAPS  H18R 9551   2.844   1.004   7.980  0.8308 -0.4234 -1.0475
   96SAPS  H18S 9552   2.857   1.175   8.031  0.0851 -0.9075  0.4256
   96SAPS  C219 9553   2.998   1.044   8.126 -0.1559 -0.0096  0.0671
   96SAPS  H19R 9554   3.045   1.133   8.173  1.0521 -1.0108  0.8178
   96SAPS  H19S 9555   3.081   0.984   8.083 -1.2963 -0.2279 -1.9798
   96SAPS  C220 9556   2.908   0.965   8.226  0.4628 -0.1633 -0.0750
   96SAPS  H20R 9557   2.889   0.863   8.185  0.9332  0.5542 -2.2207
   96SAPS  H20S 9558   2.811   1.020   8.218  1.3384  1.3627 -0.6298
   96SAPS  H20T 9559   2.942   0.961   8.332 -2.4222  0.1151  0.9508
   96SAPS   C33 9560   2.871   0.830   6.771 -0.7283 -0.2859 -0.1933
   96SAPS   H3X 9561   2.963   0.830   6.709  1.3260  0.5629  2.6348
   96SAPS   H3Y 9562   2.814   0.737   6.752 -0.3938 -0.3569 -0.8608
   96SAPS   C34 9563   2.915   0.842   6.919 -0.4589  0.5241 -0.5306
   96SAPS   H4X 9564   2.974   0.936   6.924  3.2458 -1.4920 -2.0477
   96SAPS   H4Y 9565   2.978   0.753   6.941  0.0029  0.9900  0.0430
   96SAPS   C35 9566   2.812   0.848   7.031 -0.7894  0.1121  0.2333
   96SAPS   H5X 9567   2.741   0.765   7.010 -1.0451 -0.0235  1.5687
   96SAPS   H5Y 9568   2.758   0.945   7.031  0.2399  0.7033  1.2848
   96SAPS   C36 9569   2.875   0.819   7.170  0.4311  0.2221 -0.7304
   96SAPS   H6X 9570   2.963   0.882   7.196 -0.0669  0.1310  1.3658
   96SAPS   H6Y 9571   2.902   0.712   7.168 -0.0944  0.0884 -0.9412
   96SAPS   C37 9572   2.769   0.844   7.283 -0.1028 -0.2599 -0.7304
   96SAPS   H7X 9573   2.680   0.790   7.243  1.1720 -1.1584 -2.5251
   96SAPS   H7Y 9574   2.746   0.952   7.280 -1.1660 -0.4094  0.8514
   96SAPS   C38 9575   2.831   0.795   7.419  0.0419  0.4643 -0.2655
   96SAPS   H8X 9576   2.925   0.853   7.434  0.4515 -0.3016  0.1850
   96SAPS   H8Y 9577   2.859   0.690   7.401 -0.3946  0.4743 -1.0318
   96SAPS   C39 9578   2.744   0.817   7.543  0.4673  0.6273 -0.2429
   96SAPS   H9X 9579   2.641   0.780   7.524  1.1045 -0.0953 -2.6159
   96SAPS   H9Y 9580   2.740   0.925   7.570 -0.4425  0.3862  0.6439
   96SAPS  C310 9581   2.813   0.756   7.661  0.5427  0.3237  0.5082
   96SAPS  H10X 9582   2.908   0.810   7.677  0.8071 -0.1394  0.5149
   96SAPS  H10Y 9583   2.830   0.650   7.631  0.7479 -0.2145  2.3485
   96SAPS  C311 9584   2.728   0.770   7.790 -0.2177  0.1259 -0.0191
   96SAPS  H11X 9585   2.626   0.730   7.772 -0.1704  0.3528 -0.8279
   96SAPS  H11Y 9586   2.712   0.874   7.827  1.3960  0.2647  0.3464
   96SAPS  C312 9587   2.795   0.684   7.899  0.6469  0.0516  0.2821
   96SAPS  H12X 9588   2.901   0.717   7.905  1.0304 -1.2209  0.8745
   96SAPS  H12Y 9589   2.801   0.580   7.860  1.3574 -0.1404  0.8797
   96SAPS  C313 9590   2.729   0.676   8.035  0.7025 -0.3672  0.5124
   96SAPS  H13X 9591   2.623   0.644   8.048  0.6990  0.0843  1.8005
   96SAPS  H13Y 9592   2.738   0.781   8.070 -0.3344  0.2345 -0.9654
   96SAPS  C314 9593   2.807   0.588   8.137  0.0892  0.5976 -0.0804
   96SAPS  H14X 9594   2.910   0.624   8.120  0.5643 -1.7987 -3.3475
   96SAPS  H14Y 9595   2.791   0.483   8.106 -0.8861  0.5346  0.5968
   96SAPS  C315 9596   2.790   0.614   8.284  0.1146 -0.5226  0.3765
   96SAPS  H15X 9597   2.687   0.590   8.319  0.8169 -1.3282  1.9890
   96SAPS  H15Y 9598   2.792   0.721   8.313 -2.0264 -0.9485  2.4027
   96SAPS  C316 9599   2.888   0.534   8.371  0.2522 -0.5446 -0.0786
   96SAPS  H16X 9600   2.993   0.548   8.335  0.5152  1.6059  1.3250
   96SAPS  H16Y 9601   2.853   0.431   8.352 -2.4982  0.2325  0.3343
   96SAPS  C317 9602   2.876   0.575   8.519  0.4471 -0.5017 -0.3287
   96SAPS  H17X 9603   2.769   0.571   8.547  0.4534 -0.4896 -0.3022
   96SAPS  H17Y 9604   2.908   0.682   8.524 -1.0889 -0.0764  1.6958
   96SAPS  C318 9605   2.963   0.490   8.613  0.1383 -0.3751  0.2794
   96SAPS  H18X 9606   2.932   0.385   8.597  0.8869 -0.8633  1.8081
   96SAPS  H18Y 9607   2.950   0.530   8.716  1.5996  0.1515  0.2841
   96SAPS  H18Z 9608   3.070   0.495   8.584  0.8022 -2.8152  1.9511
   97SAPS     N 9609   2.888   6.469   6.001  0.2686  0.1187  0.1136
   97SAPS   HN1 9610   2.949   6.408   5.943  1.8917 -0.5914  2.4024
   97SAPS   HN2 9611   2.933   6.512   6.084 -1.0312 -0.2647  1.0577
   97SAPS   HN3 9612   2.815   6.407   6.043  0.5794 -0.3253  0.0003
   97SAPS   C12 9613   2.845   6.576   5.906  0.4972 -0.2587  0.3697
   97SAPS  H12A 9614   2.933   6.637   5.893  0.6719 -1.0045 -3.0251
   97SAPS   C13 9615   2.809   6.530   5.764  0.0680 -0.2112 -0.3415
   97SAPS  O13A 9616   2.836   6.415   5.728  0.2573  0.5399  0.0428
   97SAPS  O13B 9617   2.775   6.624   5.686 -0.3390  0.1100  0.1329
   97SAPS   C11 9618   2.731   6.661   5.967  0.9022 -0.1645  0.0172
   97SAPS  H11A 9619   2.652   6.584   5.982  0.9081 -0.3438 -0.8246
   97SAPS  H11B 9620   2.700   6.736   5.891 -0.6602 -2.3823 -1.6773
   97SAPS     P 9621   2.666   6.731   6.207 -0.5814 -0.0305  0.2243
   97SAPS   O13 9622   2.725   6.814   6.309 -0.4696 -0.0495  0.3995
   97SAPS   O14 9623   2.535   6.756   6.150  0.2561  0.1350 -0.1578
   97SAPS   O12 9624   2.776   6.721   6.082 -0.3894 -0.3257 -0.5011
   97SAPS   O11 9625   2.664   6.578   6.246  0.0572 -0.5092 -0.3994
   97SAPS    C1 9626   2.572   6.539   6.347  0.1764 -0.1026 -0.2160
   97SAPS    HA 9627   2.501   6.623   6.363  0.2459 -0.0745 -0.0535
   97SAPS    HB 9628   2.503   6.462   6.307 -0.8682 -0.0442  1.3803
   97SAPS    C2 9629   2.630   6.505   6.483 -0.5192 -0.1627  0.0495
   97SAPS    HS 9630   2.547   6.458   6.540 -2.2182  2.9115  0.3293
   97SAPS   O21 9631   2.687   6.619   6.553  0.5937  0.2335 -0.2515
   97SAPS   C21 9632   2.610   6.673   6.642 -0.0517 -0.4607  0.3997
   97SAPS   O22 9633   2.489   6.657   6.648  0.0511 -0.8323 -0.2489
   97SAPS   C22 9634   2.701   6.737   6.754  0.0176 -0.0369  0.4657
   97SAPS   H2R 9635   2.786   6.667   6.770  0.2229 -0.3588 -1.7598
   97SAPS   H2S 9636   2.729   6.836   6.711 -0.0038  0.0494  0.6467
   97SAPS    C3 9637   2.735   6.394   6.464  0.2158 -0.2350  0.8648
   97SAPS    HX 9638   2.827   6.446   6.430 -0.4684  0.4928  0.0547
   97SAPS    HY 9639   2.695   6.327   6.384  1.4207 -0.2344  0.2403
   97SAPS   O31 9640   2.740   6.324   6.586 -0.3521 -0.0333 -0.1248
   97SAPS   C31 9641   2.851   6.348   6.658 -0.3057 -0.1885 -0.8917
   97SAPS   O32 9642   2.947   6.414   6.618  0.2411 -0.2721  0.2130
   97SAPS   C32 9643   2.836   6.296   6.805  0.7301 -0.1197  0.7593
   97SAPS   H2X 9644   2.848   6.186   6.807 -0.9160 -0.3230  1.3433
   97SAPS   H2Y 9645   2.726   6.310   6.816 -0.1392 -0.9528 -4.2561
   97SAPS   C23 9646   2.628   6.758   6.893 -0.5766 -0.0362  0.1863
   97SAPS   H3R 9647   2.641   6.673   6.963 -0.0003  0.7324  1.0301
   97SAPS   H3S 9648   2.521   6.781   6.873 -0.0959  2.4915  0.1746
   97SAPS   C24 9649   2.681   6.882   6.966  0.3161  0.2179 -0.1267
   97SAPS   H4R 9650   2.605   6.906   7.043 -0.1679  0.3521 -0.6374
   97SAPS   H4S 9651   2.669   6.962   6.889 -0.0449 -0.6020 -0.9352
   97SAPS   C25 9652   2.824   6.859   7.020  0.0541  0.2563  0.8672
   97SAPS   H5R 9653   2.905   6.864   6.946 -0.2290  0.6480  0.5787
   97SAPS   C26 9654   2.859   6.821   7.143  0.1697  0.5804  0.1225
   97SAPS   H6R 9655   2.968   6.823   7.152  0.2684  0.2628 -0.8401
   97SAPS   C27 9656   2.771   6.797   7.259  0.3662  0.4916  0.0046
   97SAPS   H7R 9657   2.666   6.779   7.231  0.8634  0.2515 -1.8303
   97SAPS   H7S 9658   2.772   6.890   7.320 -0.3833  0.2592  0.3748
   97SAPS   C28 9659   2.821   6.685   7.344 -0.8379 -0.3815  0.3613
   97SAPS   H8R 9660   2.878   6.599   7.305 -1.9429 -1.6836  1.4803
   97SAPS   C29 9661   2.828   6.684   7.475  0.5480  0.2305 -0.4924
   97SAPS   H9R 9662   2.875   6.597   7.522  0.8111  1.0453  0.7967
   97SAPS  C210 9663   2.764   6.779   7.579 -0.2309  1.2782 -0.4120
   97SAPS  H10R 9664   2.809   6.879   7.561 -2.6081  2.0056 -2.9444
   97SAPS  H10S 9665   2.803   6.733   7.673  0.4770 -0.9327 -1.7106
   97SAPS  C211 9666   2.611   6.800   7.583  0.5347  0.0475  1.1018
   97SAPS  H11R 9667   2.554   6.787   7.490  0.7759 -1.5003  1.1308
   97SAPS  C212 9668   2.535   6.824   7.696  0.8736  0.0566  0.7146
   97SAPS  H12R 9669   2.428   6.847   7.685  1.5706  2.3362 -4.2632
   97SAPS  C213 9670   2.609   6.866   7.824 -0.1945 -0.0582 -0.3374
   97SAPS  H13R 9671   2.605   6.977   7.833  0.0031 -0.0637 -0.1804
   97SAPS  H13S 9672   2.718   6.849   7.821  0.2357  2.3324 -0.5007
   97SAPS  C214 9673   2.542   6.811   7.947  0.3868 -0.1733  0.3515
   97SAPS  H14R 9674   2.466   6.732   7.935 -0.0403  0.1578  0.8379
   97SAPS  C215 9675   2.577   6.839   8.073 -0.2235 -0.0385  0.5322
   97SAPS  H15R 9676   2.521   6.789   8.153 -0.8311 -0.6611 -0.2665
   97SAPS  C216 9677   2.690   6.937   8.117  0.4005 -0.0336  0.4578
   97SAPS  H16R 9678   2.653   6.999   8.201 -0.4992  0.5317 -0.3452
   97SAPS  H16S 9679   2.750   6.996   8.045 -0.8297  0.8091  0.1019
   97SAPS  C217 9680   2.799   6.848   8.185 -0.0551  0.3628  0.2930
   97SAPS  H17R 9681   2.766   6.816   8.286  2.5330 -0.6192  0.9091
   97SAPS  H17S 9682   2.883   6.917   8.210  0.9144  0.2475 -2.2985
   97SAPS  C218 9683   2.850   6.726   8.108  0.2624  0.2207 -0.6474
   97SAPS  H18R 9684   2.884   6.759   8.007 -2.3949  0.1552 -1.6456
   97SAPS  H18S 9685   2.783   6.638   8.102  0.2832  0.0867  0.7484
   97SAPS  C219 9686   2.969   6.648   8.180  0.5155 -0.2280 -0.4761
   97SAPS  H19R 9687   3.040   6.726   8.215  0.2073 -0.7758  1.5631
   97SAPS  H19S 9688   3.018   6.576   8.111  1.2489 -3.1800  2.7923
   97SAPS  C220 9689   2.931   6.566   8.305  0.8296 -0.3490 -1.0009
   97SAPS  H20R 9690   3.026   6.542   8.359 -0.1154 -1.2384  0.3274
   97SAPS  H20S 9691   2.872   6.478   8.273 -1.5681  0.7559  0.1190
   97SAPS  H20T 9692   2.871   6.626   8.377 -1.8113 -0.7745 -2.7206
   97SAPS   C33 9693   2.910   6.375   6.915  0.7460 -0.4489  0.2739
   97SAPS   H3X 9694   2.880   6.482   6.917  0.1589 -0.6163  0.6125
   97SAPS   H3Y 9695   3.020   6.379   6.898  1.1183 -0.9105  2.2728
   97SAPS   C34 9696   2.883   6.307   7.049 -0.1809 -0.0914  0.2669
   97SAPS   H4X 9697   2.891   6.198   7.029  0.1730 -0.3348  1.6279
   97SAPS   H4Y 9698   2.781   6.327   7.088 -0.9730  0.0094 -1.7120
   97SAPS   C35 9699   2.986   6.345   7.160  0.3957 -0.1513 -0.2723
   97SAPS   H5X 9700   2.974   6.453   7.180 -1.5989 -0.4742  0.5626
   97SAPS   H5Y 9701   3.091   6.338   7.124  0.7631  1.9163  0.2998
   97SAPS   C36 9702   2.970   6.259   7.290 -0.5044  0.1256  0.1017
   97SAPS   H6X 9703   3.009   6.155   7.279  1.3765  0.8991 -1.1425
   97SAPS   H6Y 9704   2.866   6.254   7.330  0.1901 -0.6404  1.9036
   97SAPS   C37 9705   3.051   6.335   7.398  0.3721  0.2910  0.3619
   97SAPS   H7X 9706   2.990   6.423   7.427  0.5007  0.0653  1.3403
   97SAPS   H7Y 9707   3.147   6.375   7.357  0.2300 -0.3942 -0.6870
   97SAPS   C38 9708   3.079   6.238   7.511  0.9372 -0.1056  0.2627
   97SAPS   H8X 9709   3.153   6.162   7.480  1.1253  0.0292  0.3831
   97SAPS   H8Y 9710   2.986   6.180   7.527  0.9883  0.4046  2.7710
   97SAPS   C39 9711   3.107   6.292   7.645 -0.9074 -0.2653  0.4692
   97SAPS   H9X 9712   3.024   6.360   7.674 -1.0874 -0.1803 -0.2259
   97SAPS   H9Y 9713   3.192   6.363   7.640 -1.8851  0.8299 -2.0015
   97SAPS  C310 9714   3.133   6.189   7.754  0.2650 -0.6068 -0.6302
   97SAPS  H10X 9715   3.047   6.119   7.759 -0.9731  0.9576  1.0250
   97SAPS  H10Y 9716   3.148   6.246   7.848 -1.7405  0.7460 -1.0802
   97SAPS  C311 9717   3.261   6.104   7.728 -1.0999  0.0299 -0.7636
   97SAPS  H11X 9718   3.350   6.171   7.731 -0.8327 -0.3395  0.7734
   97SAPS  H11Y 9719   3.240   6.058   7.630 -1.6564 -1.0082 -0.1649
   97SAPS  C312 9720   3.276   5.989   7.829 -0.6296 -0.1171  0.2210
   97SAPS  H12X 9721   3.185   5.927   7.811 -1.3974  1.2061 -0.5726
   97SAPS  H12Y 9722   3.261   6.025   7.933 -1.0587 -1.6065  0.7098
   97SAPS  C313 9723   3.401   5.903   7.813 -0.3251 -0.0519  0.5285
   97SAPS  H13X 9724   3.489   5.970   7.818  0.7779 -1.4383  0.5172
   97SAPS  H13Y 9725   3.404   5.865   7.708  3.0254  0.1526  0.4423
   97SAPS  C314 9726   3.409   5.780   7.908  0.0940 -0.4119  0.2050
   97SAPS  H14X 9727   3.332   5.702   7.893 -2.2360  1.9965 -1.3855
   97SAPS  H14Y 9728   3.382   5.820   8.008  0.3613 -1.5287  0.7357
   97SAPS  C315 9729   3.549   5.718   7.921 -0.2142  0.3703  0.0676
   97SAPS  H15X 9730   3.543   5.660   8.016  0.0326  0.5647  0.2035
   97SAPS  H15Y 9731   3.623   5.799   7.938  1.1465 -0.9237  0.5324
   97SAPS  C316 9732   3.579   5.619   7.807  0.0907  0.0387  0.1164
   97SAPS  H16X 9733   3.490   5.558   7.780 -1.4821  2.1388  0.2590
   97SAPS  H16Y 9734   3.661   5.552   7.842  0.8108  0.7603 -0.1475
   97SAPS  C317 9735   3.654   5.688   7.687  0.2262  0.2292  0.8272
   97SAPS  H17X 9736   3.751   5.732   7.718  1.5071 -0.4210 -1.9726
   97SAPS  H17Y 9737   3.579   5.761   7.649 -0.4061 -0.6706  0.3251
   97SAPS  C318 9738   3.684   5.598   7.563 -0.0825  0.2337  0.3247
   97SAPS  H18X 9739   3.597   5.537   7.530  1.2611 -1.2835 -0.5605
   97SAPS  H18Y 9740   3.764   5.522   7.573  1.4234  1.5047 -1.3894
   97SAPS  H18Z 9741   3.710   5.662   7.475  0.5246 -2.4209 -1.5500
   98SAPS     N 9742   0.368   6.546   6.030  0.2782  0.1011 -0.1980
   98SAPS   HN1 9743   0.342   6.621   6.097  0.1256 -0.3217  0.2176
   98SAPS   HN2 9744   0.291   6.496   5.981  2.3919 -2.7615 -0.8868
   98SAPS   HN3 9745   0.409   6.466   6.083  0.2594  0.0534 -0.2552
   98SAPS   C12 9746   0.461   6.593   5.923  0.1947  0.3126 -0.8020
   98SAPS  H12A 9747   0.545   6.526   5.914 -0.6873 -0.7258 -1.6693
   98SAPS   C13 9748   0.389   6.600   5.785  0.3364  0.0742  0.0362
   98SAPS  O13A 9749   0.265   6.578   5.770 -0.7036  0.0268  0.6735
   98SAPS  O13B 9750   0.457   6.647   5.690  0.0274 -0.6317 -0.2160
   98SAPS   C11 9751   0.514   6.738   5.959 -0.3526  0.2197 -0.4683
   98SAPS  H11A 9752   0.427   6.801   5.985 -1.1026 -1.3734  1.1317
   98SAPS  H11B 9753   0.561   6.782   5.868 -1.6187 -0.5511 -1.5461
   98SAPS     P 9754   0.704   6.846   6.115 -0.2085 -0.1109 -0.3481
   98SAPS   O13 9755   0.797   6.861   6.000 -0.0845  0.0696  0.1573
   98SAPS   O14 9756   0.636   6.967   6.161 -0.0119 -0.4339 -0.5921
   98SAPS   O12 9757   0.600   6.734   6.078  0.1873 -0.3019  0.8372
   98SAPS   O11 9758   0.793   6.779   6.231  0.8266  0.0976  0.1479
   98SAPS    C1 9759   0.788   6.638   6.256  0.2864 -1.2414  0.3462
   98SAPS    HA 9760   0.788   6.584   6.159  0.1656 -0.4551 -0.0957
   98SAPS    HB 9761   0.883   6.610   6.307 -0.1482  0.2034  2.0394
   98SAPS    C2 9762   0.675   6.593   6.356  0.4412 -0.3900  0.2947
   98SAPS    HS 9763   0.591   6.599   6.284  0.9642  0.7772 -0.2528
   98SAPS   O21 9764   0.662   6.695   6.459 -0.6477 -0.0608  0.4134
   98SAPS   C21 9765   0.537   6.726   6.488  0.1930 -0.7691  0.4920
   98SAPS   O22 9766   0.435   6.692   6.425 -0.1435 -0.1457 -0.3339
   98SAPS   C22 9767   0.535   6.823   6.597 -0.2968 -1.1653 -0.1196
   98SAPS   H2R 9768   0.618   6.896   6.584 -3.0619  2.3122  0.0713
   98SAPS   H2S 9769   0.437   6.876   6.593 -0.8864 -2.3163 -1.5871
   98SAPS    C3 9770   0.713   6.455   6.415  0.0934 -0.8158  0.2648
   98SAPS    HX 9771   0.813   6.470   6.461  1.6825  0.0620 -3.1223
   98SAPS    HY 9772   0.706   6.388   6.327 -3.0164  0.8571 -0.8922
   98SAPS   O31 9773   0.617   6.418   6.520  0.3099  0.5083  0.3684
   98SAPS   C31 9774   0.645   6.305   6.573 -0.0488 -0.5248 -0.7590
   98SAPS   O32 9775   0.730   6.230   6.534 -0.3121  0.0826  0.8494
   98SAPS   C32 9776   0.552   6.278   6.687  0.6340  0.3371 -0.0724
   98SAPS   H2X 9777   0.449   6.291   6.647 -0.4363  2.3478  2.9905
   98SAPS   H2Y 9778   0.562   6.365   6.755  1.8324  0.0523  0.1440
   98SAPS   C23 9779   0.564   6.759   6.728  0.1009 -0.4732 -0.0533
   98SAPS   H3R 9780   0.570   6.846   6.797 -0.0640  0.1038 -0.7578
   98SAPS   H3S 9781   0.661   6.705   6.722  0.1535 -0.2624 -1.1624
   98SAPS   C24 9782   0.445   6.672   6.773 -0.4266  0.2387 -0.1597
   98SAPS   H4R 9783   0.424   6.588   6.703 -2.6140  0.7168 -0.1383
   98SAPS   H4S 9784   0.348   6.725   6.775 -2.0444 -2.4474 -1.5622
   98SAPS   C25 9785   0.484   6.611   6.907  0.5459 -0.3024  0.2972
   98SAPS   H5R 9786   0.587   6.625   6.942  0.1586  0.2608  1.2324
   98SAPS   C26 9787   0.394   6.580   7.002 -0.4090  0.2979  0.1645
   98SAPS   H6R 9788   0.435   6.538   7.094 -1.2873 -0.0442  0.4058
   98SAPS   C27 9789   0.249   6.566   6.978 -0.1130  0.0866  0.4630
   98SAPS   H7R 9790   0.216   6.583   6.874 -0.7586 -0.8770  0.4977
   98SAPS   H7S 9791   0.189   6.638   7.038  0.4531 -1.5916  3.1970
   98SAPS   C28 9792   0.205   6.430   7.019 -0.3569  0.8562 -0.3342
   98SAPS   H8R 9793   0.182   6.363   6.936 -0.3996 -0.0419  0.3831
   98SAPS   C29 9794   0.166   6.380   7.137  0.6825 -0.0002  0.0699
   98SAPS   H9R 9795   0.138   6.274   7.136  1.2106 -0.1604  1.1253
   98SAPS  C210 9796   0.156   6.451   7.270  0.5662 -0.1456  0.1994
   98SAPS  H10R 9797   0.051   6.443   7.307  1.4148 -1.5537  2.5145
   98SAPS  H10S 9798   0.181   6.559   7.275 -1.4747  0.5567 -2.3170
   98SAPS  C211 9799   0.226   6.365   7.373 -0.1208  0.2180 -0.2082
   98SAPS  H11R 9800   0.318   6.323   7.329 -0.0343  0.5405 -0.3430
   98SAPS  C212 9801   0.189   6.326   7.495  0.7044  0.0563  0.2724
   98SAPS  H12R 9802   0.262   6.278   7.561  0.3431 -0.8746  0.0097
   98SAPS  C213 9803   0.063   6.370   7.565  0.3423 -0.3313  0.1054
   98SAPS  H13R 9804  -0.011   6.289   7.548  0.8173 -0.5722 -0.8412
   98SAPS  H13S 9805   0.020   6.456   7.511  3.4440 -0.4139 -2.8470
   98SAPS  C214 9806   0.083   6.393   7.714 -0.0075 -0.3465  0.3880
   98SAPS  H14R 9807   0.131   6.488   7.742 -1.4812  2.1517 -4.4850
   98SAPS  C215 9808   0.050   6.306   7.812  0.3012  0.1633  0.8490
   98SAPS  H15R 9809   0.052   6.344   7.915  0.4306 -0.7957  1.2132
   98SAPS  C216 9810   0.002   6.163   7.815 -0.3734 -0.1404 -0.3337
   98SAPS  H16R 9811   0.075   6.101   7.871  1.4588  2.4074  0.2575
   98SAPS  H16S 9812   0.004   6.120   7.713 -0.3143 -1.5900  0.2475
   98SAPS  C217 9813  -0.145   6.146   7.866 -0.6191  0.0262 -0.3734
   98SAPS  H17R 9814  -0.166   6.042   7.833  2.1366 -0.8596  0.4155
   98SAPS  H17S 9815  -0.214   6.207   7.804  0.2862 -0.0947 -1.5258
   98SAPS  C218 9816  -0.164   6.164   8.018  0.2099  1.3702 -0.4882
   98SAPS  H18R 9817  -0.151   6.272   8.042  0.4129  1.1226  0.5849
   98SAPS  H18S 9818  -0.091   6.108   8.081 -0.9798  3.6598  3.2829
   98SAPS  C219 9819  -0.304   6.131   8.066  0.4206  0.3947 -0.4002
   98SAPS  H19R 9820  -0.312   6.023   8.091  0.0604  0.4956 -0.0745
   98SAPS  H19S 9821  -0.386   6.157   7.995 -0.4809  0.3590  0.5959
   98SAPS  C220 9822  -0.339   6.213   8.200 -0.0562  0.0033 -0.0543
   98SAPS  H20R 9823  -0.433   6.174   8.242 -0.1240  0.6035  0.3722
   98SAPS  H20S 9824  -0.336   6.320   8.170 -0.7540 -0.2892 -1.2147
   98SAPS  H20T 9825  -0.260   6.204   8.277 -0.1992  1.6011  0.3208
   98SAPS   C33 9826   0.573   6.150   6.773 -0.1694  0.5268  0.0549
   98SAPS   H3X 9827   0.676   6.161   6.815 -0.3177 -1.5619  1.0909
   98SAPS   H3Y 9828   0.562   6.056   6.714 -1.8475  0.0285  1.1012
   98SAPS   C34 9829   0.484   6.148   6.897  0.3112  0.6591 -0.3484
   98SAPS   H4X 9830   0.381   6.108   6.880  0.7498 -0.7108  0.0614
   98SAPS   H4Y 9831   0.468   6.251   6.933  2.0497  0.9483 -0.3350
   98SAPS   C35 9832   0.548   6.057   7.005  0.8924  0.3096 -0.1163
   98SAPS   H5X 9833   0.646   6.095   7.040  1.3576 -0.7528 -0.2075
   98SAPS   H5Y 9834   0.573   5.952   6.978 -0.1663  0.1385 -0.4788
   98SAPS   C36 9835   0.462   6.058   7.131 -0.3272  0.1465  0.4363
   98SAPS   H6X 9836   0.357   6.046   7.098 -0.0838  1.5547 -0.9482
   98SAPS   H6Y 9837   0.466   6.160   7.173  2.8914 -0.0043  0.7235
   98SAPS   C37 9838   0.500   5.960   7.239 -0.1637 -0.4724 -0.5686
   98SAPS   H7X 9839   0.600   5.992   7.274 -0.5181  0.5808 -0.4715
   98SAPS   H7Y 9840   0.523   5.855   7.213 -0.9046 -1.6967  3.1303
   98SAPS   C38 9841   0.408   5.959   7.361 -0.1121 -0.3179 -0.3509
   98SAPS   H8X 9842   0.308   5.915   7.337 -0.7679  1.0443 -0.1927
   98SAPS   H8Y 9843   0.391   6.059   7.405  0.9917 -1.4608  3.0095
   98SAPS   C39 9844   0.452   5.879   7.479 -0.6737 -0.0475  0.5730
   98SAPS   H9X 9845   0.533   5.941   7.523  0.3204  0.7691 -2.2442
   98SAPS   H9Y 9846   0.484   5.778   7.445  0.6297  0.8163 -0.8787
   98SAPS  C310 9847   0.338   5.866   7.580  0.0381 -0.9689  0.0600
   98SAPS  H10X 9848   0.251   5.811   7.537  0.0169 -0.2512 -0.8539
   98SAPS  H10Y 9849   0.307   5.969   7.610  1.0175 -0.3667 -0.9296
   98SAPS  C311 9850   0.388   5.815   7.710 -0.1690 -0.4019 -0.3489
   98SAPS  H11X 9851   0.475   5.872   7.750 -0.5669 -1.8658  2.9549
   98SAPS  H11Y 9852   0.410   5.707   7.694  1.4239 -0.2915  0.7808
   98SAPS  C312 9853   0.285   5.831   7.827 -0.2097  0.0276 -0.1149
   98SAPS  H12X 9854   0.184   5.803   7.790 -0.3065 -0.4616  0.4986
   98SAPS  H12Y 9855   0.261   5.936   7.855 -0.3617 -0.5524  2.1331
   98SAPS  C313 9856   0.331   5.748   7.943  1.0556  0.7533 -0.3740
   98SAPS  H13X 9857   0.282   5.789   8.034  2.1621 -1.3765  1.2636
   98SAPS  H13Y 9858   0.437   5.770   7.966  1.1082  1.0276 -0.8574
   98SAPS  C314 9859   0.298   5.597   7.927 -0.3981  0.5723 -0.6237
   98SAPS  H14X 9860   0.343   5.548   7.838  0.4467 -1.4304  0.8454
   98SAPS  H14Y 9861   0.189   5.587   7.908 -0.7664  1.7393  0.7381
   98SAPS  C315 9862   0.336   5.528   8.058  0.7112 -0.1822  0.2498
   98SAPS  H15X 9863   0.295   5.571   8.152 -0.7046  0.9740 -0.8424
   98SAPS  H15Y 9864   0.446   5.532   8.070  0.6700 -0.0332  0.5881
   98SAPS  C316 9865   0.292   5.384   8.054 -0.0939  0.2430  0.7438
   98SAPS  H16X 9866   0.340   5.337   7.966 -1.3515  1.5914 -0.7121
   98SAPS  H16Y 9867   0.182   5.379   8.041 -0.1475  0.8395  0.9653
   98SAPS  C317 9868   0.332   5.296   8.179  0.3059  0.2056 -0.2060
   98SAPS  H17X 9869   0.310   5.189   8.158  4.1320 -1.1668  1.8095
   98SAPS  H17Y 9870   0.259   5.329   8.255 -0.8095  0.0544 -1.1756
   98SAPS  C318 9871   0.481   5.297   8.227  0.7915  0.5339 -0.0962
   98SAPS  H18X 9872   0.544   5.254   8.146  1.2945  0.6626  0.2217
   98SAPS  H18Y 9873   0.501   5.240   8.321  1.1191  0.8759  0.0477
   98SAPS  H18Z 9874   0.521   5.400   8.238 -0.1922  0.8567  0.6131
   99SAPS     N 9875   0.197   3.796   5.922  0.6102  0.4867 -0.0992
   99SAPS   HN1 9876   0.159   3.741   6.002  2.0890  0.2319  0.4591
   99SAPS   HN2 9877   0.121   3.852   5.880  0.2925  0.2592  0.1662
   99SAPS   HN3 9878   0.212   3.717   5.856 -1.6561 -2.4386  2.5820
   99SAPS   C12 9879   0.327   3.861   5.953  0.2169  0.5548  0.0289
   99SAPS  H12A 9880   0.401   3.793   5.992  2.4696  2.4358 -0.7269
   99SAPS   C13 9881   0.394   3.930   5.831 -0.9562 -0.0372 -0.0801
   99SAPS  O13A 9882   0.336   3.918   5.722 -0.1343 -0.3003  0.3966
   99SAPS  O13B 9883   0.514   3.961   5.841  0.1690  0.3307 -0.0644
   99SAPS   C11 9884   0.309   3.974   6.054 -0.4554  0.2283 -0.3789
   99SAPS  H11A 9885   0.240   4.054   6.021 -0.0855  0.4755 -0.5584
   99SAPS  H11B 9886   0.405   4.026   6.073 -0.0492  0.0976 -1.9784
   99SAPS     P 9887   0.205   3.987   6.299  0.2977  0.5142  0.0711
   99SAPS   O13 9888   0.292   4.102   6.341  0.0018  0.2210  0.6356
   99SAPS   O14 9889   0.063   4.015   6.269 -0.4010  0.5172 -0.2018
   99SAPS   O12 9890   0.266   3.911   6.178  0.9626  0.3469 -0.0680
   99SAPS   O11 9891   0.214   3.878   6.413  0.3822  0.6620 -0.4326
   99SAPS    C1 9892   0.107   3.785   6.432 -0.1430 -0.3547 -0.6987
   99SAPS    HA 9893   0.066   3.749   6.336 -0.5172 -1.0750 -0.2780
   99SAPS    HB 9894   0.126   3.703   6.505  0.2697 -0.2845 -0.7213
   99SAPS    C2 9895  -0.028   3.848   6.503  0.3889  0.1924 -0.1134
   99SAPS    HS 9896  -0.072   3.918   6.429  1.9092 -0.7904 -2.0313
   99SAPS   O21 9897   0.012   3.923   6.621 -0.1154 -0.4590  0.3142
   99SAPS   C21 9898  -0.064   4.018   6.653  0.9137 -0.0317 -1.0070
   99SAPS   O22 9899  -0.171   4.059   6.603 -0.0129 -0.3076  0.1753
   99SAPS   C22 9900   0.006   4.091   6.765  0.4149 -0.0144 -0.2978
   99SAPS   H2R 9901   0.021   4.034   6.859 -0.4312  1.2589  0.6431
   99SAPS   H2S 9902   0.110   4.113   6.730  0.5584 -0.1880  0.0119
   99SAPS    C3 9903  -0.134   3.746   6.547 -0.5969 -0.1992 -0.4231
   99SAPS    HX 9904  -0.160   3.682   6.460 -1.0150 -0.2573 -0.2620
   99SAPS    HY 9905  -0.225   3.804   6.574  0.1235  0.1156  1.5147
   99SAPS   O31 9906  -0.080   3.674   6.657 -0.1220  0.7507  0.3233
   99SAPS   C31 9907  -0.178   3.595   6.713  0.0327 -0.9059 -0.9548
   99SAPS   O32 9908  -0.298   3.606   6.688 -0.3550  0.0731 -0.4647
   99SAPS   C32 9909  -0.111   3.498   6.811  0.0839 -0.1806 -0.0317
   99SAPS   H2X 9910  -0.006   3.528   6.828  0.3875 -1.2275 -0.0152
   99SAPS   H2Y 9911  -0.113   3.404   6.751 -2.1683  0.3864 -0.9879
   99SAPS   C23 9912  -0.059   4.227   6.802 -0.3337 -0.1514 -0.0269
   99SAPS   H3R 9913  -0.143   4.197   6.868  0.0044 -2.7947 -0.6905
   99SAPS   H3S 9914  -0.107   4.276   6.714 -0.2154 -2.1540 -1.2701
   99SAPS   C24 9915   0.037   4.310   6.882 -0.6097  0.1575 -0.7474
   99SAPS   H4R 9916   0.124   4.330   6.817 -0.2446  3.3363  0.5183
   99SAPS   H4S 9917   0.078   4.256   6.970 -0.7321  1.5216  0.1890
   99SAPS   C25 9918  -0.031   4.443   6.919 -0.4270 -0.3913 -0.7989
   99SAPS   H5R 9919  -0.093   4.493   6.844 -0.5303  1.8676  0.6926
   99SAPS   C26 9920  -0.037   4.485   7.050 -0.3799 -0.5234 -0.5368
   99SAPS   H6R 9921  -0.074   4.584   7.078 -1.9591 -1.6579  1.6447
   99SAPS   C27 9922   0.028   4.416   7.168  0.1874 -0.4402  0.6384
   99SAPS   H7R 9923  -0.009   4.315   7.192  0.2137 -0.4787  0.5192
   99SAPS   H7S 9924  -0.005   4.472   7.258  1.8420  1.8923 -0.0934
   99SAPS   C28 9925   0.178   4.404   7.156 -0.0549 -0.2159  0.8226
   99SAPS   H8R 9926   0.226   4.434   7.062 -0.2091  0.8238  1.0541
   99SAPS   C29 9927   0.261   4.361   7.252  0.1296  0.2769  0.3988
   99SAPS   H9R 9928   0.362   4.346   7.209 -1.0894 -1.1817 -2.1673
   99SAPS  C210 9929   0.241   4.312   7.390  0.4285 -0.2213 -0.2840
   99SAPS  H10R 9930   0.233   4.202   7.373 -2.8195 -0.1016 -0.1276
   99SAPS  H10S 9931   0.143   4.342   7.431  0.1402 -3.4618  1.7743
   99SAPS  C211 9932   0.355   4.347   7.478  0.1150 -0.7473 -0.9602
   99SAPS  H11R 9933   0.442   4.385   7.422 -1.3760  4.8384 -0.1611
   99SAPS  C212 9934   0.353   4.346   7.615  0.6958  0.2272  0.3758
   99SAPS  H12R 9935   0.440   4.386   7.670  0.6665 -0.9714  1.3423
   99SAPS  C213 9936   0.238   4.287   7.701 -0.2002  0.2492 -0.3288
   99SAPS  H13R 9937   0.148   4.256   7.642 -0.1050  0.2098 -0.4542
   99SAPS  H13S 9938   0.204   4.365   7.772 -1.3199 -1.0074  0.5605
   99SAPS  C214 9939   0.279   4.162   7.771  0.3245  0.7290  0.1628
   99SAPS  H14R 9940   0.300   4.077   7.703  0.2780  0.5888  0.3232
   99SAPS  C215 9941   0.298   4.141   7.902 -0.2840 -0.4345  0.7041
   99SAPS  H15R 9942   0.348   4.047   7.929  0.1829 -0.5612 -0.5429
   99SAPS  C216 9943   0.294   4.259   7.993 -0.5471  0.6009 -0.3687
   99SAPS  H16R 9944   0.209   4.244   8.063  0.7476  0.8983  1.3236
   99SAPS  H16S 9945   0.281   4.361   7.950 -3.2039  2.6165  4.4354
   99SAPS  C217 9946   0.428   4.264   8.077  0.5715 -0.3335  0.2359
   99SAPS  H17R 9947   0.517   4.284   8.013 -0.3731 -2.2820 -1.8314
   99SAPS  H17S 9948   0.431   4.159   8.113 -2.1228  0.1391  2.0460
   99SAPS  C218 9949   0.412   4.348   8.205  0.9869 -0.7424 -0.4052
   99SAPS  H18R 9950   0.312   4.337   8.251  0.7723  4.3199  0.9872
   99SAPS  H18S 9951   0.414   4.452   8.165 -1.2706  0.3281  1.9932
   99SAPS  C219 9952   0.517   4.316   8.319 -0.1393 -0.3647  0.6830
   99SAPS  H19R 9953   0.525   4.206   8.314  0.0188 -0.3164 -0.2332
   99SAPS  H19S 9954   0.474   4.350   8.416  1.0915  0.9573  0.7996
   99SAPS  C220 9955   0.649   4.376   8.283 -0.5980  0.4155  0.5489
   99SAPS  H20R 9956   0.733   4.333   8.342  2.1649  1.1452 -2.5572
   99SAPS  H20S 9957   0.650   4.485   8.301  0.7194  0.6466 -0.7922
   99SAPS  H20T 9958   0.672   4.348   8.178  1.2923 -0.8574  1.2306
   99SAPS   C33 9959  -0.209   3.495   6.931  0.0043 -0.0485 -0.2613
   99SAPS   H3X 9960  -0.283   3.413   6.914 -0.4624  0.1859  0.5748
   99SAPS   H3Y 9961  -0.268   3.589   6.939  0.6424  0.5585 -2.1811
   99SAPS   C34 9962  -0.140   3.492   7.061 -0.4061  0.3099 -0.7254
   99SAPS   H4X 9963  -0.073   3.579   7.072 -0.6435  1.0796 -4.2980
   99SAPS   H4Y 9964  -0.073   3.406   7.043 -0.1726  0.5910 -1.2074
   99SAPS   C35 9965  -0.230   3.481   7.187 -0.2933  0.2598  0.5579
   99SAPS   H5X 9966  -0.309   3.403   7.178  1.1413 -1.0658 -1.7312
   99SAPS   H5Y 9967  -0.289   3.574   7.201 -1.4622 -0.6353  1.9908
   99SAPS   C36 9968  -0.143   3.462   7.317  0.4361  0.7021  0.0236
   99SAPS   H6X 9969  -0.048   3.519   7.307  0.2092  1.2249  0.7131
   99SAPS   H6Y 9970  -0.112   3.357   7.299  0.8685  1.0946 -1.5949
   99SAPS   C37 9971  -0.226   3.493   7.447  0.4445 -0.7055 -0.4507
   99SAPS   H7X 9972  -0.317   3.431   7.430  1.6088 -2.3573 -0.9353
   99SAPS   H7Y 9973  -0.259   3.599   7.441 -2.9157 -1.6945 -1.9548
   99SAPS   C38 9974  -0.152   3.449   7.572 -0.1020 -0.7379  0.4965
   99SAPS   H8X 9975  -0.048   3.484   7.588 -0.1291 -0.0140 -0.7793
   99SAPS   H8Y 9976  -0.139   3.340   7.552 -0.9491 -0.4987 -1.5726
   99SAPS   C39 9977  -0.243   3.481   7.692 -0.4233  0.1462  0.1373
   99SAPS   H9X 9978  -0.344   3.437   7.675 -0.6892  1.3256 -1.7028
   99SAPS   H9Y 9979  -0.255   3.591   7.691 -0.1758  0.1923  1.4394
   99SAPS  C310 9980  -0.184   3.437   7.832 -0.1275  0.6092 -0.1553
   99SAPS  H10X 9981  -0.076   3.463   7.835  0.2839 -0.2151 -3.5800
   99SAPS  H10Y 9982  -0.186   3.328   7.815 -1.9568  0.9674 -3.0040
   99SAPS  C311 9983  -0.246   3.490   7.961  0.1075 -0.2253  0.3015
   99SAPS  H11X 9984  -0.352   3.457   7.960 -0.1411  0.3730 -2.5937
   99SAPS  H11Y 9985  -0.234   3.600   7.955  0.8219 -0.3516 -1.3456
   99SAPS  C312 9986  -0.185   3.447   8.094  0.4078 -0.1184 -0.4824
   99SAPS  H12X 9987  -0.092   3.508   8.105 -0.3294  1.0263 -0.4667
   99SAPS  H12Y 9988  -0.164   3.339   8.082  0.0155 -0.0837 -1.5355
   99SAPS  C313 9989  -0.282   3.473   8.212  0.3855  0.1001 -0.4904
   99SAPS  H13X 9990  -0.365   3.402   8.233 -0.2533  0.7928 -0.6569
   99SAPS  H13Y 9991  -0.337   3.569   8.207 -3.3448 -1.8409 -0.5845
   99SAPS  C314 9992  -0.213   3.464   8.349 -0.2325  0.0945  0.5256
   99SAPS  H14X 9993  -0.274   3.512   8.429  1.5561  0.4064  1.7645
   99SAPS  H14Y 9994  -0.130   3.536   8.337 -0.5384  0.2631 -0.7309
   99SAPS  C315 9995  -0.157   3.320   8.385  0.1236 -0.2389 -0.8921
   99SAPS  H15X 9996  -0.084   3.283   8.309  1.2560  0.6141 -0.2496
   99SAPS  H15Y 9997  -0.250   3.260   8.392  1.0193 -1.5037  1.5477
   99SAPS  C316 9998  -0.103   3.327   8.527 -0.1838 -0.4035 -0.2923
   99SAPS  H16X 9999  -0.083   3.224   8.564  1.0380  0.2601  1.0169
   99SAPS  H16Y10000  -0.180   3.369   8.594 -0.3784  0.5134 -1.0713
   99SAPS  C31710001   0.014   3.423   8.530  0.4079  0.0208  0.4330
   99SAPS  H17X10002  -0.025   3.525   8.508  3.0348  0.5536 -2.5322
   99SAPS  H17Y10003   0.090   3.406   8.451  1.2531  1.0041  1.0186
   99SAPS  C31810004   0.087   3.431   8.665 -0.7800 -0.0380  0.1318
   99SAPS  H18X10005   0.016   3.455   8.747 -2.7673 -0.8588 -1.2746
   99SAPS  H18Y10006   0.160   3.516   8.666  0.1463 -0.8093  0.9457
   99SAPS  H18Z10007   0.146   3.340   8.687 -0.6741  0.7047  3.4858
  100SAPS     N10008   4.548   0.929   5.841  0.0983  0.1851  0.9031
  100SAPS   HN110009   4.586   0.850   5.896  0.4920  0.1556  0.5864
  100SAPS   HN210010   4.476   0.900   5.771 -1.7002  1.5940  2.0619
  100SAPS   HN310011   4.623   0.978   5.789 -0.7614  0.6253  0.0475
  100SAPS   C1210012   4.472   1.031   5.927 -0.2549  0.5248 -0.5446
  100SAPS  H12A10013   4.379   0.986   5.957  1.6940 -1.6322  3.0482
  100SAPS   C1310014   4.552   1.070   6.062  0.6468  0.5672  0.0603
  100SAPS  O13A10015   4.660   1.009   6.088 -0.1664  0.3677 -0.0059
  100SAPS  O13B10016   4.493   1.143   6.151  0.0114 -0.3044 -0.0365
  100SAPS   C1110017   4.444   1.155   5.836 -0.1418 -0.9214  0.5967
  100SAPS  H11A10018   4.532   1.214   5.803 -0.1942 -1.6704 -0.9693
  100SAPS  H11B10019   4.386   1.223   5.902  3.5343  0.9147  2.2496
  100SAPS     P10020   4.219   1.086   5.709  0.1605 -0.1109 -0.1152
  100SAPS   O1310021   4.162   1.225   5.694 -0.0112  1.1172 -0.0937
  100SAPS   O1410022   4.189   0.995   5.598 -0.1860  0.1378 -0.1966
  100SAPS   O1210023   4.376   1.115   5.716 -0.5858  0.2185 -0.2797
  100SAPS   O1110024   4.182   1.029   5.847  0.0690 -1.1173  0.0837
  100SAPS    C110025   4.068   1.074   5.918 -0.6477  0.2585 -0.3467
  100SAPS    HA10026   4.049   1.182   5.902 -1.6724  0.1030 -0.2593
  100SAPS    HB10027   3.985   1.022   5.865 -1.4112 -0.2294  1.2555
  100SAPS    C210028   4.090   1.044   6.070  0.4803  0.1070  0.0917
  100SAPS    HS10029   4.189   1.086   6.096  0.3626  1.1698 -1.1219
  100SAPS   O2110030   4.096   0.904   6.071 -0.0582  0.5852 -0.3246
  100SAPS   C2110031   4.163   0.857   6.176  0.3513  0.1182  0.4908
  100SAPS   O2210032   4.231   0.928   6.249 -0.1297  0.6330  0.0385
  100SAPS   C2210033   4.141   0.706   6.195 -0.6421  0.3613 -0.3213
  100SAPS   H2R10034   4.031   0.690   6.202 -0.3950 -0.4689  2.9024
  100SAPS   H2S10035   4.181   0.671   6.097 -2.2072 -0.4852 -0.7015
  100SAPS    C310036   3.961   1.090   6.148  0.8962 -0.2927  0.2607
  100SAPS    HX10037   3.874   1.027   6.119 -0.9064  1.5816  1.3374
  100SAPS    HY10038   3.920   1.189   6.119 -0.2863 -1.4317 -2.3272
  100SAPS   O3110039   3.985   1.088   6.292 -0.4898 -0.1851 -0.1043
  100SAPS   C3110040   4.044   1.190   6.341 -0.2297 -0.3537 -0.4959
  100SAPS   O3210041   4.095   1.281   6.275  0.4292 -0.2540  0.1821
  100SAPS   C3210042   4.062   1.169   6.492  0.1866 -0.4523 -0.2837
  100SAPS   H2X10043   4.158   1.116   6.512  0.9107  1.0932  0.5216
  100SAPS   H2Y10044   3.980   1.099   6.520  0.3736 -1.2886 -1.7482
  100SAPS   C2310045   4.224   0.656   6.316  0.3959  0.5457  0.5365
  100SAPS   H3R10046   4.332   0.683   6.306  0.5990  0.0310  1.2646
  100SAPS   H3S10047   4.240   0.547   6.300  1.4551  0.7895 -0.2101
  100SAPS   C2410048   4.181   0.680   6.458  0.1267 -0.5901  0.3319
  100SAPS   H4R10049   4.072   0.658   6.465 -0.0544 -0.1615 -0.8469
  100SAPS   H4S10050   4.185   0.787   6.487  1.9325 -0.8118  1.0142
  100SAPS   C2510051   4.258   0.587   6.550 -0.6238 -0.0245 -0.2325
  100SAPS   H5R10052   4.242   0.481   6.526 -2.0199 -0.3196  1.7509
  100SAPS   C2610053   4.343   0.615   6.651 -0.3462 -0.5706 -0.4147
  100SAPS   H6R10054   4.390   0.532   6.705 -1.0746 -1.5842 -1.3130
  100SAPS   C2710055   4.387   0.752   6.701 -0.3986  0.8539  0.2194
  100SAPS   H7R10056   4.394   0.821   6.615  1.7458 -0.0730 -0.4276
  100SAPS   H7S10057   4.495   0.749   6.729 -0.6254  2.5760  1.4537
  100SAPS   C2810058   4.305   0.808   6.814 -0.0729  0.5310 -0.2749
  100SAPS   H8R10059   4.217   0.862   6.775  0.1504  0.7783 -0.4400
  100SAPS   C2910060   4.323   0.798   6.944  0.4693 -0.3958 -0.0786
  100SAPS   H9R10061   4.263   0.861   7.010 -0.4559 -2.1918  0.8831
  100SAPS  C21010062   4.439   0.721   7.001 -1.1539 -0.2675 -0.0769
  100SAPS  H10R10063   4.527   0.784   6.977 -1.2906 -0.4544 -1.1037
  100SAPS  H10S10064   4.456   0.619   6.959  0.0350 -0.0856 -0.0813
  100SAPS  C21110065   4.428   0.704   7.154 -0.9736  0.0948  0.6103
  100SAPS  H11R10066   4.459   0.794   7.209  0.9584  1.9688 -3.1889
  100SAPS  C21210067   4.403   0.587   7.220 -0.4487 -0.4024  0.2173
  100SAPS  H12R10068   4.403   0.580   7.329  0.4659 -0.8506  0.1983
  100SAPS  C21310069   4.356   0.463   7.145  0.1271 -0.3810  0.1435
  100SAPS  H13R10070   4.442   0.419   7.090  1.2361  0.0730  1.4432
  100SAPS  H13S10071   4.281   0.493   7.069 -0.8195  0.8609  1.5060
  100SAPS  C21410072   4.285   0.356   7.216 -0.2498 -0.6512 -0.0165
  100SAPS  H14R10073   4.323   0.253   7.207  2.4238  0.0943  1.6978
  100SAPS  C21510074   4.180   0.365   7.299  1.0154  0.5222 -1.4643
  100SAPS  H15R10075   4.141   0.271   7.339  2.0735  0.4835 -0.4902
  100SAPS  C21610076   4.091   0.489   7.328  0.1700  0.0610 -0.1404
  100SAPS  H16R10077   4.005   0.482   7.259  0.2623 -1.3887 -0.1281
  100SAPS  H16S10078   4.139   0.577   7.279  3.8251 -1.8419 -0.3501
  100SAPS  C21710079   4.066   0.520   7.475  0.1250  0.1087 -0.0745
  100SAPS  H17R10080   4.007   0.613   7.487 -0.3530 -0.3093  0.9854
  100SAPS  H17S10081   4.163   0.521   7.530  1.1603 -2.9410 -1.5908
  100SAPS  C21810082   3.994   0.405   7.536  0.6385  0.4598 -0.1021
  100SAPS  H18R10083   4.051   0.310   7.527  1.0366  0.6902 -0.0547
  100SAPS  H18S10084   3.894   0.389   7.489  1.6390 -0.5660 -2.0177
  100SAPS  C21910085   3.979   0.428   7.692 -0.0578 -0.3447 -0.3020
  100SAPS  H19R10086   3.911   0.516   7.697  0.1406 -0.2494  1.4751
  100SAPS  H19S10087   4.079   0.467   7.721 -1.5221  5.7194 -1.9614
  100SAPS  C22010088   3.926   0.312   7.775  0.7045 -0.0826 -0.6445
  100SAPS  H20R10089   3.823   0.295   7.739  0.4503  2.2259 -1.2073
  100SAPS  H20S10090   3.922   0.335   7.884  0.6750  0.3884 -0.7427
  100SAPS  H20T10091   3.994   0.224   7.769  0.4409 -0.5176  1.6649
  100SAPS   C3310092   4.066   1.306   6.571  0.4526  0.7572  0.2098
  100SAPS   H3X10093   3.967   1.356   6.577 -0.3116 -0.8342  2.4394
  100SAPS   H3Y10094   4.142   1.377   6.532 -1.8112  2.7427 -0.8282
  100SAPS   C3410095   4.106   1.276   6.719 -0.4042 -0.1584  0.4050
  100SAPS   H4X10096   4.209   1.234   6.715 -0.6100 -0.6003 -2.4556
  100SAPS   H4Y10097   4.043   1.198   6.768 -0.3228 -0.6820 -0.3098
  100SAPS   C3510098   4.115   1.407   6.798 -0.1153 -0.2308 -0.0199
  100SAPS   H5X10099   4.030   1.478   6.786 -2.3260 -2.5103  1.1078
  100SAPS   H5Y10100   4.200   1.462   6.753 -0.5104  0.9009  0.5697
  100SAPS   C3610101   4.137   1.381   6.949  0.1188  0.2812 -0.3665
  100SAPS   H6X10102   4.042   1.357   7.001 -0.8706  2.1880 -1.1859
  100SAPS   H6Y10103   4.172   1.479   6.988  0.3827  0.7023 -1.6173
  100SAPS   C3710104   4.235   1.270   6.974 -0.0273 -0.6115  0.3148
  100SAPS   H7X10105   4.333   1.300   6.934  0.6485  0.3972  2.5592
  100SAPS   H7Y10106   4.199   1.176   6.927 -0.9949  0.0300 -0.2496
  100SAPS   C3810107   4.242   1.236   7.121 -0.8810  0.4868  0.9912
  100SAPS   H8X10108   4.252   1.329   7.182  1.2482  0.5383  0.6478
  100SAPS   H8Y10109   4.335   1.175   7.125 -1.1350  0.0559  0.3670
  100SAPS   C3910110   4.124   1.156   7.168 -0.3642 -0.5177 -0.0027
  100SAPS   H9X10111   4.109   1.056   7.122  1.0020 -2.8001  3.9958
  100SAPS   H9Y10112   4.027   1.210   7.163 -1.2868 -2.1815 -1.3481
  100SAPS  C31010113   4.127   1.118   7.316  0.5386  0.1493  0.6508
  100SAPS  H10X10114   4.025   1.105   7.357 -0.3682  1.1682 -1.1374
  100SAPS  H10Y10115   4.154   1.210   7.373  3.4139  0.0834 -0.4403
  100SAPS  C31110116   4.222   0.997   7.342  0.6280 -0.5789  0.3866
  100SAPS  H11X10117   4.325   1.031   7.316  0.2666 -1.1647 -2.0166
  100SAPS  H11Y10118   4.196   0.904   7.288  0.5762  0.0388 -0.6827
  100SAPS  C31210119   4.221   0.965   7.493  0.2168  0.0875 -0.1800
  100SAPS  H12X10120   4.117   0.936   7.519  0.4323 -1.3031 -0.7668
  100SAPS  H12Y10121   4.257   1.045   7.561  1.1332  0.3017 -0.8957
  100SAPS  C31310122   4.299   0.836   7.531 -0.3187 -0.8581  0.1675
  100SAPS  H13X10123   4.398   0.848   7.480  0.1717 -0.8699  1.1013
  100SAPS  H13Y10124   4.259   0.749   7.475 -1.2570  0.0069 -0.5374
  100SAPS  C31410125   4.305   0.805   7.684 -0.4225  0.3309  0.3337
  100SAPS  H14X10126   4.336   0.897   7.739 -0.1310  1.6571 -1.9096
  100SAPS  H14Y10127   4.376   0.721   7.702  1.2628  1.7002  0.4041
  100SAPS  C31510128   4.168   0.775   7.743  0.6029 -0.7252  0.4212
  100SAPS  H15X10129   4.110   0.703   7.680 -0.2058 -1.5333  2.0290
  100SAPS  H15Y10130   4.110   0.870   7.744 -1.1168 -1.7417  0.6661
  100SAPS  C31610131   4.160   0.719   7.889 -0.1943  0.1500 -0.0574
  100SAPS  H16X10132   4.203   0.616   7.880  1.3940  0.9178 -2.0265
  100SAPS  H16Y10133   4.053   0.706   7.915 -0.5323  1.7728 -0.5797
  100SAPS  C31710134   4.234   0.792   8.001  0.0801  0.4225  0.6686
  100SAPS  H17X10135   4.207   0.898   7.985  0.9179  0.5845  0.2822
  100SAPS  H17Y10136   4.345   0.787   8.003  0.1395  0.9705 -0.5825
  100SAPS  C31810137   4.176   0.751   8.133 -0.1542 -0.4343  0.1234
  100SAPS  H18X10138   4.237   0.795   8.215 -0.0905 -2.4216  1.2044
  100SAPS  H18Y10139   4.179   0.642   8.151  0.2208 -0.1821  1.7229
  100SAPS  H18Z10140   4.071   0.787   8.140  0.4886  1.2765  2.0477
  101OSM      N10141   1.786   5.553  10.847 -0.4762 -0.1055  0.6276
  101OSM    C1510142   1.850   5.430  10.903  0.7995 -0.5204  0.3094
  101OSM   H15A10143   1.814   5.334  10.867 -0.8757 -0.5438  1.8600
  101OSM   H15B10144   1.860   5.432  11.011  2.0407  4.7606  0.3250
  101OSM   H15C10145   1.954   5.432  10.873  0.6489  1.7573 -0.2231
  101OSM    C1410146   1.636   5.542  10.888 -0.1242  0.5891 -0.0341
  101OSM   H14A10147   1.627   5.508  10.990  0.6546  0.0878 -0.1288
  101OSM   H14B10148   1.576   5.469  10.837 -0.9197  1.7523 -0.8179
  101OSM   H14C10149   1.583   5.636  10.876  1.9045  1.8769  0.5234
  101OSM    C1310150   1.861   5.662  10.907 -0.5601 -0.1267 -0.8230
  101OSM   H13A10151   1.827   5.764  10.899  0.8764  0.4996  0.4431
  101OSM   H13B10152   1.964   5.666  10.872 -0.6088  0.0843 -0.9466
  101OSM   H13C10153   1.868   5.642  11.013 -1.2815 -0.3229 -0.8078
  101OSM    C1210154   1.796   5.564  10.689  0.0756  0.1685 -0.6044
  101OSM   H12A10155   1.897   5.588  10.657 -0.5293  0.8515 -2.0653
  101OSM   H12B10156   1.735   5.652  10.674 -0.2113  0.3755  1.4717
  101OSM    C1110157   1.731   5.442  10.608  0.2862 -0.3243 -0.4081
  101OSM   H11A10158   1.721   5.483  10.505 -4.6870  1.0357  0.3629
  101OSM   H11B10159   1.625   5.423  10.632  1.0563 -3.5079  1.0210
  101OSM      P10160   1.937   5.288  10.558 -0.0719 -0.4715 -0.3248
  101OSM    O1310161   2.022   5.410  10.576 -0.0504  0.2370 -0.1306
  101OSM    O1410162   1.998   5.159  10.596 -0.2187  0.4120 -0.6033
  101OSM    O1110163   1.893   5.284  10.410  0.0184 -0.5446 -0.2506
  101OSM    O1210164   1.797   5.319  10.624 -0.1891 -0.3775 -0.1916
  101OSM    C1S10165   1.814   5.182  10.349 -0.3879 -0.0125  0.0709
  101OSM    H1S10166   1.709   5.191  10.384 -0.3220  1.8121 -0.0974
  101OSM    H1T10167   1.844   5.083  10.388  1.5708  0.1651 -0.8994
  101OSM     NF10168   1.728   5.063  10.162 -0.3264  0.0307  0.1342
  101OSM    HNF10169   1.754   4.978  10.117 -1.0423 -0.8488  1.3302
  101OSM    C2S10170   1.814   5.170  10.193 -0.9394  0.3231 -0.0979
  101OSM    H2S10171   1.764   5.258  10.146  0.0221  0.6928 -0.4708
  101OSM    C3S10172   1.950   5.165  10.127  0.0858 -0.2298  0.0549
  101OSM    H3S10173   2.007   5.077  10.162 -1.1371 -0.0320  2.7660
  101OSM     O310174   2.033   5.274  10.154  0.4030 -0.3812  0.0849
  101OSM    HO310175   1.994   5.319  10.230  3.1777  0.3696  1.2007
  101OSM    C4S10176   1.940   5.160   9.975 -0.1201  0.7497 -0.0002
  101OSM    H4S10177   1.880   5.241   9.929  0.2458  0.6300 -0.7106
  101OSM    C5S10178   1.994   5.070   9.895 -0.8599 -0.4657 -0.3322
  101OSM    H5S10179   2.063   4.989   9.923 -0.9054 -0.9015 -1.4375
  101OSM    C6S10180   1.995   5.074   9.742 -0.1211  1.0109  0.1639
  101OSM    H6S10181   2.083   5.013   9.711 -0.0605 -0.0097  2.1662
  101OSM    H6T10182   2.016   5.176   9.704  2.6946  0.5265  0.2343
  101OSM    C7S10183   1.858   5.028   9.660  0.5509 -0.0531  0.0669
  101OSM    H7S10184   1.779   5.102   9.682 -0.7950 -1.2986 -0.4244
  101OSM    H7T10185   1.842   4.929   9.707  2.7344 -0.6929 -0.4134
  101OSM    C8S10186   1.893   5.016   9.512 -0.6618  0.6070 -0.2971
  101OSM    H8S10187   1.969   4.938   9.492 -1.8298 -0.3549 -1.1119
  101OSM    H8T10188   1.932   5.116   9.481 -1.2039  0.6976 -0.7034
  101OSM    C9S10189   1.767   4.988   9.427  0.9048 -0.2285  0.1897
  101OSM    H9S10190   1.711   5.084   9.421  1.6139  0.1196 -3.0085
  101OSM    H9T10191   1.701   4.907   9.465  0.7920  0.6069  1.8529
  101OSM   C10S10192   1.782   4.954   9.281  0.7881 -0.4473  0.4237
  101OSM   H10S10193   1.850   5.032   9.238 -0.6949  0.2732 -0.7070
  101OSM   H10T10194   1.687   4.970   9.227  1.6987  2.8491 -0.4927
  101OSM   C11S10195   1.827   4.816   9.251 -1.1164  0.2010  0.4522
  101OSM   H11S10196   1.758   4.749   9.307 -1.1711  0.2226  0.4110
  101OSM   H11T10197   1.923   4.799   9.304 -0.4183 -0.1811 -0.8776
  101OSM   C12S10198   1.840   4.778   9.108  0.5405 -0.2378 -0.0894
  101OSM   H12S10199   1.739   4.748   9.074 -0.3358  1.4054  0.9471
  101OSM   H12T10200   1.895   4.687   9.076  1.1189 -0.0827  0.4345
  101OSM   C13S10201   1.901   4.888   9.021 -0.1306  0.2461  0.0971
  101OSM   H13S10202   1.990   4.933   9.070  0.3335  1.0310 -1.4134
  101OSM   H13T10203   1.821   4.961   8.996 -2.6552 -1.9511  1.3045
  101OSM   C14S10204   1.942   4.839   8.871  0.5603  0.2758 -0.4090
  101OSM   H14S10205   1.847   4.797   8.831 -0.5783  1.4390  0.9496
  101OSM   H14T10206   2.013   4.754   8.863 -0.9663 -0.9257 -1.9515
  101OSM   C15S10207   1.984   4.958   8.784 -0.2227 -0.3372  0.2950
  101OSM   H15S10208   2.078   4.999   8.827  0.2987 -0.2172 -0.9141
  101OSM   H15T10209   1.910   5.041   8.789 -0.4352 -0.4607 -0.5563
  101OSM   C16S10210   1.993   4.926   8.630 -0.8459  0.1629 -0.7519
  101OSM   H16S10211   2.030   5.022   8.589  1.3465  0.5731  1.9052
  101OSM   H16T10212   1.897   4.901   8.581 -0.8802  1.3771 -1.3416
  101OSM   C17S10213   2.107   4.828   8.593 -0.1040  0.1582 -0.4961
  101OSM   H17S10214   2.083   4.729   8.636  2.0217 -0.2550 -0.1616
  101OSM   H17T10215   2.198   4.873   8.639  0.3252 -0.4008 -0.7896
  101OSM   C18S10216   2.121   4.819   8.444 -0.4375 -0.1956 -0.6152
  101OSM   H18S10217   2.023   4.783   8.406 -1.2428 -0.7693  1.7904
  101OSM   H18T10218   2.192   4.740   8.412  0.6765  0.8159 -0.7064
  101OSM   H18U10219   2.165   4.915   8.410 -0.6268  0.3623  0.6715
  101OSM    C1F10220   1.596   5.074  10.187 -0.0124 -0.4789  0.6416
  101OSM     OF10221   1.549   5.185  10.214  0.0611  0.3925 -1.0192
  101OSM    C2F10222   1.528   4.944  10.172  0.6165  0.5342  0.6072
  101OSM    H2F10223   1.513   4.896  10.272  0.8023  0.0217  0.3927
  101OSM    H2G10224   1.593   4.874  10.116  0.6113  1.2847 -0.3557
  101OSM    C3F10225   1.393   4.957  10.094  0.4767  0.0067 -0.4645
  101OSM    H3F10226   1.322   5.024  10.147  0.7047  1.6777 -2.1554
  101OSM    H3G10227   1.341   4.861  10.073 -4.1518  2.6800 -2.9868
  101OSM    C4F10228   1.422   5.018   9.954 -0.4721 -0.1940  0.0160
  101OSM    H4F10229   1.517   4.973   9.919  0.3528  0.8403  0.8701
  101OSM    H4G10230   1.426   5.129   9.962 -1.8852 -0.0881 -0.5287
  101OSM    C5F10231   1.326   4.984   9.842  0.2033 -0.2621 -0.1231
  101OSM    H5F10232   1.238   5.048   9.865  0.2193 -0.4694  0.5391
  101OSM    H5G10233   1.299   4.876   9.845  1.0422 -0.4704  0.5191
  101OSM    C6F10234   1.389   5.012   9.704  0.5100  0.0553  0.5015
  101OSM    H6F10235   1.482   4.951   9.694 -0.2467 -1.1003  0.3700
  101OSM    H6G10236   1.398   5.121   9.686  0.3035 -0.0749 -0.4386
  101OSM    C7F10237   1.292   4.964   9.592  0.4228  0.3724  0.5707
  101OSM    H7F10238   1.192   5.009   9.610 -0.0552  0.3589 -1.7441
  101OSM    H7G10239   1.280   4.854   9.602 -0.0035  0.4896  1.5391
  101OSM    C8F10240   1.333   5.012   9.449  0.2348  0.0792 -0.4972
  101OSM    H8F10241   1.431   4.961   9.436  0.4922  0.1851  0.8691
  101OSM    H8G10242   1.347   5.122   9.459 -0.2954 -0.0351  2.4158
  101OSM    C9F10243   1.230   4.979   9.344  0.8738  0.0874 -0.4066
  101OSM    H9F10244   1.130   5.006   9.381  1.1966  1.2034 -0.2997
  101OSM   C10F10245   1.248   4.934   9.220  0.2615 -0.7271  0.6704
  101OSM   H10F10246   1.156   4.917   9.162 -1.2991 -0.7197  2.9667
  101OSM   C11F10247   1.377   4.884   9.169  0.7584 -0.0067 -0.4405
  101OSM   H11F10248   1.439   4.824   9.238 -1.4673  0.2190  1.9235
  101OSM   H11G10249   1.439   4.973   9.144  3.4939 -0.8503  2.6560
  101OSM   C12F10250   1.347   4.803   9.043  0.7357  0.5009  0.4528
  101OSM   H12F10251   1.288   4.857   8.966  2.3989 -0.3664 -1.5151
  101OSM   H12G10252   1.309   4.703   9.070  2.2987 -1.0096 -2.4148
  101OSM   C13F10253   1.479   4.770   8.970  0.5451 -0.7232 -0.3039
  101OSM   H13F10254   1.531   4.706   9.045 -0.3037 -0.7734  0.2668
  101OSM   H13G10255   1.530   4.867   8.955 -0.2788 -0.6954 -3.8101
  101OSM   C14F10256   1.457   4.709   8.833  0.7825  0.5206  0.1989
  101OSM   H14F10257   1.367   4.758   8.790  1.2501  2.1436  0.9811
  101OSM   H14G10258   1.432   4.602   8.850 -1.2785  0.7784 -0.8329
  101OSM   C15F10259   1.563   4.730   8.725 -0.1917 -0.2423 -0.4232
  101OSM   H15F10260   1.663   4.706   8.767 -0.7722  1.8833  2.4862
  101OSM   H15G10261   1.556   4.839   8.705 -1.3421 -0.5478 -1.8485
  101OSM   C16F10262   1.518   4.658   8.602  0.1687 -0.5527 -0.4343
  101OSM   H16F10263   1.409   4.677   8.596  0.3803  1.7212  1.5398
  101OSM   H16G10264   1.538   4.549   8.616  1.5428 -0.6957 -2.8933
  101OSM   C17F10265   1.597   4.703   8.481 -0.0585 -0.2052 -0.0023
  101OSM   H17F10266   1.702   4.668   8.481 -0.9924 -3.2742 -0.2958
  101OSM   H17G10267   1.593   4.814   8.483 -0.0179 -0.2125  1.2042
  101OSM   C18F10268   1.530   4.661   8.350  0.6544  0.4795  0.8047
  101OSM   H18F10269   1.555   4.557   8.320  0.3848  0.7734 -0.5071
  101OSM   H18G10270   1.560   4.733   8.272  1.1861  0.8477  1.3396
  101OSM   H18H10271   1.419   4.654   8.360  0.4766 -3.7302 -1.8480
  102OSM      N10272   6.053   4.477  10.868  0.0397 -0.4653 -0.0097
  102OSM    C1510273   6.185   4.499  10.941 -0.0584  0.3069 -0.0325
  102OSM   H15A10274   6.259   4.550  10.882 -0.0304 -0.0434 -0.3035
  102OSM   H15B10275   6.220   4.406  10.985 -2.8689 -0.0718  1.6927
  102OSM   H15C10276   6.162   4.572  11.018  0.3698  0.4648 -0.0523
  102OSM    C1410277   6.003   4.346  10.910 -0.6173 -0.0430  0.3114
  102OSM   H14A10278   5.974   4.351  11.014 -0.4999 -1.3007  0.4217
  102OSM   H14B10279   6.067   4.259  10.900 -0.1265  0.2632  0.7221
  102OSM   H14C10280   5.919   4.318  10.848 -1.3872  3.9324 -0.7044
  102OSM    C1310281   5.956   4.589  10.903  0.1210 -0.8314  0.1565
  102OSM   H13A10282   5.930   4.592  11.008  1.8107 -0.8047  0.5893
  102OSM   H13B10283   5.866   4.572  10.846 -0.0406 -0.8799  0.4234
  102OSM   H13C10284   5.982   4.690  10.876  0.9371 -0.9939  0.3180
  102OSM    C1210285   6.077   4.462  10.718  0.4140  0.0574 -0.5249
  102OSM   H12A10286   5.986   4.427  10.671 -0.2157  1.6664 -0.5532
  102OSM   H12B10287   6.162   4.395  10.722 -0.1257 -0.5795  1.9723
  102OSM    C1110288   6.111   4.581  10.627 -0.7817  1.0030 -0.3323
  102OSM   H11A10289   6.026   4.652  10.620 -0.9735  0.9014  0.8080
  102OSM   H11B10290   6.136   4.544  10.525  2.0288  0.4722  0.4438
  102OSM      P10291   6.375   4.619  10.641  0.0310 -0.2451 -0.5455
  102OSM    O1310292   6.461   4.739  10.661 -0.0091 -0.2717 -0.0335
  102OSM    O1410293   6.410   4.503  10.724  0.4430 -0.4338 -0.0756
  102OSM    O1110294   6.375   4.589  10.484 -0.4468 -0.3093  0.0512
  102OSM    O1210295   6.226   4.658  10.672  0.1165  0.0708 -0.3114
  102OSM    C1S10296   6.332   4.688  10.391  0.1581  0.2404  0.7013
  102OSM    H1S10297   6.407   4.770  10.397 -1.1928  1.4999  0.9047
  102OSM    H1T10298   6.232   4.728  10.419 -0.6418 -1.0700 -0.1512
  102OSM     NF10299   6.291   4.738  10.150 -0.7493 -0.0397 -0.1548
  102OSM    HNF10300   6.199   4.744  10.112  0.6342  1.7087 -3.7352
  102OSM    C2S10301   6.319   4.629  10.245 -0.1521  0.4717 -0.1873
  102OSM    H2S10302   6.421   4.590  10.226 -0.1230  0.6140 -0.3313
  102OSM    C3S10303   6.219   4.511  10.234 -0.1213 -0.3675  0.0747
  102OSM    H3S10304   6.118   4.550  10.259 -0.8246 -1.5056 -0.8996
  102OSM     O310305   6.244   4.388  10.311 -0.2230 -0.5243  0.3589
  102OSM    HO310306   6.319   4.417  10.364 -0.0678 -1.0174  0.4096
  102OSM    C4S10307   6.204   4.478  10.082  0.3164  0.8126 -0.0897
  102OSM    H4S10308   6.111   4.523  10.044  0.0149  0.9066  0.7358
  102OSM    C5S10309   6.283   4.394  10.014  0.1638  0.3186 -0.8014
  102OSM    H5S10310   6.366   4.355  10.074 -0.2881  3.9344  2.5660
  102OSM    C6S10311   6.271   4.374   9.870 -0.0248 -0.5632 -0.5479
  102OSM    H6S10312   6.191   4.299   9.850 -1.0533  0.8002 -1.8229
  102OSM    H6T10313   6.370   4.332   9.842  1.3810  0.6700  2.2174
  102OSM    C7S10314   6.248   4.490   9.770 -0.5101  0.2121  0.0947
  102OSM    H7S10315   6.163   4.557   9.792 -1.8858 -1.4598  0.1380
  102OSM    H7T10316   6.238   4.437   9.673  1.5288 -1.2606  0.6070
  102OSM    C8S10317   6.372   4.586   9.770 -0.5241  0.2341  0.4900
  102OSM    H8S10318   6.461   4.522   9.753  0.2465  0.9482  1.6682
  102OSM    H8T10319   6.373   4.635   9.870 -0.1463 -1.7565  1.5083
  102OSM    C9S10320   6.352   4.693   9.657 -0.2382  0.3240 -0.1503
  102OSM    H9S10321   6.433   4.768   9.675 -0.3103 -0.1048  2.3540
  102OSM    H9T10322   6.256   4.746   9.676 -0.8027 -0.4038 -0.9202
  102OSM   C10S10323   6.359   4.648   9.512  0.0968 -0.3487 -0.4370
  102OSM   H10S10324   6.282   4.570   9.500 -1.5698  1.4352 -2.0082
  102OSM   H10T10325   6.460   4.605   9.496  0.4186  0.6549 -1.2517
  102OSM   C11S10326   6.317   4.756   9.417 -0.0289  0.1274 -0.5073
  102OSM   H11S10327   6.401   4.828   9.416  1.1242 -1.1704 -0.9575
  102OSM   H11T10328   6.233   4.814   9.461  0.8786 -0.5017  2.2147
  102OSM   C12S10329   6.303   4.704   9.277 -0.2210  0.7947  0.4843
  102OSM   H12S10330   6.216   4.635   9.273  2.0554 -2.3163  1.0572
  102OSM   H12T10331   6.385   4.632   9.255 -1.0098  0.1047 -0.2764
  102OSM   C13S10332   6.277   4.818   9.172 -0.4110 -0.8493 -0.2628
  102OSM   H13S10333   6.352   4.900   9.178 -1.5041  0.1506  0.2989
  102OSM   H13T10334   6.180   4.863   9.204  0.4106  0.4657  0.4553
  102OSM   C14S10335   6.263   4.778   9.027 -0.9787  0.2222 -0.2852
  102OSM   H14S10336   6.160   4.738   9.013 -1.0383  0.8974 -1.9105
  102OSM   H14T10337   6.329   4.692   9.006 -0.9140  0.0995  0.3851
  102OSM   C15S10338   6.303   4.891   8.930 -0.2077 -0.0003 -0.9448
  102OSM   H15S10339   6.407   4.928   8.940 -0.2781 -0.0134 -0.1767
  102OSM   H15T10340   6.237   4.979   8.939 -0.8315 -0.5237 -0.2927
  102OSM   C16S10341   6.308   4.828   8.785  0.4312  0.3285  0.5967
  102OSM   H16S10342   6.204   4.789   8.781  0.8918 -0.8503 -0.3073
  102OSM   H16T10343   6.359   4.730   8.771  0.3669  0.4791 -0.8572
  102OSM   C17S10344   6.324   4.915   8.662 -0.3363 -0.5936 -0.2018
  102OSM   H17S10345   6.245   4.992   8.653 -0.5924 -0.6711  1.1764
  102OSM   H17T10346   6.331   4.843   8.578  1.8707 -1.2845  0.5005
  102OSM   C18S10347   6.454   4.998   8.674  0.9596 -1.2720  0.9694
  102OSM   H18S10348   6.445   5.070   8.759 -2.5352 -0.7233  0.2915
  102OSM   H18T10349   6.462   5.066   8.587  1.6996 -1.0743  1.1774
  102OSM   H18U10350   6.549   4.941   8.666  1.5941  0.0127 -1.7297
  102OSM    C1F10351   6.391   4.826  10.133  0.3111  0.1208  0.9102
  102OSM     OF10352   6.505   4.802  10.168 -0.6926 -0.5207  0.6471
  102OSM    C2F10353   6.352   4.946  10.063 -0.1403  0.3013  0.6996
  102OSM    H2F10354   6.327   5.019  10.143  0.6156  2.3019 -0.8061
  102OSM    H2G10355   6.266   4.928   9.994 -0.2887  1.9597  0.4190
  102OSM    C3F10356   6.472   4.990   9.974 -0.3110  0.1568  0.4295
  102OSM    H3F10357   6.501   4.905   9.909  0.9231  0.8380  0.0605
  102OSM    H3G10358   6.551   5.019  10.047 -0.3484  1.2925  0.0333
  102OSM    C4F10359   6.435   5.113   9.883 -0.0803  0.8212 -0.6728
  102OSM    H4F10360   6.457   5.204   9.943 -0.1322 -0.1327  0.8572
  102OSM    H4G10361   6.324   5.105   9.872 -0.1396  0.7208 -0.0613
  102OSM    C5F10362   6.496   5.099   9.743  0.8383 -0.4995 -0.0750
  102OSM    H5F10363   6.466   5.002   9.698  0.8504 -1.5277  2.0145
  102OSM    H5G10364   6.605   5.109   9.761  0.6513 -0.9084  1.3804
  102OSM    C6F10365   6.439   5.209   9.651 -0.4147 -1.0921 -0.0744
  102OSM    H6F10366   6.446   5.304   9.709 -1.2557 -2.6189  2.7399
  102OSM    H6G10367   6.337   5.169   9.633 -0.0554 -2.9400  1.5647
  102OSM    C7F10368   6.527   5.217   9.527  0.6614  0.3464  0.0083
  102OSM    H7F10369   6.519   5.114   9.486 -2.1929 -0.2157  1.6910
  102OSM    H7G10370   6.626   5.250   9.567  0.2853  1.0168  0.3924
  102OSM    C8F10371   6.476   5.327   9.435  0.4121  0.7113 -0.1222
  102OSM    H8F10372   6.563   5.374   9.383  1.0660  1.9141  1.9279
  102OSM    H8G10373   6.420   5.403   9.493 -1.6158  0.5429 -1.7428
  102OSM    C9F10374   6.367   5.277   9.339 -0.4041 -0.7451 -0.4169
  102OSM    H9F10375   6.274   5.241   9.385 -2.1437  2.0090 -1.5553
  102OSM   C10F10376   6.374   5.263   9.205 -0.3278 -0.1765 -0.1158
  102OSM   H10F10377   6.293   5.204   9.160  0.1999 -0.9982 -0.0107
  102OSM   C11F10378   6.487   5.287   9.111 -0.2055 -0.4782 -0.0956
  102OSM   H11F10379   6.579   5.228   9.131  0.9892  0.7494 -1.6706
  102OSM   H11G10380   6.518   5.393   9.125  1.8728 -0.8786 -1.3617
  102OSM   C12F10381   6.448   5.271   8.961  0.3602  0.5280  0.1035
  102OSM   H12F10382   6.421   5.166   8.937  0.6032  0.6513 -0.7465
  102OSM   H12G10383   6.535   5.300   8.898  0.5337 -0.4087 -0.1047
  102OSM   C13F10384   6.324   5.351   8.910  0.3536  0.1094 -0.2428
  102OSM   H13F10385   6.306   5.449   8.960 -1.1787  0.2370 -0.9661
  102OSM   H13G10386   6.231   5.291   8.922  0.7970 -0.0944  2.9780
  102OSM   C14F10387   6.339   5.375   8.759 -0.5573  0.3605  0.5501
  102OSM   H14F10388   6.318   5.283   8.701 -0.0766  0.0855  0.8098
  102OSM   H14G10389   6.445   5.405   8.746 -0.3439 -1.1995 -2.0642
  102OSM   C15F10390   6.255   5.497   8.700 -0.5780 -0.4675  0.1182
  102OSM   H15F10391   6.253   5.582   8.771  0.8604 -1.0963  0.9419
  102OSM   H15G10392   6.150   5.463   8.688 -0.4588 -0.6006 -0.5694
  102OSM   C16F10393   6.306   5.535   8.562 -0.6155 -0.3813  0.2546
  102OSM   H16F10394   6.295   5.450   8.491 -0.1078  1.5522 -2.2669
  102OSM   H16G10395   6.411   5.568   8.568 -0.7396 -0.2044  1.8676
  102OSM   C17F10396   6.232   5.656   8.502  0.0307 -0.8339  0.5975
  102OSM   H17F10397   6.235   5.744   8.570  4.4126  0.0526 -0.4104
  102OSM   H17G10398   6.126   5.628   8.488  0.5605 -1.4708 -3.2151
  102OSM   C18F10399   6.286   5.687   8.366 -0.2183 -0.0586 -0.0522
  102OSM   H18F10400   6.277   5.593   8.307 -0.0590  0.4263 -0.8707
  102OSM   H18G10401   6.394   5.714   8.365 -0.3846  0.6844  0.8011
  102OSM   H18H10402   6.231   5.767   8.311  1.8302  0.4027 -1.5824
  103OSM      N10403   3.329   6.551  10.645  0.4555  0.6585  0.9140
  103OSM    C1510404   3.375   6.413  10.678 -0.0294 -0.2897 -0.0663
  103OSM   H15A10405   3.325   6.371  10.764 -1.6703 -0.0987 -0.8891
  103OSM   H15B10406   3.482   6.408  10.694  0.3279  1.0075 -1.8182
  103OSM   H15C10407   3.351   6.341  10.601 -0.7826  1.1352 -1.2265
  103OSM    C1410408   3.183   6.561  10.599 -0.8698 -0.7272  0.4569
  103OSM   H14A10409   3.163   6.659  10.559  0.8975  0.7816  2.9480
  103OSM   H14B10410   3.112   6.535  10.676  0.9200 -2.0454  1.7590
  103OSM   H14C10411   3.163   6.488  10.522  0.9554 -1.2708  0.4559
  103OSM    C1310412   3.357   6.639  10.762 -0.2440  0.4337  0.4393
  103OSM   H13A10413   3.291   6.625  10.846 -1.4845  1.6339 -0.3014
  103OSM   H13B10414   3.331   6.741  10.737  1.6142  1.2066  1.4155
  103OSM   H13C10415   3.462   6.637  10.789 -0.6039 -0.1384  1.8771
  103OSM    C1210416   3.413   6.592  10.526 -0.3452 -0.2206  0.6242
  103OSM   H12A10417   3.372   6.679  10.477  1.6574  2.2638  3.0566
  103OSM   H12B10418   3.414   6.515  10.450  1.7691  1.5377 -1.2751
  103OSM    C1110419   3.555   6.649  10.551  0.0575 -0.3785 -0.9307
  103OSM   H11A10420   3.550   6.729  10.628  1.6083 -1.3102  0.1992
  103OSM   H11B10421   3.602   6.709  10.470 -1.5134 -0.6614 -2.0876
  103OSM      P10422   3.727   6.443  10.512 -0.0248 -0.5564  0.2721
  103OSM    O1310423   3.845   6.406  10.589 -0.0389  0.3135 -0.0515
  103OSM    O1410424   3.637   6.332  10.469 -0.2288 -0.1959 -0.5641
  103OSM    O1110425   3.767   6.530  10.387 -0.6769 -0.3334 -0.1009
  103OSM    O1210426   3.645   6.548  10.599  0.0904  0.0617  0.2030
  103OSM    C1S10427   3.710   6.495  10.262  0.4052 -0.2288 -1.0033
  103OSM    H1S10428   3.602   6.520  10.264  0.6103  0.6451  0.4645
  103OSM    H1T10429   3.711   6.387  10.236  1.0477 -0.0287 -1.8765
  103OSM     NF10430   3.691   6.572  10.025  0.4671  0.1378  0.1187
  103OSM    HNF10431   3.713   6.519   9.944 -0.3988  0.4532 -0.3340
  103OSM    C2S10432   3.776   6.573  10.142 -0.1827 -0.2114  0.4033
  103OSM    H2S10433   3.778   6.682  10.163  1.6705 -0.0819 -0.3026
  103OSM    C3S10434   3.922   6.526  10.122  0.8426 -0.2214 -0.5822
  103OSM    H3S10435   3.913   6.424  10.078 -0.7617  1.0894 -3.6760
  103OSM     O310436   3.998   6.501  10.242  0.3057 -0.1151 -1.0366
  103OSM    HO310437   3.949   6.542  10.314  0.0154 -1.0262 -0.7031
  103OSM    C4S10438   3.995   6.608  10.025  0.2243 -0.5005 -0.9699
  103OSM    H4S10439   3.987   6.552   9.931 -0.1677 -0.7043 -0.8161
  103OSM    C5S10440   4.075   6.714  10.038  0.5402  0.2297 -0.1467
  103OSM    H5S10441   4.099   6.740  10.142  0.0364 -4.5418  1.4045
  103OSM    C6S10442   4.141   6.780   9.921 -0.8518 -0.7239 -1.2680
  103OSM    H6S10443   4.249   6.753   9.924 -0.6546 -0.2287 -2.9996
  103OSM    H6T10444   4.137   6.890   9.942  1.0682 -0.6961 -0.7725
  103OSM    C7S10445   4.099   6.733   9.780  0.1838 -0.4603 -0.4413
  103OSM    H7S10446   3.988   6.742   9.777  0.2860  0.6269 -1.2952
  103OSM    H7T10447   4.132   6.627   9.783 -2.3240 -1.3019  1.3529
  103OSM    C8S10448   4.150   6.818   9.667 -0.0412 -0.0366  0.1715
  103OSM    H8S10449   4.257   6.844   9.681 -0.2149  0.9565 -0.2715
  103OSM    H8T10450   4.096   6.914   9.672 -2.5260 -1.0107 -3.7200
  103OSM    C9S10451   4.135   6.752   9.532 -0.0878 -0.4895  0.6504
  103OSM    H9S10452   4.037   6.700   9.526  1.3258 -3.2997  0.2943
  103OSM    H9T10453   4.213   6.674   9.520  0.5193  0.2352 -0.2257
  103OSM   C10S10454   4.152   6.846   9.411 -0.3866  0.1327 -0.1719
  103OSM   H10S10455   4.245   6.904   9.427 -0.1022 -0.8199  1.9103
  103OSM   H10T10456   4.069   6.919   9.420 -1.8187 -1.6768  3.1698
  103OSM   C11S10457   4.152   6.790   9.265 -0.5692  0.8219  0.6529
  103OSM   H11S10458   4.173   6.877   9.199 -0.6603  0.1419 -0.2913
  103OSM   H11T10459   4.053   6.748   9.236 -1.1387  2.1197  0.6568
  103OSM   C12S10460   4.255   6.676   9.245 -0.4786 -0.6216 -0.0903
  103OSM   H12S10461   4.220   6.582   9.294 -0.9813 -0.0741  0.6175
  103OSM   H12T10462   4.349   6.710   9.293 -1.4473  1.5283  0.3826
  103OSM   C13S10463   4.285   6.645   9.103  0.0884  0.7049  0.2575
  103OSM   H13S10464   4.377   6.582   9.105  1.3624  2.4882  1.5717
  103OSM   H13T10465   4.317   6.738   9.051  1.2932 -1.6958 -3.7141
  103OSM   C14S10466   4.179   6.579   9.019  0.5330 -0.0528 -0.0737
  103OSM   H14S10467   4.084   6.635   9.036  0.3124  0.4756 -2.6239
  103OSM   H14T10468   4.153   6.477   9.055  0.3788 -0.3538 -1.0130
  103OSM   C15S10469   4.212   6.579   8.866  0.1973  0.0593 -0.0350
  103OSM   H15S10470   4.296   6.509   8.844 -0.1144 -0.1169 -0.6887
  103OSM   H15T10471   4.250   6.679   8.837 -1.5777 -0.0134 -2.9297
  103OSM   C16S10472   4.100   6.558   8.765 -0.8212 -0.0776  0.2223
  103OSM   H16S10473   4.036   6.647   8.781 -0.3831  0.1954  0.4629
  103OSM   H16T10474   4.051   6.462   8.793 -1.0583  0.0039  0.0901
  103OSM   C17S10475   4.154   6.557   8.620 -0.2319  0.7749  0.2692
  103OSM   H17S10476   4.219   6.645   8.599 -1.0548  0.9599 -1.8037
  103OSM   H17T10477   4.073   6.556   8.544  2.3535 -3.7984 -2.9605
  103OSM   C18S10478   4.242   6.434   8.584  0.4197  0.5707 -0.1738
  103OSM   H18S10479   4.331   6.428   8.649  0.6120 -0.0795 -0.4920
  103OSM   H18T10480   4.271   6.437   8.477  0.1576 -0.1063 -0.2693
  103OSM   H18U10481   4.181   6.345   8.609  1.7349  0.4456  2.9300
  103OSM    C1F10482   3.564   6.618  10.033 -0.5275  0.6592 -0.0749
  103OSM     OF10483   3.526   6.690  10.125  0.4005 -0.2900 -0.0504
  103OSM    C2F10484   3.472   6.557   9.931 -0.3514 -0.8824  0.9559
  103OSM    H2F10485   3.368   6.556   9.972 -1.7530 -2.3354 -2.2311
  103OSM    H2G10486   3.492   6.449   9.910 -1.7230 -0.9641 -0.1602
  103OSM    C3F10487   3.467   6.648   9.806  0.0476 -0.3635  0.2174
  103OSM    H3F10488   3.566   6.645   9.757  0.1946 -2.1315  0.5447
  103OSM    H3G10489   3.446   6.749   9.847  2.5693  0.6255 -0.7697
  103OSM    C4F10490   3.350   6.609   9.719  0.0788  0.2371 -0.1101
  103OSM    H4F10491   3.251   6.645   9.754 -1.2481 -2.2996 -1.0489
  103OSM    H4G10492   3.326   6.501   9.716 -0.1873  0.2898  0.0767
  103OSM    C5F10493   3.366   6.671   9.576 -0.3297 -0.2202 -0.5420
  103OSM    H5F10494   3.463   6.635   9.536  0.3134 -0.3607  1.0517
  103OSM    H5G10495   3.371   6.781   9.583 -3.0037 -0.1390  2.9018
  103OSM    C6F10496   3.256   6.633   9.472 -0.7202 -0.5086 -0.6362
  103OSM    H6F10497   3.293   6.655   9.370 -0.3467  1.5532 -0.0950
  103OSM    H6G10498   3.172   6.703   9.491  0.8278  1.1835  0.2169
  103OSM    C7F10499   3.211   6.486   9.495  1.2004 -0.3132 -0.1352
  103OSM    H7F10500   3.154   6.490   9.590  0.5235  2.7283 -0.5513
  103OSM    H7G10501   3.296   6.418   9.513  0.8065 -0.9447 -0.6119
  103OSM    C8F10502   3.123   6.443   9.374  0.2976  0.0398 -0.4484
  103OSM    H8F10503   3.055   6.526   9.347 -0.4641 -1.6522 -4.4126
  103OSM    H8G10504   3.060   6.357   9.406 -1.4869  1.3254 -0.3742
  103OSM    C9F10505   3.194   6.404   9.235 -0.4805 -0.5818  0.2931
  103OSM    H9F10506   3.302   6.388   9.247  0.3006  3.0332 -0.5395
  103OSM   C10F10507   3.159   6.451   9.118  0.6410 -0.6963  0.3407
  103OSM   H10F10508   3.222   6.442   9.028 -0.6433 -0.7287 -0.5846
  103OSM   C11F10509   3.019   6.516   9.088 -1.4793 -0.6942  0.3358
  103OSM   H11F10510   2.949   6.517   9.174 -2.4814  0.6856 -0.4729
  103OSM   H11G10511   2.980   6.465   8.998 -1.4607 -1.5422  0.7872
  103OSM   C12F10512   3.034   6.666   9.055  0.2788  0.6710 -0.5810
  103OSM   H12F10513   2.941   6.698   9.004 -0.2046 -1.3148 -1.0127
  103OSM   H12G10514   3.122   6.685   8.991  1.4319  0.0938  0.7775
  103OSM   C13F10515   3.058   6.742   9.181 -0.2822 -0.0445  0.4845
  103OSM   H13F10516   2.982   6.729   9.261 -1.6423 -2.1678 -1.0514
  103OSM   H13G10517   3.152   6.701   9.222  0.1506 -0.9685 -1.3337
  103OSM   C14F10518   3.101   6.890   9.145 -0.5530 -0.6317 -1.2765
  103OSM   H14F10519   3.013   6.932   9.091 -1.3483 -3.4218 -2.3356
  103OSM   H14G10520   3.192   6.890   9.082  1.1431  0.2510  1.0521
  103OSM   C15F10521   3.123   6.976   9.274 -0.3986  0.3007 -0.0536
  103OSM   H15F10522   3.211   6.931   9.325 -0.9925 -0.3784  0.3955
  103OSM   H15G10523   3.038   6.972   9.346 -0.6840  2.8322 -0.1447
  103OSM   C16F10524   3.146   7.121   9.240  0.2072  0.1231  0.0676
  103OSM   H16F10525   3.086   7.173   9.163  0.3358  0.5194  0.2343
  103OSM   H16G10526   3.254   7.129   9.218  0.7844 -3.8464  0.6215
  103OSM   C17F10527   3.119   7.211   9.363 -0.4305  0.1618  0.1711
  103OSM   H17F10528   3.041   7.167   9.428 -1.5707  0.3936 -0.9949
  103OSM   H17G10529   3.076   7.308   9.330 -0.6907  0.3390  1.0182
  103OSM   C18F10530   3.238   7.226   9.450  0.1518  0.1103  0.1677
  103OSM   H18F10531   3.329   7.268   9.402 -0.5579 -0.4138 -1.7449
  103OSM   H18G10532   3.256   7.125   9.493  0.4776 -0.6589 -1.6402
  103OSM   H18H10533   3.210   7.296   9.531  0.7032  0.1128  0.3604
  104OSM      N10534   6.382   1.003  10.910  1.2383 -0.6520  0.4869
  104OSM    C1510535   6.506   1.075  10.940 -0.6731  0.0444 -0.0429
  104OSM   H15A10536   6.595   1.030  10.899 -0.8514  0.7642 -1.2714
  104OSM   H15B10537   6.516   1.077  11.048 -1.2919 -0.7095  0.0393
  104OSM   H15C10538   6.507   1.178  10.908 -0.1017  0.1196  0.2072
  104OSM    C1410539   6.383   0.877  10.981  0.0882 -0.3556 -0.2678
  104OSM   H14A10540   6.288   0.858  11.029  1.5495 -0.5588  2.7673
  104OSM   H14B10541   6.435   0.905  11.072  1.1726 -1.9795 -0.3470
  104OSM   H14C10542   6.440   0.810  10.919 -1.9596 -0.3641 -2.2505
  104OSM    C1310543   6.271   1.091  10.968  0.9276  0.2090 -0.0680
  104OSM   H13A10544   6.179   1.042  10.938  1.4515  0.2372 -1.8515
  104OSM   H13B10545   6.262   1.184  10.914 -2.6641  1.1438  1.8271
  104OSM   H13C10546   6.279   1.106  11.074  0.4022  1.6352 -0.2052
  104OSM    C1210547   6.349   0.989  10.760 -0.5873  0.3091  0.7814
  104OSM   H12A10548   6.332   1.082  10.707 -2.8665 -0.9086 -0.7840
  104OSM   H12B10549   6.265   0.921  10.755  0.5234 -0.9855 -2.2914
  104OSM    C1110550   6.462   0.911  10.678 -0.3397 -0.3449 -0.1538
  104OSM   H11A10551   6.409   0.883  10.584 -1.3783 -1.3087  0.6854
  104OSM   H11B10552   6.482   0.813  10.727 -0.4922  0.6438  2.0003
  104OSM      P10553   6.585   1.118  10.566  0.3279 -0.0455  0.0552
  104OSM    O1310554   6.569   1.235  10.658  0.2091 -0.0230  0.3418
  104OSM    O1410555   6.716   1.113  10.497  0.3744  0.2085  0.2802
  104OSM    O1110556   6.460   1.106  10.462 -0.2720  0.7068 -0.0561
  104OSM    O1210557   6.578   0.985  10.651  0.4847  0.1207 -0.2666
  104OSM    C1S10558   6.484   1.040  10.340 -0.2500 -0.4120 -0.0074
  104OSM    H1S10559   6.530   0.939  10.351 -1.3366 -0.9359 -0.1395
  104OSM    H1T10560   6.545   1.106  10.274 -1.1840  0.5979  0.1189
  104OSM     NF10561   6.389   0.933  10.138  0.3061 -0.2218  0.3920
  104OSM    HNF10562   6.409   0.977  10.050  0.5439 -2.1317 -0.5574
  104OSM    C2S10563   6.350   1.010  10.258 -0.4317 -0.5501 -0.1998
  104OSM    H2S10564   6.289   0.956  10.332 -0.4160 -0.1046  0.1447
  104OSM    C3S10565   6.285   1.143  10.232  0.0879  0.4201  0.7130
  104OSM    H3S10566   6.370   1.204  10.195 -0.8012  1.0675 -0.3253
  104OSM     O310567   6.251   1.212  10.346 -0.1319 -0.2484 -0.1829
  104OSM    HO310568   6.304   1.172  10.414  0.6964  2.2414  0.7610
  104OSM    C4S10569   6.169   1.127  10.134 -0.2292  0.0039 -0.2279
  104OSM    H4S10570   6.189   1.162  10.031 -1.7865 -0.6317 -0.7769
  104OSM    C5S10571   6.036   1.101  10.162 -0.0601  0.4917  0.5614
  104OSM    H5S10572   5.999   1.078  10.263  0.5228  0.1912  0.7114
  104OSM    C6S10573   5.929   1.112  10.058 -0.6991 -0.4384 -0.5214
  104OSM    H6S10574   5.880   1.212  10.065  0.4477  0.0370  1.0522
  104OSM    H6T10575   5.856   1.035  10.090  1.3420 -2.5351 -0.6574
  104OSM    C7S10576   5.966   1.077   9.911 -0.1546 -0.6385 -0.1086
  104OSM    H7S10577   6.026   0.984   9.900 -1.0731 -1.4402  1.2605
  104OSM    H7T10578   6.034   1.163   9.891  0.5732 -1.3109 -0.5514
  104OSM    C8S10579   5.842   1.076   9.817 -0.2933 -0.2570 -0.3619
  104OSM    H8S10580   5.788   1.173   9.825 -0.9629 -0.4265 -2.4903
  104OSM    H8T10581   5.769   1.002   9.854  1.0156 -3.1665 -3.1575
  104OSM    C9S10582   5.878   1.055   9.670 -0.0074  0.2083  0.7922
  104OSM    H9S10583   5.939   0.964   9.652  1.0097  0.8604  0.8353
  104OSM    H9T10584   5.936   1.144   9.638 -0.4869  0.0429 -0.5798
  104OSM   C10S10585   5.755   1.033   9.583 -0.3587 -0.2543  0.4861
  104OSM   H10S10586   5.687   1.121   9.585 -2.6648 -1.9356  1.5398
  104OSM   H10T10587   5.692   0.949   9.620 -1.3705  0.1377 -0.2871
  104OSM   C11S10588   5.800   1.008   9.431 -0.4258  0.2224  0.2050
  104OSM   H11S10589   5.881   0.933   9.425 -0.2215  0.4584 -0.0016
  104OSM   H11T10590   5.839   1.104   9.390  1.9584 -0.1016  1.5934
  104OSM   C12S10591   5.692   0.958   9.338 -0.1150 -0.1516  0.2713
  104OSM   H12S10592   5.598   1.008   9.369 -1.0887 -2.1726  0.7003
  104OSM   H12T10593   5.676   0.850   9.358 -0.2966 -0.2475 -0.3806
  104OSM   C13S10594   5.715   0.978   9.191  0.3524  0.0979 -0.0773
  104OSM   H13S10595   5.808   0.920   9.171  1.0242  0.4635  1.7755
  104OSM   H13T10596   5.721   1.082   9.154 -0.4302  0.4689  0.7973
  104OSM   C14S10597   5.597   0.938   9.106 -0.3500  0.1978 -0.4324
  104OSM   H14S10598   5.504   0.997   9.123  0.0996  0.7562  0.1583
  104OSM   H14T10599   5.573   0.832   9.130  1.6521 -0.0243  0.7710
  104OSM   C15S10600   5.633   0.946   8.958  0.3671  0.2344 -0.1945
  104OSM   H15S10601   5.656   1.052   8.934  0.7862  0.4547  1.0984
  104OSM   H15T10602   5.546   0.918   8.896 -0.6508  3.8084 -0.6064
  104OSM   C16S10603   5.750   0.862   8.905 -0.4393  0.8586 -0.0601
  104OSM   H16S10604   5.725   0.754   8.901 -1.2277  1.0640 -1.0020
  104OSM   H16T10605   5.846   0.872   8.961 -0.4424  0.0867  0.0917
  104OSM   C17S10606   5.788   0.910   8.763 -0.0371  0.2452 -0.1613
  104OSM   H17S10607   5.694   0.921   8.706  0.1071 -0.2590 -0.5063
  104OSM   H17T10608   5.853   0.834   8.713 -2.0212 -2.0005  0.5013
  104OSM   C18S10609   5.862   1.044   8.755 -0.3661  0.1347 -0.1633
  104OSM   H18S10610   5.806   1.135   8.785  0.5501  0.4157  0.7824
  104OSM   H18T10611   5.902   1.049   8.652 -2.0991  0.4409 -0.8441
  104OSM   H18U10612   5.949   1.033   8.824 -0.1873  0.6830 -0.2947
  104OSM    C1F10613   6.428   0.810  10.136  0.4082  0.3160  0.6035
  104OSM     OF10614   6.395   0.743  10.233 -0.1100 -0.3125 -0.3162
  104OSM    C2F10615   6.473   0.758  10.007 -0.1260  0.2167  0.3538
  104OSM    H2F10616   6.579   0.727  10.021  0.1202  0.1980 -1.3108
  104OSM    H2G10617   6.476   0.841   9.934 -2.4436  1.3586  1.4819
  104OSM    C3F10618   6.387   0.641   9.959  0.1681  0.2908 -0.4657
  104OSM    H3F10619   6.285   0.678   9.935  1.4276  3.8259 -1.0064
  104OSM    H3G10620   6.374   0.564  10.038  0.9622 -0.5468 -1.1250
  104OSM    C4F10621   6.441   0.574   9.829  0.4377 -0.4013  0.6078
  104OSM    H4F10622   6.375   0.487   9.809  0.1685 -0.1960  0.5900
  104OSM    H4G10623   6.541   0.533   9.854 -0.0393 -0.0823  3.4251
  104OSM    C5F10624   6.439   0.668   9.706 -0.1392  0.4033  0.7815
  104OSM    H5F10625   6.509   0.753   9.718 -0.7085  1.0818 -0.4905
  104OSM    H5G10626   6.336   0.712   9.703 -0.7371 -0.9643  0.7171
  104OSM    C6F10627   6.475   0.598   9.582  0.0635  0.0001  0.5925
  104OSM    H6F10628   6.407   0.511   9.567 -0.7486  0.6885  0.1953
  104OSM    H6G10629   6.583   0.576   9.578 -0.3163 -2.5312  2.2994
  104OSM    C7F10630   6.443   0.691   9.462  0.0414 -0.1038 -0.8582
  104OSM    H7F10631   6.527   0.764   9.464 -1.2363  1.4160 -0.2877
  104OSM    H7G10632   6.346   0.744   9.473 -1.2065 -2.3634 -0.3643
  104OSM    C8F10633   6.464   0.618   9.327  0.0985 -0.2312 -0.2575
  104OSM    H8F10634   6.557   0.557   9.333  0.4068  0.2022 -0.5475
  104OSM    H8G10635   6.481   0.709   9.265  3.3842 -0.5666 -0.0347
  104OSM    C9F10636   6.348   0.535   9.280 -0.3126 -0.3665  0.4111
  104OSM    H9F10637   6.295   0.485   9.363 -1.8139  1.8443  0.8650
  104OSM   C10F10638   6.301   0.529   9.147 -0.5540  0.6963 -0.2499
  104OSM   H10F10639   6.225   0.450   9.137  1.0682 -0.8336 -0.9419
  104OSM   C11F10640   6.368   0.587   9.024  0.0038  0.8925 -0.4540
  104OSM   H11F10641   6.415   0.685   9.046  1.1044  0.5278 -1.1186
  104OSM   H11G10642   6.286   0.613   8.953 -0.8058  0.2346  0.2206
  104OSM   C12F10643   6.473   0.495   8.967 -0.5068  0.1721  0.4664
  104OSM   H12F10644   6.439   0.410   8.904  1.0496  0.7994 -1.3567
  104OSM   H12G10645   6.522   0.451   9.056 -0.1426  0.1589  0.2637
  104OSM   C13F10646   6.578   0.569   8.883 -0.3289  0.4578 -0.2874
  104OSM   H13F10647   6.630   0.636   8.956  1.7659 -3.1110  1.7638
  104OSM   H13G10648   6.524   0.635   8.811 -2.2864  0.9229  1.4642
  104OSM   C14F10649   6.702   0.486   8.824  0.1309 -0.3774 -0.1813
  104OSM   H14F10650   6.652   0.398   8.776 -0.6034 -1.0241  1.6678
  104OSM   H14G10651   6.764   0.453   8.911 -2.3792 -2.0474  1.1190
  104OSM   C15F10652   6.780   0.568   8.711 -0.1410  0.0258  0.1631
  104OSM   H15F10653   6.846   0.495   8.659 -1.2607 -1.3305  0.5906
  104OSM   H15G10654   6.845   0.642   8.763 -2.4940  1.7708  0.8163
  104OSM   C16F10655   6.693   0.642   8.611  0.3608 -0.0001  0.8470
  104OSM   H16F10656   6.749   0.709   8.543  0.5620 -2.7064 -1.8529
  104OSM   H16G10657   6.617   0.708   8.659 -0.8618  0.1898 -1.2076
  104OSM   C17F10658   6.605   0.549   8.537  0.2394 -0.4511 -0.1646
  104OSM   H17F10659   6.517   0.524   8.601 -0.3447 -0.6665 -1.0279
  104OSM   H17G10660   6.655   0.451   8.519 -2.1471 -1.7345 -0.3085
  104OSM   C18F10661   6.561   0.601   8.400  0.2791 -0.0639 -0.3828
  104OSM   H18F10662   6.519   0.703   8.403 -1.0372 -0.5433 -1.4309
  104OSM   H18G10663   6.490   0.535   8.345 -1.6248  0.9224  0.7870
  104OSM   H18H10664   6.655   0.612   8.343 -1.1162  1.5505 -2.5449
  105OSM      N10665   0.501   0.264  10.801 -0.1463 -0.0229 -0.7076
  105OSM    C1510666   0.396   0.264  10.697 -0.8639  0.6763 -0.5171
  105OSM   H15A10667   0.323   0.192  10.732  1.1063 -1.6454 -0.8633
  105OSM   H15B10668   0.430   0.223  10.603  0.2374 -0.7853  0.4548
  105OSM   H15C10669   0.356   0.364  10.689 -2.3634  0.3616  1.9589
  105OSM    C1410670   0.629   0.331  10.761  0.0221  0.3729  0.2138
  105OSM   H14A10671   0.701   0.322  10.842  0.5192 -2.5804 -0.4586
  105OSM   H14B10672   0.615   0.436  10.740  2.1777  1.1344  2.1446
  105OSM   H14C10673   0.657   0.271  10.675 -1.0040 -0.9009  0.7389
  105OSM    C1310674   0.463   0.346  10.919 -0.7795 -0.2681  0.4136
  105OSM   H13A10675   0.542   0.363  10.991 -1.0638  2.5521  0.1481
  105OSM   H13B10676   0.381   0.302  10.974 -1.9655 -0.7040 -1.5936
  105OSM   H13C10677   0.428   0.443  10.886  0.5992  0.2848  0.5220
  105OSM    C1210678   0.534   0.129  10.854  0.0143  0.1805  0.2153
  105OSM   H12A10679   0.444   0.093  10.902  0.7550 -0.2209  1.3578
  105OSM   H12B10680   0.599   0.136  10.940 -0.4831 -0.0111  0.6149
  105OSM    C1110681   0.580   0.007  10.764  0.6435 -0.5077  0.3767
  105OSM   H11A10682   0.499   0.001  10.688  1.3862 -2.1686 -0.3348
  105OSM   H11B10683   0.582  -0.092  10.814  0.9571 -1.3377 -1.2338
  105OSM      P10684   0.824  -0.062  10.673  0.1014  0.0033  0.2771
  105OSM    O1310685   0.941   0.021  10.662 -0.3810  0.1905  0.3271
  105OSM    O1410686   0.824  -0.170  10.777  0.3142 -0.4617 -0.1976
  105OSM    O1110687   0.779  -0.132  10.540 -0.3086 -0.3589  0.4902
  105OSM    O1210688   0.706   0.036  10.705  0.2004 -0.3246  0.1624
  105OSM    C1S10689   0.712  -0.082  10.426  0.4115 -0.8759  0.1358
  105OSM    H1S10690   0.774  -0.003  10.378  0.0002 -1.2887 -1.1326
  105OSM    H1T10691   0.618  -0.031  10.455  0.0384 -1.3926 -0.1319
  105OSM     NF10692   0.653  -0.128  10.178 -0.5725 -0.2376  0.3267
  105OSM    HNF10693   0.559  -0.154  10.161  0.0805 -1.4938 -1.7387
  105OSM    C2S10694   0.702  -0.185  10.304  0.0154  0.1172  0.7377
  105OSM    H2S10695   0.807  -0.215  10.287 -0.7897 -1.2698 -2.5312
  105OSM    C3S10696   0.626  -0.314  10.343 -0.3641 -0.2003  0.5967
  105OSM    H3S10697   0.522  -0.276  10.340 -0.2008  0.2696  0.8192
  105OSM     O310698   0.631  -0.366  10.477  0.4332  0.1108 -0.3647
  105OSM    HO310699   0.681  -0.304  10.531  2.8246  0.8895 -3.1865
  105OSM    C4S10700   0.651  -0.433  10.253  0.0147  0.6738  0.3419
  105OSM    H4S10701   0.754  -0.470  10.257  0.2776  1.1034 -1.4384
  105OSM    C5S10702   0.558  -0.491  10.177  0.1590 -0.3159  0.1354
  105OSM    H5S10703   0.458  -0.444  10.168  1.1644  2.0865  0.6367
  105OSM    C6S10704   0.589  -0.617  10.093 -0.3409  0.3190 -0.0770
  105OSM    H6S10705   0.510  -0.692  10.114  0.1715  0.0587  0.9716
  105OSM    H6T10706   0.687  -0.656  10.128 -0.4613  1.5711  1.7882
  105OSM    C7S10707   0.605  -0.581   9.945 -0.4772  0.4527 -0.8391
  105OSM    H7S10708   0.693  -0.519   9.917  0.1791 -1.1052 -2.3606
  105OSM    H7T10709   0.520  -0.525   9.899 -0.1854  0.7602 -1.0083
  105OSM    C8S10710   0.640  -0.712   9.875 -0.7385  0.2782 -0.6890
  105OSM    H8S10711   0.581  -0.790   9.926  0.6499  0.9120  2.0873
  105OSM    H8T10712   0.746  -0.735   9.901  0.0261  0.9895 -2.9133
  105OSM    C9S10713   0.618  -0.715   9.727  0.0704  0.1811  0.2980
  105OSM    H9S10714   0.669  -0.637   9.667 -1.2774  1.6074  0.9340
  105OSM    H9T10715   0.510  -0.699   9.708 -0.2030  0.9464  2.2276
  105OSM   C10S10716   0.654  -0.853   9.665 -0.0658 -0.0348  0.7853
  105OSM   H10S10717   0.600  -0.933   9.720  0.0152 -0.5204  0.1643
  105OSM   H10T10718   0.763  -0.866   9.681 -0.3575 -2.0303  1.4246
  105OSM   C11S10719   0.654  -0.859   9.514 -0.2841 -0.4884  0.4076
  105OSM   H11S10720   0.724  -0.786   9.468 -0.0973 -0.3455  0.9245
  105OSM   H11T10721   0.551  -0.840   9.476 -0.6132 -1.1148  0.9587
  105OSM   C12S10722   0.690  -0.995   9.446  0.0743 -0.0961  0.5500
  105OSM   H12S10723   0.618  -1.065   9.493  1.3546 -0.7157  1.6895
  105OSM   H12T10724   0.794  -1.023   9.474 -0.0342 -3.6378 -1.9471
  105OSM   C13S10725   0.682  -1.000   9.290 -0.1308  0.3285 -0.3360
  105OSM   H13S10726   0.594  -0.940   9.258 -1.3355 -0.9629  0.4659
  105OSM   H13T10727   0.680  -1.102   9.245 -1.6094  1.0355 -2.0033
  105OSM   C14S10728   0.814  -0.931   9.235 -0.1865  0.6516  0.1559
  105OSM   H14S10729   0.888  -1.001   9.280 -1.7989 -0.7581  0.7235
  105OSM   H14T10730   0.816  -0.828   9.276 -1.5809  0.0408  1.8743
  105OSM   C15S10731   0.829  -0.929   9.078 -0.0494  0.2009 -0.3546
  105OSM   H15S10732   0.928  -0.883   9.059 -0.2987  1.1638  0.5873
  105OSM   H15T10733   0.761  -0.855   9.031 -0.3583 -0.8917 -1.6995
  105OSM   C16S10734   0.806  -1.069   9.025  0.1162  0.7243  0.1448
  105OSM   H16S10735   0.698  -1.096   9.027 -0.1001  1.5265 -0.0924
  105OSM   H16T10736   0.856  -1.153   9.078 -2.7131 -2.2548 -1.5494
  105OSM   C17S10737   0.833  -1.073   8.875 -0.2752 -0.2490 -0.1206
  105OSM   H17S10738   0.944  -1.077   8.867 -0.2285 -0.0823  0.4131
  105OSM   H17T10739   0.796  -0.981   8.826  0.7040  0.8842  1.1823
  105OSM   C18S10740   0.761  -1.194   8.817  0.0082  0.5491  0.8446
  105OSM   H18S10741   0.787  -1.272   8.892 -1.1925 -0.3926  0.3057
  105OSM   H18T10742   0.805  -1.226   8.720  1.7483  1.8841  1.1514
  105OSM   H18U10743   0.651  -1.185   8.810  0.2278  2.3093 -1.9524
  105OSM    C1F10744   0.710  -0.019  10.123  0.3636 -0.5383  0.3771
  105OSM     OF10745   0.831  -0.006  10.131  0.6547 -0.7331 -0.1573
  105OSM    C2F10746   0.625   0.082  10.048 -0.1661  0.9941  0.3584
  105OSM    H2F10747   0.615   0.158  10.128 -1.9817  0.2459  0.8820
  105OSM    H2G10748   0.524   0.039  10.037  0.4687 -0.1642 -1.3184
  105OSM    C3F10749   0.696   0.126   9.913 -0.3215 -0.5387  0.0245
  105OSM    H3F10750   0.677   0.048   9.835 -0.8704 -1.5283  1.1108
  105OSM    H3G10751   0.806   0.138   9.923 -0.4996  2.4502 -0.7641
  105OSM    C4F10752   0.652   0.270   9.867 -0.0924  0.1231 -0.2587
  105OSM    H4F10753   0.715   0.297   9.780  0.6417  1.4077  0.6382
  105OSM    H4G10754   0.667   0.343   9.950 -1.3207  1.0391 -0.8222
  105OSM    C5F10755   0.510   0.270   9.813  0.6237 -0.4381 -0.7501
  105OSM    H5F10756   0.445   0.306   9.896 -1.2940 -1.0614 -1.9004
  105OSM    H5G10757   0.475   0.165   9.800  0.2612 -0.7795  2.3632
  105OSM    C6F10758   0.488   0.329   9.676 -0.1147 -0.5960  0.0716
  105OSM    H6F10759   0.579   0.310   9.615 -1.2383 -0.3984 -1.7303
  105OSM    H6G10760   0.498   0.439   9.681  0.1275 -0.6749  1.9082
  105OSM    C7F10761   0.351   0.297   9.618 -0.7660  0.3275  0.0888
  105OSM    H7F10762   0.277   0.327   9.696 -2.3370 -0.1873 -1.1652
  105OSM    H7G10763   0.326   0.190   9.601 -4.4370  1.1458 -0.5956
  105OSM    C8F10764   0.333   0.372   9.491  0.9188  0.1640 -0.0253
  105OSM    H8F10765   0.343   0.481   9.508  0.1080  0.2488 -0.0578
  105OSM    H8G10766   0.227   0.359   9.460  0.1892  0.7118  2.0615
  105OSM    C9F10767   0.416   0.320   9.376  0.1914  0.0509 -0.3439
  105OSM    H9F10768   0.520   0.306   9.409  0.2188  1.8743  0.4636
  105OSM   C10F10769   0.388   0.314   9.245  0.0453  0.0586 -0.3999
  105OSM   H10F10770   0.470   0.294   9.175 -0.1989 -1.9023 -0.1790
  105OSM   C11F10771   0.268   0.365   9.183  0.0892  0.3150  0.1476
  105OSM   H11F10772   0.248   0.470   9.214  3.9141  1.3952 -0.5058
  105OSM   H11G10773   0.180   0.308   9.220 -1.1036  2.6746  1.2452
  105OSM   C12F10774   0.272   0.375   9.030  0.5703  0.0632 -0.1076
  105OSM   H12F10775   0.168   0.396   8.998 -0.1394 -1.7153  0.8967
  105OSM   H12G10776   0.302   0.283   8.976  0.8730 -0.2000  0.4930
  105OSM   C13F10777   0.362   0.495   8.997  0.0165 -0.3106  0.8298
  105OSM   H13F10778   0.465   0.474   9.033 -0.3216 -0.4993  1.7095
  105OSM   H13G10779   0.338   0.585   9.056 -2.3752  0.5603 -1.3224
  105OSM   C14F10780   0.370   0.503   8.847  0.0023  0.3743 -0.7444
  105OSM   H14F10781   0.268   0.525   8.807 -0.7710 -1.2115  0.2709
  105OSM   H14G10782   0.382   0.398   8.814  0.5228 -0.2896  1.4103
  105OSM   C15F10783   0.482   0.598   8.801 -0.4338  0.2010 -0.6326
  105OSM   H15F10784   0.574   0.593   8.863  1.0734  0.3744 -2.7205
  105OSM   H15G10785   0.444   0.699   8.828  0.3733  0.2370  0.4139
  105OSM   C16F10786   0.527   0.560   8.656 -0.1030  0.4812 -0.4760
  105OSM   H16F10787   0.435   0.553   8.596  0.9947 -1.3105 -2.0407
  105OSM   H16G10788   0.573   0.459   8.655  1.7484  1.2821 -2.2292
  105OSM   C17F10789   0.619   0.662   8.582  0.3946 -0.1919 -0.0806
  105OSM   H17F10790   0.708   0.671   8.647 -0.3445  1.4842  0.7442
  105OSM   H17G10791   0.565   0.759   8.585 -1.4806 -1.2018  1.6038
  105OSM   C18F10792   0.643   0.630   8.434 -1.2679  0.2115  0.1582
  105OSM   H18F10793   0.707   0.705   8.382 -2.0460  2.2725  1.9938
  105OSM   H18G10794   0.549   0.615   8.375 -0.5054 -1.4467 -0.6981
  105OSM   H18H10795   0.693   0.532   8.424  0.0205  0.9956 -1.7290
  106OSM      N10796   6.078   3.504  11.030  0.1648  0.6744 -0.3703
  106OSM    C1510797   6.160   3.624  11.027  0.3133  0.3491 -0.6296
  106OSM   H15A10798   6.138   3.686  11.112  0.1820 -0.9292  0.2980
  106OSM   H15B10799   6.150   3.684  10.937  0.5039 -1.6169 -2.0222
  106OSM   H15C10800   6.264   3.595  11.032  1.2612  3.3835 -0.7772
  106OSM    C1410801   6.095   3.435  11.165  0.5530 -0.3823  0.3012
  106OSM   H14A10802   6.191   3.392  11.187  0.0643 -1.6873 -0.0434
  106OSM   H14B10803   6.014   3.365  11.173 -0.5209  0.5324 -1.5761
  106OSM   H14C10804   6.083   3.498  11.252  1.7597  1.4329 -0.7512
  106OSM    C1310805   5.931   3.541  11.037  0.0096  0.1158 -0.0196
  106OSM   H13A10806   5.908   3.614  10.961 -3.5162  1.8261  2.4550
  106OSM   H13B10807   5.911   3.575  11.137  1.3382  0.3734  0.1799
  106OSM   H13C10808   5.870   3.453  11.027  0.2406  0.0709 -1.1713
  106OSM    C1210809   6.107   3.416  10.909  0.7064  1.1918 -0.4499
  106OSM   H12A10810   6.049   3.324  10.906  0.6427  1.2363 -0.5856
  106OSM   H12B10811   6.212   3.391  10.909  0.7133  1.2168 -0.7244
  106OSM    C1110812   6.077   3.475  10.763 -0.4147 -0.4811  0.4607
  106OSM   H11A10813   5.975   3.518  10.753 -0.7745 -1.2491  0.7169
  106OSM   H11B10814   6.091   3.390  10.692  3.0361  2.5651 -3.0211
  106OSM      P10815   6.316   3.565  10.712  0.2477  0.0091 -0.1660
  106OSM    O1310816   6.372   3.702  10.723  0.0257  0.3228 -0.0657
  106OSM    O1410817   6.368   3.468  10.811 -0.1685 -0.1533 -0.5135
  106OSM    O1110818   6.327   3.511  10.565 -0.6502 -0.6234  0.3948
  106OSM    O1210819   6.164   3.585  10.735 -0.0088 -0.4406 -0.5773
  106OSM    C1S10820   6.248   3.570  10.460  0.0851  0.2273 -0.1974
  106OSM    H1S10821   6.247   3.681  10.468  0.0348  0.1893  0.3276
  106OSM    H1T10822   6.143   3.533  10.467  0.0449  0.0383 -1.5123
  106OSM     NF10823   6.217   3.605  10.214  0.2529 -0.1473 -0.2546
  106OSM    HNF10824   6.147   3.556  10.163 -2.3345  2.5427  0.4612
  106OSM    C2S10825   6.293   3.532  10.309 -0.1420  0.2797 -0.2650
  106OSM    H2S10826   6.401   3.560  10.307  0.2213 -0.9827  0.2789
  106OSM    C3S10827   6.277   3.377  10.293 -0.6297  0.7127 -0.8326
  106OSM    H3S10828   6.169   3.352  10.298  0.1335 -2.9494  0.9469
  106OSM     O310829   6.334   3.297  10.400  0.3429  0.4551 -0.1091
  106OSM    HO310830   6.347   3.361  10.470 -1.3163 -0.7171  1.3614
  106OSM    C4S10831   6.345   3.334  10.168  0.6425  0.2292 -0.9751
  106OSM    H4S10832   6.454   3.317  10.168  0.4530 -1.5381  1.0668
  106OSM    C5S10833   6.276   3.307  10.050 -0.1093 -0.9912 -0.4132
  106OSM    H5S10834   6.168   3.328  10.047 -0.1752 -1.3368 -2.8416
  106OSM    C6S10835   6.337   3.258   9.921 -0.1122  0.7639  0.6057
  106OSM    H6S10836   6.287   3.160   9.903  1.2863 -0.0380  0.9743
  106OSM    H6T10837   6.447   3.249   9.925 -0.0467  1.5698  0.8030
  106OSM    C7S10838   6.316   3.370   9.814  0.1119 -0.3278 -0.2864
  106OSM    H7S10839   6.359   3.463   9.856  1.1693 -0.6526 -0.6400
  106OSM    H7T10840   6.206   3.388   9.811 -0.0131 -1.1460 -1.7427
  106OSM    C8S10841   6.355   3.339   9.672 -0.3247  0.0121  0.0190
  106OSM    H8S10842   6.450   3.283   9.668  0.0850  0.6282  0.8496
  106OSM    H8T10843   6.375   3.431   9.612 -0.1927  0.0856  0.1766
  106OSM    C9S10844   6.262   3.254   9.585 -0.6363  0.7749  0.4966
  106OSM    H9S10845   6.172   3.314   9.560 -0.6143  0.3017 -0.7745
  106OSM    H9T10846   6.230   3.158   9.633  2.0261 -0.0249  0.8343
  106OSM   C10S10847   6.323   3.206   9.456  0.1316 -0.9421 -0.7302
  106OSM   H10S10848   6.421   3.153   9.469 -0.2374 -1.4671 -0.0346
  106OSM   H10T10849   6.360   3.291   9.395 -0.8930  0.0777  0.0357
  106OSM   C11S10850   6.239   3.112   9.378  0.3062  0.2140 -0.6906
  106OSM   H11S10851   6.142   3.163   9.363 -0.3230  0.2416  2.5689
  106OSM   H11T10852   6.220   3.021   9.440 -0.4183 -0.4848 -1.9114
  106OSM   C12S10853   6.304   3.069   9.254 -0.0812  0.1800  0.5291
  106OSM   H12S10854   6.252   2.978   9.218  1.6549 -0.3787 -0.7550
  106OSM   H12T10855   6.408   3.038   9.278 -0.2469 -0.4480  0.4546
  106OSM   C13S10856   6.302   3.158   9.131 -0.3869 -0.8793 -0.2062
  106OSM   H13S10857   6.314   3.262   9.167  0.8463 -1.4314  1.0851
  106OSM   H13T10858   6.198   3.149   9.093 -0.7066  0.7440  0.2268
  106OSM   C14S10859   6.391   3.111   9.018  0.4936  0.0829  0.0569
  106OSM   H14S10860   6.393   3.000   9.010  1.9441 -0.0231  1.4382
  106OSM   H14T10861   6.497   3.137   9.038  0.0956  0.9652  1.1432
  106OSM   C15S10862   6.343   3.165   8.882  0.4483 -0.1238  0.9381
  106OSM   H15S10863   6.361   3.274   8.893  0.8590 -0.1562  0.6076
  106OSM   H15T10864   6.234   3.148   8.869  0.4548  0.4829 -0.0133
  106OSM   C16S10865   6.408   3.102   8.755 -0.0544 -0.6974 -0.7689
  106OSM   H16S10866   6.374   3.146   8.659  0.6156  0.6143 -0.4317
  106OSM   H16T10867   6.377   2.995   8.758 -0.8079 -0.4784 -0.5551
  106OSM   C17S10868   6.562   3.092   8.768 -0.0493 -0.8431 -0.1071
  106OSM   H17S10869   6.614   3.069   8.863 -1.1589  1.1172  1.0223
  106OSM   H17T10870   6.605   3.192   8.747  2.2781 -1.7005  0.3045
  106OSM   C18S10871   6.637   2.999   8.668  0.1505 -0.9264 -0.8813
  106OSM   H18S10872   6.608   3.014   8.562 -1.3826  0.1596 -0.3473
  106OSM   H18T10873   6.604   2.897   8.695 -0.6987 -1.7947 -4.6217
  106OSM   H18U10874   6.748   2.997   8.663  0.1262 -0.7188 -1.7015
  106OSM    C1F10875   6.234   3.731  10.184  0.1447 -0.2736  0.1213
  106OSM     OF10876   6.311   3.801  10.260  0.3969 -0.7524 -0.0039
  106OSM    C2F10877   6.167   3.787  10.057 -0.5414  0.6991  0.2598
  106OSM    H2F10878   6.065   3.823  10.083 -1.0707  0.0533 -0.8798
  106OSM    H2G10879   6.154   3.711   9.977  0.9693 -0.1155  0.7496
  106OSM    C3F10880   6.250   3.898   9.998  0.3388  0.2203  0.4288
  106OSM    H3F10881   6.351   3.864   9.967  1.2857  2.4028  0.9196
  106OSM    H3G10882   6.273   3.980  10.070 -1.6549  0.8737  0.3865
  106OSM    C4F10883   6.176   3.953   9.879  1.2139  0.6400 -0.0671
  106OSM    H4F10884   6.103   4.030   9.911 -1.7962 -1.5177 -1.2299
  106OSM    H4G10885   6.114   3.874   9.831  1.4401 -0.8288  1.9542
  106OSM    C5F10886   6.259   4.013   9.766  0.4230  1.0189 -0.5745
  106OSM    H5F10887   6.351   3.957   9.740  0.8709  1.5999 -0.2777
  106OSM    H5G10888   6.303   4.112   9.792  1.8293  0.4216 -0.6554
  106OSM    C6F10889   6.180   4.031   9.634  0.4705  0.0836 -0.4785
  106OSM    H6F10890   6.099   4.104   9.656  1.2576  1.5322 -2.1697
  106OSM    H6G10891   6.140   3.929   9.617  1.4495 -0.7361  1.7261
  106OSM    C7F10892   6.275   4.067   9.522  0.4977 -0.0215 -0.2559
  106OSM    H7F10893   6.355   3.991   9.508 -0.3304 -1.1371  0.8252
  106OSM    H7G10894   6.335   4.158   9.544 -0.1396  0.4935 -0.6291
  106OSM    C8F10895   6.191   4.086   9.387 -0.2805 -0.6778 -0.2360
  106OSM    H8F10896   6.250   4.143   9.312 -1.7406 -0.5306 -1.3131
  106OSM    H8G10897   6.117   4.160   9.422  1.6874  0.3687  2.0014
  106OSM    C9F10898   6.131   3.955   9.346 -0.5786 -0.2061  0.1079
  106OSM    H9F10899   6.045   3.906   9.393  0.8089 -3.3989 -0.3749
  106OSM   C10F10900   6.195   3.890   9.247 -0.0207  0.7570  0.1054
  106OSM   H10F10901   6.155   3.791   9.221  2.0087 -0.1876  0.3267
  106OSM   C11F10902   6.313   3.921   9.162  0.5209  0.2588  0.2028
  106OSM   H11F10903   6.353   3.830   9.113  1.0149 -0.6094  2.1225
  106OSM   H11G10904   6.390   3.967   9.228  0.3100  1.9809 -0.7097
  106OSM   C12F10905   6.281   4.013   9.040 -0.1250 -0.3915  0.1233
  106OSM   H12F10906   6.377   4.067   9.024 -1.0315  1.6161  1.0481
  106OSM   H12G10907   6.211   4.092   9.075  1.7070  1.1279  0.5356
  106OSM   C13F10908   6.230   3.928   8.921  0.0814  0.1645 -0.1696
  106OSM   H13F10909   6.131   3.883   8.943  0.6398 -1.4484 -0.8292
  106OSM   H13G10910   6.300   3.846   8.894  0.0494 -0.0354  0.3355
  106OSM   C14F10911   6.219   4.019   8.802 -0.4197 -0.6252  0.4109
  106OSM   H14F10912   6.310   4.083   8.803 -0.1154 -1.0581  1.2380
  106OSM   H14G10913   6.135   4.090   8.819  1.6443  1.6288  1.8765
  106OSM   C15F10914   6.212   3.951   8.662 -0.7768 -0.2525  0.0755
  106OSM   H15F10915   6.276   3.861   8.656  0.0534  0.4170 -3.8199
  106OSM   H15G10916   6.235   4.021   8.579 -3.5976  0.1840 -0.4534
  106OSM   C16F10917   6.070   3.903   8.650  0.3018 -0.2177 -0.5239
  106OSM   H16F10918   6.012   3.996   8.631  0.0632 -0.6628 -2.0762
  106OSM   H16G10919   6.045   3.857   8.748  0.7923  0.4352 -0.0777
  106OSM   C17F10920   6.050   3.805   8.530 -0.0773  0.5850 -0.0941
  106OSM   H17F10921   5.945   3.795   8.497 -0.3048 -1.0925  1.0023
  106OSM   H17G10922   6.076   3.705   8.572 -1.0492  0.8647  1.2270
  106OSM   C18F10923   6.124   3.829   8.393  0.6474  0.0568 -0.2877
  106OSM   H18F10924   6.234   3.827   8.407  0.6138  3.0747  1.2316
  106OSM   H18G10925   6.109   3.932   8.352  4.1536  0.9543  0.3693
  106OSM   H18H10926   6.090   3.758   8.314 -1.2008  0.3741  0.1736
  107OSM      N10927   1.624   0.761  10.897 -0.0897 -0.0279 -0.1575
  107OSM    C1510928   1.618   0.730  10.752  0.2393 -0.2072  0.2924
  107OSM   H15A10929   1.541   0.656  10.740 -1.4278  1.4582  0.3064
  107OSM   H15B10930   1.716   0.693  10.727  1.1724  2.1823  0.1761
  107OSM   H15C10931   1.598   0.818  10.693  1.0569  0.1009  0.4600
  107OSM    C1410932   1.641   0.628  10.966  0.4186  0.8119  0.0448
  107OSM   H14A10933   1.556   0.562  10.956 -0.4025  1.6568  1.2856
  107OSM   H14B10934   1.661   0.633  11.072 -2.1207  0.2257  0.6168
  107OSM   H14C10935   1.729   0.572  10.936  1.8463  1.2476  3.0950
  107OSM    C1310936   1.741   0.841  10.920 -0.1293  0.2607  0.8866
  107OSM   H13A10937   1.712   0.943  10.897  0.0855 -0.2446 -2.0385
  107OSM   H13B10938   1.833   0.814  10.870  0.6710 -0.2020  2.5295
  107OSM   H13C10939   1.775   0.864  11.020  0.1198  1.2573  0.5858
  107OSM    C1210940   1.489   0.822  10.941 -0.9119 -0.5321  0.5606
  107OSM   H12A10941   1.490   0.820  11.049  0.9744  0.5947  0.6084
  107OSM   H12B10942   1.414   0.757  10.899 -2.1704  0.4439  1.2095
  107OSM    C1110943   1.466   0.971  10.902  0.1775  0.5599 -0.1536
  107OSM   H11A10944   1.546   1.040  10.937 -0.3059  0.7483  0.6061
  107OSM   H11B10945   1.378   1.001  10.963 -2.0702 -0.8807 -2.4765
  107OSM      P10946   1.300   0.967  10.710  0.0754  0.1506  0.4023
  107OSM    O1310947   1.296   0.862  10.607 -0.0894  0.0856  0.0172
  107OSM    O1410948   1.206   0.948  10.821  0.2497 -0.0974 -0.1894
  107OSM    O1110949   1.258   1.107  10.642 -0.1071  0.1627  0.3944
  107OSM    O1210950   1.447   0.989  10.767  0.1572  0.1559 -0.2871
  107OSM    C1S10951   1.337   1.160  10.535 -0.2863  0.4917  0.5173
  107OSM    H1S10952   1.429   1.101  10.517 -2.0400 -2.1195 -0.6437
  107OSM    H1T10953   1.362   1.264  10.566  0.1945  0.6693 -0.4289
  107OSM     NF10954   1.354   1.225  10.291  0.7964 -0.0447  0.0381
  107OSM    HNF10955   1.346   1.316  10.251 -0.9473 -0.0494  0.2873
  107OSM    C2S10956   1.259   1.179  10.401  0.5879  0.2605 -0.1570
  107OSM    H2S10957   1.225   1.076  10.378  3.6226 -1.6206  2.8263
  107OSM    C3S10958   1.131   1.264  10.432  1.4185  0.5912 -0.0923
  107OSM    H3S10959   1.152   1.372  10.444 -0.6674  0.8694  1.6843
  107OSM     O310960   1.059   1.227  10.549  0.1244 -0.4135 -0.8511
  107OSM    HO310961   1.121   1.183  10.607 -1.2008  0.5854  1.4350
  107OSM    C4S10962   1.041   1.255  10.310  0.1109 -0.6390  0.2252
  107OSM    H4S10963   1.052   1.354  10.266  1.1558 -0.5489  0.6559
  107OSM    C5S10964   0.948   1.169  10.271  0.6727  0.0925 -0.2831
  107OSM    H5S10965   0.920   1.091  10.344 -1.3600  0.1241 -0.9887
  107OSM    C6S10966   0.854   1.170  10.149 -0.2792 -0.0154  0.2179
  107OSM    H6S10967   0.747   1.172  10.178 -0.6402 -0.7219 -0.9699
  107OSM    H6T10968   0.876   1.079  10.089 -0.1531  0.2037 -0.0718
  107OSM    C7S10969   0.873   1.289  10.050  0.1231 -0.0717 -0.3230
  107OSM    H7S10970   0.978   1.279  10.014  0.2199 -2.0649  0.4013
  107OSM    H7T10971   0.849   1.378  10.112 -1.6359 -0.9675  0.3247
  107OSM    C8S10972   0.786   1.274   9.921 -0.4288  0.1473  0.2002
  107OSM    H8S10973   0.679   1.286   9.947 -0.4762  0.7774 -0.2669
  107OSM    H8T10974   0.799   1.171   9.882 -2.7823 -0.2857  0.4101
  107OSM    C9S10975   0.814   1.385   9.813  0.3437  1.0409  0.2348
  107OSM    H9S10976   0.913   1.352   9.773 -0.0760 -0.6520  0.5035
  107OSM    H9T10977   0.809   1.483   9.864 -0.7153 -0.0312  2.3112
  107OSM   C10S10978   0.704   1.373   9.703 -0.5919 -0.6059 -0.0186
  107OSM   H10S10979   0.617   1.438   9.722  2.0483  3.3922 -0.3843
  107OSM   H10T10980   0.684   1.265   9.685  1.7793 -0.8439 -1.7153
  107OSM   C11S10981   0.764   1.422   9.571  0.3333  0.0420 -0.7095
  107OSM   H11S10982   0.865   1.378   9.556 -0.2166 -0.6070 -2.9565
  107OSM   H11T10983   0.768   1.532   9.591  1.5541  0.5893 -3.3715
  107OSM   C12S10984   0.670   1.414   9.453  0.2384  0.1989  1.2770
  107OSM   H12S10985   0.571   1.456   9.481 -0.6116  1.6200 -3.0691
  107OSM   H12T10986   0.649   1.310   9.420 -1.5031  0.9140 -0.0180
  107OSM   C13S10987   0.727   1.484   9.322  0.5493 -0.1581  0.0415
  107OSM   H13S10988   0.835   1.457   9.316  1.3009  1.9546  2.3465
  107OSM   H13T10989   0.721   1.594   9.332  2.1309  0.0630 -1.1760
  107OSM   C14S10990   0.649   1.427   9.199  0.4096  0.0694  0.8700
  107OSM   H14S10991   0.539   1.442   9.197  0.3978 -0.0340 -1.2669
  107OSM   H14T10992   0.673   1.319   9.191 -1.4215 -0.5919  3.1788
  107OSM   C15S10993   0.690   1.510   9.069  0.7544 -0.1892  0.5536
  107OSM   H15S10994   0.800   1.529   9.065  0.2726  2.8343 -1.2559
  107OSM   H15T10995   0.643   1.611   9.072 -0.0840 -0.5845  1.2073
  107OSM   C16S10996   0.645   1.456   8.932  0.0459 -0.4179  0.7346
  107OSM   H16S10997   0.535   1.440   8.925  0.1708 -1.2506  0.5676
  107OSM   H16T10998   0.690   1.356   8.917 -1.3588 -1.2456  1.7548
  107OSM   C17S10999   0.687   1.564   8.822 -0.1457  0.5383 -0.3578
  107OSM   H17S11000   0.793   1.594   8.832 -0.5407  1.7089  0.6621
  107OSM   H17T11001   0.628   1.658   8.835 -1.2179 -0.2863  0.9614
  107OSM   C18S11002   0.662   1.524   8.682 -0.1933  0.5693 -0.1076
  107OSM   H18S11003   0.712   1.426   8.666  0.0185  0.6177  0.2527
  107OSM   H18T11004   0.708   1.600   8.616  0.3690  0.0309 -0.3405
  107OSM   H18U11005   0.553   1.507   8.670 -0.5634  3.0761 -0.9812
  107OSM    C1F11006   1.444   1.147  10.249  0.5268  0.7022  0.0566
  107OSM     OF11007   1.449   1.032  10.290 -0.2746 -0.2064  0.2200
  107OSM    C2F11008   1.537   1.207  10.147 -0.2238  0.4798  0.1490
  107OSM    H2F11009   1.595   1.281  10.205  0.0952  1.1351 -0.9742
  107OSM    H2G11010   1.476   1.256  10.068 -1.5323 -2.0250 -0.5318
  107OSM    C3F11011   1.627   1.104  10.074 -0.3488 -0.0956  0.3672
  107OSM    H3F11012   1.567   1.014  10.046 -1.5118  1.3941 -2.3518
  107OSM    H3G11013   1.696   1.068  10.152 -1.0662  0.7842  1.4438
  107OSM    C4F11014   1.706   1.154   9.949  0.5345  0.1975  0.2733
  107OSM    H4F11015   1.756   1.063   9.911  0.0078 -0.0175  0.0841
  107OSM    H4G11016   1.789   1.213   9.994  2.0311 -1.4989 -0.1706
  107OSM    C5F11017   1.614   1.222   9.847 -0.4055  0.1074 -0.7481
  107OSM    H5F11018   1.568   1.315   9.887  0.8885  1.1898 -1.6873
  107OSM    H5G11019   1.531   1.149   9.843 -0.8513  0.5534  0.0728
  107OSM    C6F11020   1.653   1.233   9.697 -0.3815 -0.3136 -0.3199
  107OSM    H6F11021   1.564   1.214   9.633  0.3834 -0.8599 -1.2363
  107OSM    H6G11022   1.723   1.150   9.675  0.2803 -0.4808  2.1072
  107OSM    C7F11023   1.717   1.368   9.678  0.1491 -0.1816  0.0169
  107OSM    H7F11024   1.800   1.375   9.751  1.1261 -0.8219 -0.9916
  107OSM    H7G11025   1.648   1.453   9.694 -0.6422 -0.1313 -2.9913
  107OSM    C8F11026   1.776   1.391   9.535 -0.2709 -0.1562 -0.8373
  107OSM    H8F11027   1.855   1.319   9.504  0.6049  1.3741 -2.3113
  107OSM    H8G11028   1.836   1.483   9.550 -1.4050  0.3926  0.5548
  107OSM    C9F11029   1.681   1.413   9.422  0.3997  0.0119  0.9352
  107OSM    H9F11030   1.580   1.370   9.432  0.2266 -0.2804 -1.3920
  107OSM   C10F11031   1.704   1.472   9.303 -0.1557 -0.1202 -0.2921
  107OSM   H10F11032   1.622   1.476   9.230 -1.3208  0.9904  1.0179
  107OSM   C11F11033   1.831   1.536   9.257  0.3372 -0.3141 -0.1542
  107OSM   H11F11034   1.904   1.542   9.341  1.3705  1.8176 -1.1311
  107OSM   H11G11035   1.806   1.641   9.231 -1.2217 -0.6323 -0.0286
  107OSM   C12F11036   1.897   1.479   9.136 -0.2180  0.2910 -0.4999
  107OSM   H12F11037   1.940   1.387   9.181 -0.7839  0.4985  0.4945
  107OSM   H12G11038   1.979   1.552   9.116 -0.9101  1.1793 -0.1692
  107OSM   C13F11039   1.815   1.460   9.013  0.0246 -0.4810 -0.2000
  107OSM   H13F11040   1.753   1.548   8.987  1.6421  0.4298 -1.0902
  107OSM   H13G11041   1.728   1.393   9.033 -1.7949  1.8107  0.0615
  107OSM   C14F11042   1.902   1.421   8.892 -0.0184 -0.0292  0.3932
  107OSM   H14F11043   1.979   1.347   8.923 -0.8031 -2.0910 -2.1959
  107OSM   H14G11044   1.958   1.508   8.852  0.1614 -0.7089 -0.8753
  107OSM   C15F11045   1.832   1.357   8.773 -0.2570 -0.2916  0.5697
  107OSM   H15F11046   1.727   1.394   8.767 -0.5312 -0.7435  2.1344
  107OSM   H15G11047   1.814   1.248   8.785  0.0764 -0.3175  0.8358
  107OSM   C16F11048   1.913   1.358   8.638  0.5654 -0.3903  0.1507
  107OSM   H16F11049   2.017   1.325   8.658  0.7184  0.6871  1.2192
  107OSM   H16G11050   1.914   1.462   8.599  0.1052  0.0722  1.3202
  107OSM   C17F11051   1.848   1.270   8.535 -0.0522  0.4512  0.4069
  107OSM   H17F11052   1.745   1.299   8.503  0.1722 -0.0181 -0.8107
  107OSM   H17G11053   1.841   1.166   8.573 -1.0139 -0.1199 -1.2120
  107OSM   C18F11054   1.930   1.264   8.405 -0.5683  0.5141 -0.1232
  107OSM   H18F11055   1.904   1.349   8.338 -0.6896 -0.0710 -0.8355
  107OSM   H18G11056   1.919   1.166   8.352  4.8469  0.0600 -1.0108
  107OSM   H18H11057   2.039   1.268   8.425  0.1980  0.6915 -3.6738
  108OSM      N11058   6.595   5.966  11.054  1.4078 -0.1139 -0.3276
  108OSM    C1511059   6.492   5.850  11.075  1.1253 -0.7555 -0.8501
  108OSM   H15A11060   6.551   5.759  11.073  1.3737 -0.7025  1.6158
  108OSM   H15B11061   6.422   5.856  10.993  0.6192  1.7721 -0.3031
  108OSM   H15C11062   6.444   5.850  11.172 -0.1020 -0.9500 -1.4354
  108OSM    C1411063   6.670   5.983  11.181  0.2801  0.5172 -0.1266
  108OSM   H14A11064   6.753   6.047  11.156  0.3106 -0.2199 -2.1244
  108OSM   H14B11065   6.705   5.887  11.218  0.2440  0.8032  0.6744
  108OSM   H14C11066   6.605   6.035  11.249  1.4943  1.3818  0.3926
  108OSM    C1311067   6.680   5.932  10.931  0.3601 -0.5150 -0.4909
  108OSM   H13A11068   6.622   5.873  10.863 -1.2558 -2.2065  2.1930
  108OSM   H13B11069   6.760   5.868  10.966 -1.7199 -1.6084  2.6813
  108OSM   H13C11070   6.721   6.027  10.898 -1.5538  0.4046 -0.3229
  108OSM    C1211071   6.518   6.096  11.026  0.2331  0.4443 -0.8293
  108OSM   H12A11072   6.434   6.102  11.093 -0.3577 -0.7546 -1.4303
  108OSM   H12B11073   6.473   6.085  10.928 -1.3706 -2.7672  0.1227
  108OSM    C1111074   6.603   6.227  11.033 -0.0803 -0.2041  0.7787
  108OSM   H11A11075   6.644   6.234  11.136  1.1598 -1.0082  0.3726
  108OSM   H11B11076   6.527   6.308  11.025 -1.5668 -1.3938  2.2638
  108OSM      P11077   6.690   6.277  10.790 -0.2235  0.1579  0.6307
  108OSM    O1311078   6.663   6.421  10.802  0.0667  0.0649  0.4214
  108OSM    O1411079   6.808   6.236  10.704  0.4340  0.7628  1.1109
  108OSM    O1111080   6.560   6.202  10.745 -0.4468  0.3180  0.4764
  108OSM    O1211081   6.714   6.226  10.942 -0.2123 -0.0615 -0.0759
  108OSM    C1S11082   6.485   6.243  10.632  0.5410  0.4328 -0.9721
  108OSM    H1S11083   6.487   6.350  10.604 -1.7068  0.0544 -2.7890
  108OSM    H1T11084   6.380   6.227  10.666  0.1410  2.2352 -1.2828
  108OSM     NF11085   6.424   6.213  10.398 -0.0903 -0.3483 -0.6160
  108OSM    HNF11086   6.340   6.162  10.384  0.2850 -1.2953  0.3974
  108OSM    C2S11087   6.504   6.151  10.503  0.0358  0.3736  0.8348
  108OSM    H2S11088   6.610   6.165  10.474  0.9774 -1.6957  2.9891
  108OSM    C3S11089   6.478   6.005  10.529  0.1211  0.0152 -0.9895
  108OSM    H3S11090   6.370   5.995  10.555  0.1484  0.9314 -0.4703
  108OSM     O311091   6.562   5.958  10.641  0.0127  0.1362  0.2498
  108OSM    HO311092   6.594   6.045  10.667 -1.1468  0.7045 -0.1761
  108OSM    C4S11093   6.496   5.918  10.413 -0.0310 -0.4633 -0.0916
  108OSM    H4S11094   6.417   5.852  10.375  0.0232 -1.6472  1.7637
  108OSM    C5S11095   6.609   5.911  10.341 -0.5781  0.3751  0.0499
  108OSM    H5S11096   6.694   5.973  10.373  1.5991 -1.0081 -2.6034
  108OSM    C6S11097   6.637   5.818  10.220  0.0932  0.5075 -0.2931
  108OSM    H6S11098   6.603   5.714  10.232  2.0683 -0.2275 -0.6271
  108OSM    H6T11099   6.742   5.821  10.183 -0.0257  1.9063 -0.5801
  108OSM    C7S11100   6.564   5.862  10.095  0.2624  1.1214  0.2623
  108OSM    H7S11101   6.563   5.972  10.085  3.2226  1.0912 -1.4033
  108OSM    H7T11102   6.457   5.839  10.118  0.7603 -0.8895  0.7948
  108OSM    C8S11103   6.613   5.792   9.965 -0.5939  0.0911 -0.2090
  108OSM    H8S11104   6.615   5.682   9.986  2.6884  0.2564  0.8665
  108OSM    H8T11105   6.718   5.826   9.957 -0.5511  0.0816  0.2776
  108OSM    C9S11106   6.527   5.827   9.840  0.0623 -0.1579 -0.1553
  108OSM    H9S11107   6.541   5.936   9.823  0.3704 -0.0188  0.9287
  108OSM    H9T11108   6.427   5.826   9.888  0.5527  0.1872  0.9006
  108OSM   C10S11109   6.560   5.750   9.718  0.8024  0.4282 -0.3832
  108OSM   H10S11110   6.522   5.645   9.720 -0.5380  0.8616 -1.5680
  108OSM   H10T11111   6.670   5.745   9.703  0.8089  0.7047 -0.4355
  108OSM   C11S11112   6.499   5.811   9.586  0.7152  0.0202  0.2762
  108OSM   H11S11113   6.545   5.912   9.584 -1.4746  1.1350  1.4637
  108OSM   H11T11114   6.388   5.819   9.587  0.6628  2.2761 -3.6074
  108OSM   C12S11115   6.558   5.736   9.465 -0.0610 -0.2019  0.0195
  108OSM   H12S11116   6.518   5.634   9.483 -0.4652 -0.0559 -0.0378
  108OSM   H12T11117   6.668   5.738   9.456  0.4252  2.5735  3.9722
  108OSM   C13S11118   6.498   5.787   9.337  0.0281 -0.4168 -0.5546
  108OSM   H13S11119   6.542   5.889   9.330  2.7784 -1.2817  2.2607
  108OSM   H13T11120   6.387   5.796   9.341  0.0724 -0.0931 -0.0180
  108OSM   C14S11121   6.550   5.703   9.217  0.1299 -0.7343 -0.4290
  108OSM   H14S11122   6.496   5.608   9.194  1.6475 -1.4722 -1.0617
  108OSM   H14T11123   6.657   5.676   9.228 -0.1244 -1.1417  1.4776
  108OSM   C15S11124   6.544   5.778   9.077 -0.5913  0.4682 -0.7767
  108OSM   H15S11125   6.611   5.867   9.087 -1.7665  1.2577  0.3426
  108OSM   H15T11126   6.442   5.813   9.049 -1.3440 -1.1800 -0.2185
  108OSM   C16S11127   6.587   5.680   8.966 -0.1543 -0.2465 -0.0964
  108OSM   H16S11128   6.516   5.595   8.964  0.8944 -1.2989  3.0626
  108OSM   H16T11129   6.680   5.633   9.002  0.1028  0.6612  0.4643
  108OSM   C17S11130   6.604   5.743   8.829 -0.1307  0.0564 -0.0704
  108OSM   H17S11131   6.661   5.838   8.838 -0.6543  0.2645  1.2836
  108OSM   H17T11132   6.502   5.782   8.805  0.3027  1.2798 -0.0240
  108OSM   C18S11133   6.658   5.645   8.719 -0.3000  0.1015 -0.4567
  108OSM   H18S11134   6.661   5.687   8.616 -0.6902 -0.1639 -0.5798
  108OSM   H18T11135   6.596   5.553   8.711 -0.3425 -0.1997  2.3629
  108OSM   H18U11136   6.760   5.604   8.734 -0.5262 -0.2273  0.1977
  108OSM    C1F11137   6.448   6.335  10.351  0.2178 -0.1202 -0.6527
  108OSM     OF11138   6.552   6.395  10.377  0.5165 -0.1174  0.0917
  108OSM    C2F11139   6.339   6.405  10.283  0.4142  0.0071 -0.2508
  108OSM    H2F11140   6.278   6.463  10.356  1.6628  2.0713 -0.7738
  108OSM    H2G11141   6.277   6.322  10.243 -0.0635  1.1020 -1.8387
  108OSM    C3F11142   6.376   6.486  10.162  0.2158  0.5387 -0.9063
  108OSM    H3F11143   6.450   6.558  10.204  1.1027 -0.9945  0.2317
  108OSM    H3G11144   6.284   6.538  10.127 -0.8505  0.6902  1.8472
  108OSM    C4F11145   6.427   6.385  10.058 -0.7670  0.1205  0.3298
  108OSM    H4F11146   6.356   6.300  10.055  1.5881 -1.9866 -0.0260
  108OSM    H4G11147   6.524   6.348  10.099 -0.3487  2.0496  1.1933
  108OSM    C5F11148   6.431   6.456   9.917 -0.2997 -0.1470  0.0062
  108OSM    H5F11149   6.471   6.559   9.926 -1.6913  0.2493  2.5775
  108OSM    H5G11150   6.322   6.465   9.897 -0.5836 -1.7515  0.6316
  108OSM    C6F11151   6.495   6.365   9.808  0.1451 -0.2303  0.6788
  108OSM    H6F11152   6.446   6.266   9.805  0.9249 -0.6042 -0.4055
  108OSM    H6G11153   6.597   6.353   9.849  0.5424  0.0151 -0.2093
  108OSM    C7F11154   6.487   6.447   9.676  0.4386  0.1559 -0.2819
  108OSM    H7F11155   6.380   6.479   9.672  0.6670  0.9588 -0.2108
  108OSM    H7G11156   6.494   6.379   9.588  1.6032 -3.5573  2.4116
  108OSM    C8F11157   6.586   6.565   9.665 -0.0733  0.5163 -0.6749
  108OSM    H8F11158   6.582   6.630   9.755  1.8287  1.0656 -0.9402
  108OSM    H8G11159   6.549   6.626   9.580  0.2391  0.8354 -0.5830
  108OSM    C9F11160   6.728   6.506   9.652 -0.3980  0.7777 -0.0169
  108OSM    H9F11161   6.758   6.435   9.730  0.3899  0.6974 -0.3792
  108OSM   C10F11162   6.797   6.497   9.541 -0.6190  0.4959  0.4294
  108OSM   H10F11163   6.882   6.427   9.535  0.1001  1.4332 -0.6184
  108OSM   C11F11164   6.760   6.563   9.409  0.5566 -0.1339  0.5360
  108OSM   H11F11165   6.831   6.647   9.395 -1.3765  1.3078 -1.3590
  108OSM   H11G11166   6.663   6.619   9.406  0.8667  0.4655  1.3259
  108OSM   C12F11167   6.781   6.478   9.290 -0.0707  0.5194  0.1872
  108OSM   H12F11168   6.875   6.419   9.293  0.0141  0.5852 -0.9974
  108OSM   H12G11169   6.789   6.544   9.201  3.0159 -2.7548 -2.2497
  108OSM   C13F11170   6.670   6.375   9.268  0.0681  0.4752 -0.6106
  108OSM   H13F11171   6.570   6.426   9.268  0.9497  2.3245  0.7021
  108OSM   H13G11172   6.674   6.303   9.352  1.0132 -0.4380 -1.4108
  108OSM   C14F11173   6.694   6.292   9.133  0.3660  0.4200 -0.3728
  108OSM   H14F11174   6.782   6.227   9.155  0.0106 -0.5605 -1.7076
  108OSM   H14G11175   6.739   6.350   9.050  3.1483 -1.7601 -0.5726
  108OSM   C15F11176   6.574   6.204   9.098 -0.1367  0.4413  0.6945
  108OSM   H15F11177   6.487   6.274   9.090  0.4966  1.1631 -0.0708
  108OSM   H15G11178   6.543   6.110   9.148 -3.6094  0.7404 -0.5917
  108OSM   C16F11179   6.596   6.133   8.955  0.4701 -0.2824 -0.9210
  108OSM   H16F11180   6.504   6.071   8.947  0.8959 -1.1529  0.5799
  108OSM   H16G11181   6.690   6.074   8.962 -0.0323 -1.1097 -0.9580
  108OSM   C17F11182   6.596   6.223   8.835  0.2272  0.3524 -0.1806
  108OSM   H17F11183   6.611   6.155   8.749  0.0774 -0.7364  0.6299
  108OSM   H17G11184   6.688   6.286   8.840  0.3941  0.1301 -0.4153
  108OSM   C18F11185   6.476   6.324   8.815  0.3113  0.8077 -0.4690
  108OSM   H18F11186   6.476   6.396   8.900 -0.6353  1.1489 -0.7476
  108OSM   H18G11187   6.387   6.259   8.808 -0.9110  1.9790  2.3402
  108OSM   H18H11188   6.475   6.391   8.727  0.4502  0.1991 -0.9373
  109OSM      N11189   5.900   0.588  10.920  0.6666 -0.2993 -0.6189
  109OSM    C1511190   5.778   0.664  10.889  0.6128 -0.1338 -0.5192
  109OSM   H15A11191   5.729   0.635  10.798 -2.4144  0.2442  0.8418
  109OSM   H15B11192   5.808   0.767  10.872  0.9270  0.0661  1.0215
  109OSM   H15C11193   5.712   0.673  10.974  1.1741  0.2758 -0.1112
  109OSM    C1411194   6.000   0.631  10.827 -0.2290 -0.2638 -0.3664
  109OSM   H14A11195   5.976   0.613  10.723  1.1929  3.2624 -1.4235
  109OSM   H14B11196   6.090   0.575  10.845  0.4049 -0.1980 -2.9138
  109OSM   H14C11197   6.004   0.739  10.829  3.2344 -0.2757  1.6042
  109OSM    C1311198   5.952   0.632  11.056  0.1974  0.2708  0.2198
  109OSM   H13A11199   5.970   0.738  11.063 -0.7888  0.6119 -1.7406
  109OSM   H13B11200   6.039   0.575  11.083  0.9783  0.2919 -2.0370
  109OSM   H13C11201   5.874   0.607  11.127  1.1217  0.3095  1.2784
  109OSM    C1211202   5.890   0.440  10.913 -0.3791 -0.0015 -0.0997
  109OSM   H12A11203   5.809   0.412  10.978 -2.1356  0.5959 -1.9306
  109OSM   H12B11204   5.984   0.399  10.948 -0.7469 -0.3803  0.4470
  109OSM    C1111205   5.857   0.377  10.778 -0.4092  0.6604 -0.0666
  109OSM   H11A11206   5.775   0.437  10.735 -0.3888 -0.2555 -1.4634
  109OSM   H11B11207   5.821   0.274  10.803 -2.5379  1.0106 -1.4439
  109OSM      P11208   6.103   0.312  10.721 -0.3317  0.1628  0.2297
  109OSM    O1311209   6.185   0.398  10.804 -0.5019 -0.4257 -0.7735
  109OSM    O1411210   6.098   0.172  10.774 -0.3688 -0.5060  0.0737
  109OSM    O1111211   6.183   0.307  10.582 -0.3004 -0.4747  0.4059
  109OSM    O1211212   5.965   0.385  10.687 -0.4471 -0.5651  0.2849
  109OSM    C1S11213   6.117   0.288  10.456  0.1123 -0.5397 -0.1342
  109OSM    H1S11214   6.026   0.349  10.436  0.4456 -0.7531 -2.5195
  109OSM    H1T11215   6.077   0.184  10.455  0.2907 -0.6447  1.1468
  109OSM     NF11216   6.142   0.344  10.208 -0.6741 -0.1404  0.7199
  109OSM    HNF11217   6.161   0.269  10.146  2.0162  1.3680 -0.4361
  109OSM    C2S11218   6.216   0.326  10.335  0.6271  0.2984  0.2666
  109OSM    H2S11219   6.262   0.425  10.357 -0.3610  1.0896 -1.0330
  109OSM    C3S11220   6.339   0.224  10.326 -0.9247 -0.3195  0.2027
  109OSM    H3S11221   6.297   0.121  10.315 -2.8622  0.0676  3.0466
  109OSM     O311222   6.422   0.229  10.439 -0.3298 -0.1560  0.2949
  109OSM    HO311223   6.357   0.254  10.505 -0.9487  1.5715 -0.8992
  109OSM    C4S11224   6.435   0.264  10.211  0.4510  0.6278  0.2289
  109OSM    H4S11225   6.504   0.347  10.233  0.9059  0.4778 -0.6064
  109OSM    C5S11226   6.459   0.192  10.100 -0.2361  1.2507  0.0557
  109OSM    H5S11227   6.413   0.093  10.087 -0.6755  1.3598  0.7574
  109OSM    C6S11228   6.559   0.219   9.990 -0.4835  0.3467 -0.4640
  109OSM    H6S11229   6.652   0.168  10.022 -0.4375  1.3019  0.9757
  109OSM    H6T11230   6.585   0.327   9.991  2.9909 -0.3743  1.1384
  109OSM    C7S11231   6.504   0.172   9.851  0.4072 -1.3037 -0.4417
  109OSM    H7S11232   6.414   0.234   9.830  1.3177  0.1709 -0.1626
  109OSM    H7T11233   6.478   0.066   9.868  0.6794 -1.4101 -0.6960
  109OSM    C8S11234   6.595   0.203   9.730 -0.2226  0.3566 -0.0218
  109OSM    H8S11235   6.698   0.163   9.742 -0.4960 -0.0773  0.9627
  109OSM    H8T11236   6.604   0.314   9.722 -2.1601  0.5419 -0.1679
  109OSM    C9S11237   6.549   0.162   9.592  0.8263 -0.9438 -0.2225
  109OSM    H9S11238   6.452   0.207   9.563 -0.1253 -1.0107  2.5613
  109OSM    H9T11239   6.525   0.054   9.592  0.1490 -0.8623 -2.8347
  109OSM   C10S11240   6.636   0.220   9.483 -0.0730  0.8527 -0.3192
  109OSM   H10S11241   6.740   0.221   9.523  0.2264 -1.1186 -0.9491
  109OSM   H10T11242   6.609   0.324   9.455 -3.1889  0.1800 -0.1828
  109OSM   C11S11243   6.615   0.149   9.347 -1.1246  0.3155  0.0996
  109OSM   H11S11244   6.518   0.176   9.300 -1.6297  1.6458  1.8120
  109OSM   H11T11245   6.607   0.040   9.364  0.1415  0.6099  3.3282
  109OSM   C12S11246   6.738   0.180   9.255 -0.0035  0.6955 -0.0997
  109OSM   H12S11247   6.825   0.152   9.318 -0.5957 -0.4813  0.2057
  109OSM   H12T11248   6.736   0.289   9.232 -0.3777  0.4350 -1.4263
  109OSM   C13S11249   6.743   0.098   9.128 -0.1546  0.4307 -0.3890
  109OSM   H13S11250   6.765  -0.008   9.155  0.4752  0.8732  0.9331
  109OSM   H13T11251   6.827   0.134   9.065 -1.4341  2.3759 -1.0525
  109OSM   C14S11252   6.609   0.097   9.056 -0.3129 -0.6675 -0.3084
  109OSM   H14S11253   6.571   0.198   9.083  1.5988 -0.1540  0.5971
  109OSM   H14T11254   6.529   0.030   9.094 -1.1453  0.5987  0.2700
  109OSM   C15S11255   6.623   0.082   8.907 -0.4987  0.7227 -0.0339
  109OSM   H15S11256   6.687   0.164   8.870 -3.3917  4.3686  2.3652
  109OSM   H15T11257   6.526   0.093   8.853 -1.2556 -2.3171  0.4594
  109OSM   C16S11258   6.676  -0.055   8.867  0.0176  0.3330  0.6443
  109OSM   H16S11259   6.610  -0.122   8.927 -0.4286  0.1926  0.0108
  109OSM   H16T11260   6.778  -0.062   8.910 -0.4120 -1.7144  1.4458
  109OSM   C17S11261   6.651  -0.087   8.719  0.1001  0.1424 -0.1941
  109OSM   H17S11262   6.543  -0.112   8.712  0.6083 -1.9891 -1.4693
  109OSM   H17T11263   6.716  -0.172   8.690 -0.0355 -0.3424  0.9098
  109OSM   C18S11264   6.680   0.024   8.619  0.2475  0.0633 -0.6870
  109OSM   H18S11265   6.623   0.117   8.638 -0.1363 -0.3442  0.2053
  109OSM   H18T11266   6.644  -0.011   8.520 -1.2982 -1.6439  0.4009
  109OSM   H18U11267   6.790   0.039   8.619  0.3078 -0.0353  1.1631
  109OSM    C1F11268   6.053   0.438  10.178  0.6718  0.0534  0.9419
  109OSM     OF11269   6.009   0.525  10.256 -0.2254  0.1415 -0.1373
  109OSM    C2F11270   6.001   0.441  10.036  0.5515  0.5041 -0.1929
  109OSM    H2F11271   5.941   0.348  10.026  3.7691 -1.8938  1.0159
  109OSM    H2G11272   6.086   0.436   9.965 -0.1327  0.6289 -1.0504
  109OSM    C3F11273   5.917   0.569  10.019 -0.5105 -0.2222  0.2153
  109OSM    H3F11274   5.952   0.671  10.043 -0.6282  0.7465 -3.1904
  109OSM    H3G11275   5.820   0.556  10.071 -1.1329 -1.6563 -1.2190
  109OSM    C4F11276   5.875   0.582   9.867  0.3842  0.2486  0.1418
  109OSM    H4F11277   5.780   0.640   9.868 -0.9546 -1.7524  3.0621
  109OSM    H4G11278   5.846   0.482   9.828  0.5453 -0.2712  1.3128
  109OSM    C5F11279   5.983   0.632   9.768 -1.0257 -0.0963  0.5954
  109OSM    H5F11280   6.070   0.564   9.777  0.1868  1.5012  1.5111
  109OSM    H5G11281   6.026   0.731   9.796 -0.4505 -0.5383  1.3111
  109OSM    C6F11282   5.932   0.638   9.616 -0.6883 -0.0858 -0.0883
  109OSM    H6F11283   5.844   0.703   9.600 -1.7869 -2.1950 -3.9332
  109OSM    H6G11284   5.899   0.534   9.596  0.5004  0.0799 -3.7107
  109OSM    C7F11285   6.040   0.673   9.515  0.1773 -0.2813 -0.1206
  109OSM    H7F11286   6.123   0.599   9.519  1.2658  0.9571  1.3354
  109OSM    H7G11287   6.080   0.775   9.532  2.0482 -0.9691 -0.1816
  109OSM    C8F11288   6.006   0.657   9.364 -0.3641 -1.0752  0.2434
  109OSM    H8F11289   6.091   0.689   9.301  0.4600 -1.1358  1.3026
  109OSM    H8G11290   5.922   0.728   9.348  2.1845  1.9665 -0.7077
  109OSM    C9F11291   5.977   0.514   9.353 -0.1620 -0.1530  1.1012
  109OSM    H9F11292   6.037   0.445   9.414  2.3875  0.4337 -0.5521
  109OSM   C10F11293   5.891   0.459   9.268  0.0437  0.3870 -0.2576
  109OSM   H10F11294   5.883   0.350   9.253 -0.8288 -0.0805  2.8293
  109OSM   C11F11295   5.815   0.536   9.165 -0.0704 -0.1258 -0.3375
  109OSM   H11F11296   5.853   0.641   9.158  0.4544 -0.3321 -0.6480
  109OSM   H11G11297   5.706   0.544   9.186 -0.4573  2.0287 -2.6146
  109OSM   C12F11298   5.839   0.486   9.021  0.1940  0.0616  0.2784
  109OSM   H12F11299   5.779   0.553   8.955 -0.6648 -0.2683  0.7098
  109OSM   H12G11300   5.799   0.382   9.021  0.2772 -0.0990 -3.1871
  109OSM   C13F11301   5.988   0.495   8.979 -0.0462  0.4066  0.1786
  109OSM   H13F11302   6.044   0.416   9.032  2.0473  0.4546 -1.8099
  109OSM   H13G11303   6.034   0.592   9.006  0.3837  0.4928 -0.8104
  109OSM   C14F11304   6.012   0.470   8.828 -0.0922 -0.9699  0.1144
  109OSM   H14F11305   6.114   0.511   8.812 -0.1298  0.2247  2.4274
  109OSM   H14G11306   5.955   0.545   8.769  1.1168 -0.0799  0.0348
  109OSM   C15F11307   5.993   0.330   8.788  0.0625 -0.3032 -0.6342
  109OSM   H15F11308   5.891   0.292   8.810  0.0664 -0.0495 -0.1741
  109OSM   H15G11309   6.075   0.274   8.838  0.6112  1.4004  0.4364
  109OSM   C16F11310   6.003   0.306   8.636 -0.5206  0.1916 -0.1539
  109OSM   H16F11311   5.909   0.344   8.592 -0.7656  1.8090  1.6521
  109OSM   H16G11312   6.004   0.196   8.616 -0.6645  0.0558  0.5600
  109OSM   C17F11313   6.126   0.361   8.552 -0.2350 -0.2220 -0.2894
  109OSM   H17F11314   6.138   0.462   8.597  1.4474 -0.2975 -0.5038
  109OSM   H17G11315   6.111   0.374   8.442 -0.1644  1.3196 -0.1402
  109OSM   C18F11316   6.248   0.276   8.565 -0.0595  0.9830 -0.1045
  109OSM   H18F11317   6.233   0.177   8.517 -2.4140  0.8879  0.7338
  109OSM   H18G11318   6.272   0.266   8.673 -1.0643 -1.6668 -0.0599
  109OSM   H18H11319   6.329   0.328   8.508  0.6186 -0.5417 -0.5718
  110OSM      N11320   1.035   6.335  10.821 -0.3607 -0.2496 -0.0527
  110OSM    C1511321   1.159   6.399  10.770 -0.0695 -0.6054  0.6033
  110OSM   H15A11322   1.135   6.497  10.733 -0.6554 -1.8077 -2.4578
  110OSM   H15B11323   1.194   6.333  10.693  1.1756 -1.2132  1.6430
  110OSM   H15C11324   1.232   6.395  10.850 -3.2550 -1.5350  3.7639
  110OSM    C1411325   1.074   6.198  10.869 -0.2863  0.0549 -0.0704
  110OSM   H14A11326   1.148   6.169  10.795  0.0944 -0.1311  0.3729
  110OSM   H14B11327   0.997   6.122  10.862  0.7900 -1.0685 -0.2154
  110OSM   H14C11328   1.120   6.193  10.967  0.4496  0.1889 -0.3995
  110OSM    C1311329   0.987   6.415  10.934 -0.0596  0.3302 -0.0160
  110OSM   H13A11330   0.900   6.375  10.984 -0.2623  1.2552  0.3946
  110OSM   H13B11331   0.959   6.514  10.901 -0.9628  0.1280  0.1241
  110OSM   H13C11332   1.067   6.427  11.006  0.2648 -0.7313 -0.1851
  110OSM    C1211333   0.930   6.327  10.710  0.1958 -0.8454  0.0268
  110OSM   H12A11334   0.872   6.416  10.691  3.8968  1.4087 -1.6784
  110OSM   H12B11335   0.860   6.249  10.739 -0.4238 -0.8783 -1.4689
  110OSM    C1111336   0.970   6.277  10.566  0.3356 -0.4679  0.6759
  110OSM   H11A11337   1.042   6.349  10.523 -0.2948  0.8247  1.7070
  110OSM   H11B11338   0.872   6.274  10.513  1.2101  0.4575 -1.0549
  110OSM      P11339   1.114   6.086  10.464  0.1517  0.0690  0.1878
  110OSM    O1311340   1.251   6.112  10.510  0.1173  0.0934 -0.6462
  110OSM    O1411341   1.076   5.946  10.443 -0.1495 -0.3573  0.3503
  110OSM    O1111342   1.090   6.176  10.337  0.0504  0.2935  0.1073
  110OSM    O1211343   1.017   6.144  10.576  0.7860  0.0486 -0.1213
  110OSM    C1S11344   1.155   6.150  10.217 -0.8831 -0.8222  1.0667
  110OSM    H1S11345   1.174   6.043  10.195 -0.7486 -0.4966 -0.5463
  110OSM    H1T11346   1.251   6.206  10.225  0.0497 -2.3091  0.5871
  110OSM     NF11347   1.136   6.180   9.969  0.5426 -0.5837 -0.3121
  110OSM    HNF11348   1.222   6.225   9.948 -0.3331  1.7166  0.6902
  110OSM    C2S11349   1.075   6.213  10.096  0.3722  0.5576  0.0140
  110OSM    H2S11350   0.979   6.159  10.105  0.2335  0.9054  0.6773
  110OSM    C3S11351   1.049   6.371  10.119  0.1575  0.2632  0.1406
  110OSM    H3S11352   1.146   6.424  10.108  0.0600  0.4772  0.3210
  110OSM     O311353   1.003   6.410  10.246 -0.8503 -0.0612  0.0330
  110OSM    HO311354   1.020   6.333  10.300  2.0572 -0.3629 -1.1433
  110OSM    C4S11355   0.954   6.423  10.008  0.1921  0.2041 -0.0632
  110OSM    H4S11356   0.867   6.356  10.002  1.9525 -2.2149 -0.1610
  110OSM    C5S11357   0.970   6.534   9.925 -0.0070  0.0659 -0.1297
  110OSM    H5S11358   1.048   6.606   9.952  0.7758 -0.4893 -0.8316
  110OSM    C6S11359   0.866   6.579   9.829 -0.2395 -0.0677  0.4913
  110OSM    H6S11360   0.858   6.689   9.818  0.0881 -0.0581  0.3465
  110OSM    H6T11361   0.770   6.553   9.879 -0.5151  1.0809  0.6025
  110OSM    C7S11362   0.867   6.504   9.690 -0.5279 -0.1091 -0.6111
  110OSM    H7S11363   0.845   6.398   9.712  0.4906 -0.2580 -0.2385
  110OSM    H7T11364   0.969   6.499   9.644 -0.7589 -1.7721 -0.9987
  110OSM    C8S11365   0.781   6.566   9.582 -0.4903  0.1088  0.1863
  110OSM    H8S11366   0.804   6.672   9.558  0.0597 -0.1007 -0.2237
  110OSM    H8T11367   0.679   6.571   9.624 -0.5920 -1.0567  0.1239
  110OSM    C9S11368   0.787   6.475   9.458  0.4253 -0.1105 -0.2397
  110OSM    H9S11369   0.776   6.370   9.493  1.1270  0.2292  1.0766
  110OSM    H9T11370   0.886   6.490   9.410 -0.2268  2.4325 -0.9444
  110OSM   C10S11371   0.675   6.519   9.361  0.2200  0.1745 -0.1634
  110OSM   H10S11372   0.673   6.629   9.375  1.1011 -0.0135  1.7205
  110OSM   H10T11373   0.582   6.474   9.402  0.8695 -1.1714 -0.1207
  110OSM   C11S11374   0.704   6.466   9.226 -0.3419 -0.1423 -0.0110
  110OSM   H11S11375   0.801   6.497   9.183 -0.6712 -0.8091 -1.2911
  110OSM   H11T11376   0.640   6.514   9.148 -0.7830  0.3544  0.6433
  110OSM   C12S11377   0.692   6.319   9.205 -0.1464  0.6684 -0.2456
  110OSM   H12S11378   0.594   6.271   9.228  0.5152 -0.9974 -0.7036
  110OSM   H12T11379   0.766   6.269   9.272 -2.7036 -2.8028  0.2776
  110OSM   C13S11380   0.734   6.275   9.062  0.3151  0.4701  0.4529
  110OSM   H13S11381   0.753   6.167   9.051 -0.7654  0.4475 -1.8770
  110OSM   H13T11382   0.823   6.331   9.026  0.3098  1.2733  1.6097
  110OSM   C14S11383   0.610   6.287   8.965  0.3125  0.2868  0.4860
  110OSM   H14S11384   0.563   6.388   8.970 -1.3225 -0.4712  1.2904
  110OSM   H14T11385   0.527   6.222   9.000 -0.5959  0.6856 -0.8281
  110OSM   C15S11386   0.658   6.248   8.818  0.3873  0.0273 -0.1659
  110OSM   H15S11387   0.763   6.278   8.797  0.7314 -0.6146  0.6207
  110OSM   H15T11388   0.593   6.313   8.756  0.1487  0.2758  0.3419
  110OSM   C16S11389   0.635   6.101   8.765 -0.6814 -0.3286 -0.8671
  110OSM   H16S11390   0.532   6.074   8.795 -0.6358  0.4782  0.0607
  110OSM   H16T11391   0.715   6.048   8.821 -0.6102  2.6270  2.1809
  110OSM   C17S11392   0.648   6.070   8.615  0.2517 -0.0767  0.0293
  110OSM   H17S11393   0.746   6.115   8.587  1.0593 -0.3089  2.3050
  110OSM   H17T11394   0.565   6.119   8.560  2.0972  0.6218 -2.3460
  110OSM   C18S11395   0.650   5.924   8.578  0.0996  0.0806 -0.3415
  110OSM   H18S11396   0.670   5.906   8.471  2.2132 -1.7656  0.2871
  110OSM   H18T11397   0.550   5.888   8.612  0.2419 -0.9482 -1.0029
  110OSM   H18U11398   0.731   5.866   8.628  0.6893  0.3628 -0.9568
  110OSM    C1F11399   1.107   6.067   9.908 -0.2810 -0.0661  0.6651
  110OSM     OF11400   1.006   6.006   9.934  0.3000  0.1426  0.7073
  110OSM    C2F11401   1.211   6.018   9.800  0.3559  0.7392 -0.0089
  110OSM    H2F11402   1.283   5.954   9.855 -1.0686 -2.6755 -1.8449
  110OSM    H2G11403   1.253   6.112   9.757  0.6796  1.0807  1.0382
  110OSM    C3F11404   1.127   5.941   9.691 -0.3201 -0.7443 -0.0536
  110OSM    H3F11405   1.053   5.870   9.734 -0.6363 -2.6182 -3.3476
  110OSM    H3G11406   1.191   5.876   9.628 -3.1909 -1.5037 -2.4348
  110OSM    C4F11407   1.057   6.025   9.584  0.1453  0.3947  0.0113
  110OSM    H4F11408   0.970   6.076   9.630 -0.9346 -0.4015 -1.0872
  110OSM    H4G11409   1.012   5.961   9.505 -0.0471 -1.1398  1.3207
  110OSM    C5F11410   1.143   6.135   9.529  0.0481 -0.5926 -0.2676
  110OSM    H5F11411   1.228   6.081   9.482 -1.7915 -1.7678 -2.4271
  110OSM    H5G11412   1.172   6.200   9.615  2.6958 -2.1646  0.1446
  110OSM    C6F11413   1.065   6.208   9.412 -0.6567  0.3667 -0.0268
  110OSM    H6F11414   0.982   6.269   9.453  0.0042  0.7508  0.7771
  110OSM    H6G11415   1.014   6.129   9.353 -0.9933 -0.1977  0.9930
  110OSM    C7F11416   1.167   6.275   9.321 -0.6681 -0.4742  0.0197
  110OSM    H7F11417   1.233   6.194   9.282  0.4888  0.8509 -0.8877
  110OSM    H7G11418   1.223   6.350   9.381 -0.3772 -1.2115  0.6927
  110OSM    C8F11419   1.117   6.335   9.188 -0.1794 -0.1965 -0.9113
  110OSM    H8F11420   1.206   6.390   9.151  1.6288 -1.0077  1.9638
  110OSM    H8G11421   1.039   6.414   9.200  2.1522  2.0077  0.6748
  110OSM    C9F11422   1.077   6.233   9.080  0.2940  0.1033  0.5148
  110OSM    H9F11423   0.977   6.191   9.099  0.3625  0.2937  1.3330
  110OSM   C10F11424   1.137   6.185   8.978 -0.0299 -0.2058  0.2933
  110OSM   H10F11425   1.091   6.102   8.924  0.3663 -0.7533  0.7880
  110OSM   C11F11426   1.278   6.227   8.936  0.6056 -0.0204 -0.3972
  110OSM   H11F11427   1.330   6.137   8.897 -0.0474  0.1860 -1.7993
  110OSM   H11G11428   1.327   6.281   9.020 -0.2064  0.3185 -0.1284
  110OSM   C12F11429   1.267   6.333   8.822  0.4490  0.0518 -0.4541
  110OSM   H12F11430   1.222   6.424   8.868 -0.0429 -0.5003  0.1859
  110OSM   H12G11431   1.203   6.293   8.741  3.3477  0.0099 -2.8651
  110OSM   C13F11432   1.397   6.373   8.750  0.5972  0.1894  0.0338
  110OSM   H13F11433   1.455   6.412   8.836 -0.6114  2.7071 -0.1910
  110OSM   H13G11434   1.384   6.459   8.681 -0.0019 -1.4397 -1.9844
  110OSM   C14F11435   1.481   6.260   8.672  0.5074 -0.6781 -0.3905
  110OSM   H14F11436   1.404   6.222   8.601  0.6845  0.3570 -1.1689
  110OSM   H14G11437   1.519   6.178   8.735  1.4959 -1.4852 -1.9653
  110OSM   C15F11438   1.602   6.311   8.591  0.1455 -0.8282  0.0202
  110OSM   H15F11439   1.584   6.413   8.550  3.3246  0.4948  1.5743
  110OSM   H15G11440   1.622   6.240   8.508  1.9615 -2.9593  2.1499
  110OSM   C16F11441   1.730   6.346   8.671 -0.2970  0.4855  0.2895
  110OSM   H16F11442   1.778   6.251   8.702  0.3980  0.5748 -0.4918
  110OSM   H16G11443   1.719   6.412   8.760 -0.0807  0.7500  0.1204
  110OSM   C17F11444   1.826   6.417   8.578 -0.0564  0.2593  0.5624
  110OSM   H17F11445   1.804   6.525   8.587 -1.8230 -0.0469  0.3567
  110OSM   H17G11446   1.814   6.390   8.471 -2.2263 -0.8763  1.0275
  110OSM   C18F11447   1.970   6.387   8.623 -0.2727  0.0099  0.6569
  110OSM   H18F11448   1.996   6.430   8.722 -0.2965 -1.2383  1.2185
  110OSM   H18G11449   2.036   6.424   8.542 -1.0645  1.3357  0.5940
  110OSM   H18H11450   1.980   6.276   8.629  0.8344  0.0733  0.1808
  111OSM      N11451   6.684   3.109  11.171 -0.3314 -0.4089 -0.3984
  111OSM    C1511452   6.813   3.042  11.166  0.0650 -0.0579 -0.0889
  111OSM   H15A11453   6.884   3.094  11.229  4.2569 -0.8222 -3.6413
  111OSM   H15B11454   6.857   3.045  11.067  2.2153  1.1058  0.8257
  111OSM   H15C11455   6.802   2.936  11.184  1.0864 -0.3974 -1.2530
  111OSM    C1411456   6.595   3.009  11.106 -0.2411  0.1279  0.1895
  111OSM   H14A11457   6.559   2.930  11.171 -0.2583  1.4055  1.7815
  111OSM   H14B11458   6.643   2.971  11.018  2.3539  0.3245  1.4402
  111OSM   H14C11459   6.505   3.063  11.081 -0.0290  1.1739  1.5670
  111OSM    C1311460   6.633   3.118  11.312  0.3783 -0.4599 -0.1764
  111OSM   H13A11461   6.703   3.159  11.383  0.7403 -1.7938  0.2806
  111OSM   H13B11462   6.605   3.022  11.354  0.4987 -0.2662  0.3563
  111OSM   H13C11463   6.543   3.177  11.317 -0.3094 -1.3940 -1.1695
  111OSM    C1211464   6.692   3.237  11.092 -0.1655  0.2053 -0.8328
  111OSM   H12A11465   6.590   3.271  11.082 -0.2262  1.1841  2.1323
  111OSM   H12B11466   6.736   3.209  10.997 -0.4478 -2.5165 -0.2300
  111OSM    C1111467   6.755   3.363  11.153 -0.2845  0.1055 -1.0152
  111OSM   H11A11468   6.690   3.387  11.239 -1.5864 -0.6394 -1.7634
  111OSM   H11B11469   6.752   3.441  11.074  0.1092 -0.3228 -1.4636
  111OSM      P11470   7.013   3.351  11.123 -0.2470 -0.1913  0.1436
  111OSM    O1311471   7.029   3.497  11.094 -0.0172  0.2476 -0.3882
  111OSM    O1411472   7.127   3.274  11.178  0.3513 -0.0005  0.3401
  111OSM    O1111473   6.964   3.279  10.991  0.1797 -0.1171  0.9377
  111OSM    O1211474   6.888   3.329  11.216  0.1496  0.0179  0.8058
  111OSM    C1S11475   7.051   3.250  10.891  0.7600  0.5300  0.4710
  111OSM    H1S11476   7.092   3.148  10.906 -0.3983 -0.0812 -0.3671
  111OSM    H1T11477   7.136   3.320  10.878  0.0326  1.4880  0.7373
  111OSM     NF11478   7.077   3.238  10.642  0.7438  0.1490  0.3246
  111OSM    HNF11479   7.081   3.320  10.585 -0.6053  1.1602  1.6163
  111OSM    C2S11480   6.987   3.259  10.751 -0.5831  0.1111  0.5552
  111OSM    H2S11481   6.919   3.171  10.741  0.5977 -0.9843  1.7222
  111OSM    C3S11482   6.903   3.387  10.743  0.1706 -0.1191 -0.7121
  111OSM    H3S11483   6.973   3.473  10.752  1.1938 -1.1367  2.2733
  111OSM     O311484   6.804   3.403  10.849 -0.1565  0.0746  0.7247
  111OSM    HO311485   6.842   3.358  10.925  1.0765  0.4127  0.3296
  111OSM    C4S11486   6.842   3.408  10.605 -0.0888  0.0717  0.0044
  111OSM    H4S11487   6.909   3.462  10.535  0.9000 -0.3266  0.6196
  111OSM    C5S11488   6.725   3.378  10.560  0.4236  0.3712  0.2556
  111OSM    H5S11489   6.658   3.331  10.634  0.5042 -0.8098 -0.3972
  111OSM    C6S11490   6.668   3.398  10.419  0.6861  0.6571 -0.1812
  111OSM    H6S11491   6.613   3.493  10.401  0.9032  0.8424  0.1204
  111OSM    H6T11492   6.592   3.321  10.395 -0.1062  0.8615  1.5601
  111OSM    C7S11493   6.783   3.386  10.316 -0.5300  0.0186 -0.0075
  111OSM    H7S11494   6.831   3.288  10.341  1.3167  1.1164  0.9873
  111OSM    H7T11495   6.868   3.455  10.334  0.6867 -1.0274 -1.4474
  111OSM    C8S11496   6.736   3.391  10.167 -0.6703  0.1725  0.8758
  111OSM    H8S11497   6.651   3.323  10.143  0.5887 -0.9444 -0.5637
  111OSM    H8T11498   6.824   3.371  10.103  0.1358  2.5807  1.1217
  111OSM    C9S11499   6.683   3.533  10.131  0.1444 -0.2193  0.7039
  111OSM    H9S11500   6.755   3.608  10.170  1.5070 -0.5482 -1.0693
  111OSM    H9T11501   6.588   3.560  10.183  2.1481  3.6923  2.7738
  111OSM   C10S11502   6.669   3.563   9.980  0.2059 -0.1387  0.3435
  111OSM   H10S11503   6.577   3.517   9.938  0.1296  0.5828 -0.2898
  111OSM   H10T11504   6.758   3.527   9.925 -0.5961 -0.2921 -0.9064
  111OSM   C11S11505   6.655   3.710   9.952  0.4823  0.1309 -0.1018
  111OSM   H11S11506   6.753   3.750   9.920  0.7655 -0.9732 -0.6375
  111OSM   H11T11507   6.621   3.774  10.036  1.3442  1.7419 -0.9458
  111OSM   C12S11508   6.543   3.749   9.846 -0.6079 -0.3919  0.0655
  111OSM   H12S11509   6.532   3.856   9.875  0.8107 -1.0959  3.7203
  111OSM   H12T11510   6.446   3.700   9.871 -0.3051 -1.2072 -0.3279
  111OSM   C13S11511   6.594   3.717   9.710  0.7873 -0.1980  0.1312
  111OSM   H13S11512   6.644   3.618   9.703 -0.2279 -0.6890 -0.3782
  111OSM   H13T11513   6.675   3.790   9.693  1.2128 -0.5564  0.5920
  111OSM   C14S11514   6.485   3.723   9.600  0.3970  0.4724 -0.0800
  111OSM   H14S11515   6.426   3.817   9.608 -0.9545 -0.0075 -3.0232
  111OSM   H14T11516   6.425   3.635   9.631  4.1186 -1.9945  0.8072
  111OSM   C15S11517   6.556   3.710   9.467  0.6524 -0.4346  0.0351
  111OSM   H15S11518   6.644   3.778   9.465  0.0444  0.3340 -1.1535
  111OSM   H15T11519   6.488   3.742   9.386  1.4731 -1.8782 -1.2758
  111OSM   C16S11520   6.607   3.568   9.443  0.0233  0.3048  0.3005
  111OSM   H16S11521   6.525   3.494   9.459  1.1682 -0.4802  3.3162
  111OSM   H16T11522   6.690   3.543   9.512  1.4453  1.0955 -1.0536
  111OSM   C17S11523   6.648   3.556   9.296  0.0021  0.1938 -0.2567
  111OSM   H17S11524   6.740   3.493   9.298 -0.2284 -0.1272  0.9144
  111OSM   H17T11525   6.661   3.657   9.252 -2.3443  0.1165 -1.2410
  111OSM   C18S11526   6.551   3.488   9.207  0.5291  0.3450  0.0916
  111OSM   H18S11527   6.485   3.567   9.164  0.5531  1.7142  2.4169
  111OSM   H18T11528   6.493   3.407   9.257  0.3252 -1.1991 -2.4912
  111OSM   H18U11529   6.603   3.447   9.118 -0.7571  2.5257 -1.7672
  111OSM    C1F11530   7.157   3.140  10.605  1.0046  0.2412  0.2720
  111OSM     OF11531   7.137   3.029  10.648 -0.4914  0.3687 -0.2867
  111OSM    C2F11532   7.279   3.179  10.519  0.5437 -0.6225 -0.3410
  111OSM    H2F11533   7.364   3.180  10.590  1.0352 -0.9642 -0.9209
  111OSM    H2G11534   7.268   3.283  10.480  1.5922 -0.6463 -0.7292
  111OSM    C3F11535   7.322   3.085  10.405 -0.4352  0.1423 -0.1496
  111OSM    H3F11536   7.346   2.984  10.445 -0.7746  0.0647 -0.1331
  111OSM    H3G11537   7.415   3.125  10.360 -0.6187  0.0525 -0.6070
  111OSM    C4F11538   7.222   3.084  10.287  0.1049 -0.3528 -0.2226
  111OSM    H4F11539   7.119   3.080  10.328  0.6638  1.2184  1.4586
  111OSM    H4G11540   7.230   2.987  10.233 -2.3665 -0.9512  0.3799
  111OSM    C5F11541   7.240   3.213  10.211 -0.3972  0.1181  0.0287
  111OSM    H5F11542   7.342   3.235  10.170  0.1605  0.2404  1.4197
  111OSM    H5G11543   7.216   3.299  10.277  0.6315  0.1883  0.3367
  111OSM    C6F11544   7.151   3.232  10.085  0.4068 -0.2151  0.1828
  111OSM    H6F11545   7.147   3.336  10.047 -1.1018 -1.5375 -3.8396
  111OSM    H6G11546   7.048   3.223  10.125 -0.6357  0.2592 -2.2017
  111OSM    C7F11547   7.163   3.120   9.983  0.1729 -0.0218 -0.2541
  111OSM    H7F11548   7.155   3.021  10.033 -0.7748  0.5689  0.8103
  111OSM    H7G11549   7.262   3.118   9.933  1.8724  0.6216  2.8094
  111OSM    C8F11550   7.052   3.133   9.876  0.2634  1.2320 -0.5084
  111OSM    H8F11551   7.088   3.061   9.800  1.4398  0.1627  1.0021
  111OSM    H8G11552   7.040   3.237   9.839 -1.0421  0.6943 -1.7085
  111OSM    C9F11553   6.919   3.086   9.941  0.0469  0.1099  0.1558
  111OSM    H9F11554   6.930   3.037  10.039  2.7874  0.6818  0.2233
  111OSM   C10F11555   6.795   3.118   9.896  0.5513  0.2502  0.1391
  111OSM   H10F11556   6.713   3.068   9.949 -1.1949  2.5380 -0.2740
  111OSM   C11F11557   6.768   3.194   9.764  0.2176 -0.0854  0.3376
  111OSM   H11F11558   6.849   3.261   9.728 -1.3558  1.7537  0.0165
  111OSM   H11G11559   6.679   3.257   9.785  1.2057  1.4638  0.0404
  111OSM   C12F11560   6.729   3.094   9.658 -0.4072 -0.4756  0.7774
  111OSM   H12F11561   6.626   3.056   9.672 -1.0182  0.5474 -0.6265
  111OSM   H12G11562   6.803   3.013   9.650 -1.9376 -1.7496 -2.4166
  111OSM   C13F11563   6.726   3.160   9.513 -0.1275 -0.5448  0.1375
  111OSM   H13F11564   6.828   3.195   9.487  0.0237 -2.4038 -2.0622
  111OSM   H13G11565   6.650   3.240   9.498 -0.0630 -0.4572  0.2764
  111OSM   C14F11566   6.693   3.058   9.402  0.4632 -0.1463 -0.5331
  111OSM   H14F11567   6.587   3.027   9.417  0.7960 -0.0982  2.4128
  111OSM   H14G11568   6.767   2.975   9.406  1.7713  0.9041 -1.7413
  111OSM   C15F11569   6.685   3.103   9.257 -0.1024 -0.3518 -0.1426
  111OSM   H15F11570   6.612   3.186   9.248  1.8483  1.5768  0.8867
  111OSM   H15G11571   6.648   3.022   9.190 -0.8101 -0.1870  0.0316
  111OSM   C16F11572   6.817   3.162   9.207  0.2304  0.0384  0.3399
  111OSM   H16F11573   6.901   3.095   9.235  0.8341  0.9610  0.8138
  111OSM   H16G11574   6.830   3.262   9.254 -1.4105  0.4386  0.0071
  111OSM   C17F11575   6.819   3.182   9.050 -0.3866 -0.0369  0.9290
  111OSM   H17F11576   6.765   3.276   9.025  0.2521 -0.7370 -4.0147
  111OSM   H17G11577   6.772   3.090   9.008 -1.2112  1.0565 -0.6250
  111OSM   C18F11578   6.956   3.189   8.982  0.2689  0.1661  0.4079
  111OSM   H18F11579   6.945   3.186   8.871  1.0662 -1.0202  0.3441
  111OSM   H18G11580   7.019   3.100   9.002  0.5161 -0.1467 -1.5450
  111OSM   H18H11581   7.011   3.283   9.008  1.7661  0.0118 -1.8638
  112OSM      N11582   0.957   1.511  11.044  0.3033  0.3343  0.2602
  112OSM    C1511583   1.013   1.640  11.017  0.2367 -0.3673 -0.1160
  112OSM   H15A11584   0.991   1.704  11.101  1.5041 -0.4155  0.2705
  112OSM   H15B11585   0.960   1.685  10.935  0.2030 -0.0240  0.0889
  112OSM   H15C11586   1.116   1.632  10.988 -0.3679 -1.1067 -2.1901
  112OSM    C1411587   1.030   1.432  11.144 -0.4883  0.3526  0.6206
  112OSM   H14A11588   1.031   1.490  11.234 -3.5108  0.4764  0.6669
  112OSM   H14B11589   1.131   1.413  11.111 -0.3330  3.6192 -1.1966
  112OSM   H14C11590   0.992   1.335  11.173  0.5219 -0.4278 -0.5635
  112OSM    C1311591   0.819   1.538  11.091  0.1979 -0.2348  0.0700
  112OSM   H13A11592   0.779   1.445  11.126 -2.2063  0.6020 -0.2414
  112OSM   H13B11593   0.758   1.579  11.011  0.2581  0.7338  0.5071
  112OSM   H13C11594   0.829   1.610  11.171 -0.0816  1.6806 -1.5231
  112OSM    C1211595   0.958   1.425  10.913  0.1233 -0.3395  0.0047
  112OSM   H12A11596   0.913   1.332  10.943 -2.3322  1.0563  0.9406
  112OSM   H12B11597   1.062   1.400  10.897  1.1156  1.2902  3.1107
  112OSM    C1111598   0.895   1.479  10.783  0.1461  0.1738  0.5891
  112OSM   H11A11599   0.939   1.424  10.697  0.4801  2.3223 -0.6770
  112OSM   H11B11600   0.927   1.582  10.760  0.4273 -0.4371 -2.0793
  112OSM      P11601   0.674   1.351  10.761 -0.1869 -0.1356 -0.0079
  112OSM    O1311602   0.734   1.225  10.815 -0.2678  0.2080  0.5811
  112OSM    O1411603   0.538   1.379  10.808  0.0687  0.3987  0.2711
  112OSM    O1111604   0.665   1.330  10.602 -0.6137 -0.0213  0.3195
  112OSM    O1211605   0.756   1.480  10.794  0.1615 -0.3685 -0.0988
  112OSM    C1S11606   0.673   1.448  10.518 -0.1851 -0.3121 -0.3273
  112OSM    H1S11607   0.773   1.494  10.535 -0.9890  0.7646  1.8094
  112OSM    H1T11608   0.594   1.518  10.553 -0.6820 -1.8932  1.9545
  112OSM     NF11609   0.649   1.576  10.313 -0.4044 -0.2147  0.3470
  112OSM    HNF11610   0.567   1.630  10.298  1.3078  2.4377 -0.1961
  112OSM    C2S11611   0.636   1.444  10.368  0.1554  0.0981 -0.2358
  112OSM    H2S11612   0.719   1.379  10.334  0.7746 -0.7657  2.7298
  112OSM    C3S11613   0.503   1.370  10.352  0.1702 -0.2156  0.4614
  112OSM    H3S11614   0.427   1.418  10.417 -2.1137 -0.9051 -1.5587
  112OSM     O311615   0.519   1.238  10.392  0.0935 -0.5109  0.1365
  112OSM    HO311616   0.598   1.236  10.447  1.0116  1.5664 -1.0249
  112OSM    C4S11617   0.442   1.384  10.210  1.1132 -0.4517 -0.6999
  112OSM    H4S11618   0.359   1.456  10.200 -0.0921 -1.7052 -0.1434
  112OSM    C5S11619   0.477   1.313  10.105  0.1553  1.3521 -0.2280
  112OSM    H5S11620   0.555   1.237  10.120 -0.4699  1.0772  2.0312
  112OSM    C6S11621   0.419   1.312   9.964  0.6140  0.1125  0.5402
  112OSM    H6S11622   0.442   1.219   9.908  1.4202  0.0927  0.8982
  112OSM    H6T11623   0.479   1.388   9.911 -1.8143  1.8158  0.0377
  112OSM    C7S11624   0.265   1.340   9.942 -0.2305 -1.0786  0.4540
  112OSM    H7S11625   0.244   1.447   9.959  1.3307 -0.6924  0.1037
  112OSM    H7T11626   0.203   1.273  10.005 -1.9600 -0.8411 -0.8970
  112OSM    C8S11627   0.211   1.319   9.795  0.3529 -0.0473  0.2492
  112OSM    H8S11628   0.101   1.331   9.792  0.3708 -0.0402 -1.7850
  112OSM    H8T11629   0.243   1.214   9.775 -0.6927 -0.6177  1.4319
  112OSM    C9S11630   0.276   1.404   9.682 -0.3837 -0.2390 -0.0390
  112OSM    H9S11631   0.384   1.379   9.677 -0.2359  0.2376  0.6897
  112OSM    H9T11632   0.262   1.513   9.694  1.3693  0.2819 -2.0145
  112OSM   C10S11633   0.194   1.364   9.557  0.7746  0.3911 -0.0264
  112OSM   H10S11634   0.091   1.403   9.572  0.3108 -1.0942  0.8704
  112OSM   H10T11635   0.195   1.254   9.542 -0.4227  0.4206 -0.4382
  112OSM   C11S11636   0.242   1.429   9.429 -0.1081 -0.0624 -0.6696
  112OSM   H11S11637   0.341   1.393   9.394 -1.0325 -1.6908 -1.7396
  112OSM   H11T11638   0.252   1.540   9.436 -0.4751  0.0453 -1.7400
  112OSM   C12S11639   0.139   1.394   9.326 -0.5539  0.6847  0.4518
  112OSM   H12S11640   0.037   1.418   9.361 -0.2007  1.5674  0.9065
  112OSM   H12T11641   0.146   1.284   9.308  2.1293  1.1033 -1.8014
  112OSM   C13S11642   0.160   1.454   9.192  0.2304  0.2661  0.4650
  112OSM   H13S11643   0.260   1.446   9.143 -0.2761  0.6266 -0.6775
  112OSM   H13T11644   0.136   1.562   9.197 -0.0448  0.4259 -2.4106
  112OSM   C14S11645   0.059   1.385   9.086 -0.1665  0.0302  0.5390
  112OSM   H14S11646  -0.043   1.412   9.122 -0.4575  2.3732 -1.7389
  112OSM   H14T11647   0.058   1.275   9.074 -2.5814  0.0538 -0.0971
  112OSM   C15S11648   0.078   1.453   8.946 -0.5584  1.2683 -0.8618
  112OSM   H15S11649   0.183   1.434   8.915 -0.2176 -1.6233  1.6363
  112OSM   H15T11650   0.059   1.562   8.959  1.9350  1.5780  1.2372
  112OSM   C16S11651  -0.017   1.377   8.848  0.9084  0.2516 -0.3120
  112OSM   H16S11652  -0.121   1.370   8.887  1.3537  0.0248  0.9047
  112OSM   H16T11653   0.021   1.272   8.847 -0.9360 -0.5227  1.6768
  112OSM   C17S11654  -0.014   1.439   8.707 -0.5420  0.2766  1.2000
  112OSM   H17S11655   0.063   1.393   8.641 -1.0073  0.1102  0.7665
  112OSM   H17T11656   0.014   1.546   8.718 -0.3615  0.2233  1.2577
  112OSM   C18S11657  -0.148   1.426   8.641  0.4952  0.1004 -0.0357
  112OSM   H18S11658  -0.156   1.464   8.537 -0.0818  0.6243  0.1844
  112OSM   H18T11659  -0.239   1.471   8.687 -0.7042 -1.7118 -0.5365
  112OSM   H18U11660  -0.177   1.319   8.645  0.8785  0.0003  0.0594
  112OSM    C1F11661   0.770   1.626  10.280 -0.8846 -0.2829 -0.0881
  112OSM     OF11662   0.875   1.558  10.284  0.1121 -0.2567 -0.0549
  112OSM    C2F11663   0.774   1.778  10.246  0.0050 -0.2799  0.4480
  112OSM    H2F11664   0.831   1.828  10.328  2.8966 -2.0678 -0.3223
  112OSM    H2G11665   0.671   1.818  10.233  1.1594  2.0656 -2.9087
  112OSM    C3F11666   0.844   1.806  10.117 -0.2190 -0.0920  0.5927
  112OSM    H3F11667   0.794   1.747  10.038  1.0440 -0.3889 -0.0121
  112OSM    H3G11668   0.954   1.790  10.121 -0.2071 -0.2334 -0.2746
  112OSM    C4F11669   0.821   1.954  10.087 -0.8978 -0.2104 -0.3469
  112OSM    H4F11670   0.873   2.004  10.171 -3.1134  1.5652  0.0384
  112OSM    H4G11671   0.713   1.976  10.078 -0.5934  0.8252 -2.0525
  112OSM    C5F11672   0.910   2.002   9.962 -0.1658 -0.3349  0.1550
  112OSM    H5F11673   1.019   1.993   9.981  0.4376  0.5456 -2.4919
  112OSM    H5G11674   0.899   2.113   9.959  2.4251  0.0608  1.8237
  112OSM    C6F11675   0.873   1.923   9.835 -0.0106  0.2818 -0.1759
  112OSM    H6F11676   0.765   1.936   9.812  0.0701  0.8305 -0.2534
  112OSM    H6G11677   0.893   1.816   9.859 -1.7519 -0.1885 -0.6396
  112OSM    C7F11678   0.957   1.966   9.720 -0.0583 -0.3885 -0.8290
  112OSM    H7F11679   1.064   1.937   9.730  0.7201  2.4964  0.2008
  112OSM    H7G11680   0.973   2.075   9.706 -1.5347 -0.2841 -1.9581
  112OSM    C8F11681   0.912   1.912   9.586 -0.2798  0.3471 -0.2173
  112OSM    H8F11682   0.806   1.942   9.575 -1.2908 -2.5611  0.7905
  112OSM    H8G11683   0.911   1.802   9.598  0.9342  0.5088  1.7605
  112OSM    C9F11684   1.004   1.955   9.467 -0.3420  0.3635  1.1114
  112OSM    H9F11685   1.090   2.018   9.497  1.6784 -3.2194  3.5491
  112OSM   C10F11686   0.970   1.944   9.339 -0.0242 -0.1351  0.5700
  112OSM   H10F11687   1.043   1.961   9.259  0.6939 -1.8592  0.8300
  112OSM   C11F11688   0.852   1.857   9.302  0.1983  0.5322  1.0150
  112OSM   H11F11689   0.763   1.872   9.367 -0.8962  1.3616 -0.6156
  112OSM   H11G11690   0.876   1.750   9.281  0.4726  0.7682  0.0592
  112OSM   C12F11691   0.799   1.906   9.167 -0.6349  0.3147 -0.0378
  112OSM   H12F11692   0.788   2.016   9.180  0.7545  0.2285  2.5666
  112OSM   H12G11693   0.701   1.861   9.142 -0.1963 -1.1400  0.6822
  112OSM   C13F11694   0.892   1.887   9.048  0.8484 -0.3247 -0.2772
  112OSM   H13F11695   0.937   1.785   9.046 -0.2831 -0.8680  0.7399
  112OSM   H13G11696   0.981   1.952   9.063 -0.3121  1.3716 -0.4300
  112OSM   C14F11697   0.831   1.903   8.903 -0.1964  0.2193 -1.2493
  112OSM   H14F11698   0.758   1.988   8.901 -1.6487 -0.6631  2.8159
  112OSM   H14G11699   0.775   1.809   8.885 -0.0852  0.1443 -1.2010
  112OSM   C15F11700   0.946   1.910   8.801  0.0126 -0.2919  0.0760
  112OSM   H15F11701   1.016   1.824   8.809 -0.5724 -0.8612 -0.8675
  112OSM   H15G11702   0.993   2.006   8.832  0.0087  0.8970 -3.2866
  112OSM   C16F11703   0.896   1.912   8.657  0.2441  0.4939  0.4491
  112OSM   H16F11704   0.828   1.997   8.633  1.9515  1.7303 -0.1757
  112OSM   H16G11705   0.850   1.816   8.626  1.1170  0.4162 -0.6952
  112OSM   C17F11706   1.010   1.906   8.557  0.3314 -0.0547 -1.3550
  112OSM   H17F11707   1.067   1.817   8.590 -0.5959  0.7492  3.1344
  112OSM   H17G11708   1.061   2.004   8.566 -0.6589  0.4035 -0.4574
  112OSM   C18F11709   0.968   1.901   8.413  0.1704 -0.0394 -0.3815
  112OSM   H18F11710   0.932   2.002   8.384  2.0532  1.2151  1.3183
  112OSM   H18G11711   0.890   1.823   8.404 -1.2507  1.0183  1.8706
  112OSM   H18H11712   1.036   1.877   8.328 -1.1940  0.0687 -1.5273
  113OSM      N11713   4.564   3.856  10.838  0.0122  0.5260  0.2391
  113OSM    C1511714   4.666   3.946  10.900 -0.3027 -0.4825 -0.6654
  113OSM   H15A11715   4.704   4.016  10.827  1.0383 -1.9436 -1.4603
  113OSM   H15B11716   4.751   3.892  10.939 -0.9547 -1.0206  0.0467
  113OSM   H15C11717   4.626   4.000  10.984  0.3916 -0.4052 -0.3774
  113OSM    C1411718   4.510   3.772  10.947 -0.4965  0.3183 -0.9023
  113OSM   H14A11719   4.429   3.717  10.902 -0.0114 -0.7130 -0.5539
  113OSM   H14B11720   4.473   3.832  11.029 -0.2369 -0.2882 -0.3232
  113OSM   H14C11721   4.580   3.695  10.978  0.4043  1.4512 -0.0323
  113OSM    C1311722   4.454   3.939  10.782 -0.3202  0.0377  0.4626
  113OSM   H13A11723   4.397   3.988  10.859 -2.4475  0.9709 -1.5844
  113OSM   H13B11724   4.381   3.874  10.735  0.2088  0.1448 -0.5304
  113OSM   H13C11725   4.483   3.997  10.696 -3.1191 -0.6634 -1.0624
  113OSM    C1211726   4.619   3.778  10.722 -0.1434  0.9570  0.2658
  113OSM   H12A11727   4.619   3.855  10.647 -0.3184  2.9007  2.1818
  113OSM   H12B11728   4.551   3.697  10.696  0.0377  0.9228 -0.0946
  113OSM    C1111729   4.770   3.731  10.723 -0.3636  0.1769  0.2500
  113OSM   H11A11730   4.767   3.665  10.633 -0.9362  1.8988 -1.0487
  113OSM   H11B11731   4.789   3.659  10.806 -0.7451 -0.6307 -0.3473
  113OSM      P11732   5.014   3.789  10.725  0.0433  0.0575 -0.1471
  113OSM    O1311733   5.110   3.899  10.707  0.4004  0.4944  0.0127
  113OSM    O1411734   5.020   3.700  10.842 -0.1744  0.1914  0.2002
  113OSM    O1111735   5.035   3.705  10.594 -0.4566 -0.2145  0.0436
  113OSM    O1211736   4.864   3.835  10.717  0.0883  0.2472 -0.3915
  113OSM    C1S11737   5.005   3.777  10.474  0.0882  0.6093 -0.1828
  113OSM    H1S11738   5.090   3.845  10.449  2.1545 -1.3799  1.0489
  113OSM    H1T11739   4.906   3.827  10.479  0.3966  1.1072  2.1676
  113OSM     NF11740   4.971   3.768  10.230  0.4647  0.7997 -0.2557
  113OSM    HNF11741   4.890   3.757  10.172 -0.3241 -1.9451  1.2013
  113OSM    C2S11742   4.986   3.681  10.344 -0.0475 -1.0841  0.4034
  113OSM    H2S11743   5.079   3.623  10.327  1.3660  1.3342 -0.7964
  113OSM    C3S11744   4.875   3.577  10.366  0.5751 -0.3452 -0.2131
  113OSM    H3S11745   4.791   3.641  10.400  0.6684 -0.9280  1.1849
  113OSM     O311746   4.914   3.488  10.475  0.2170  0.0928  0.2840
  113OSM    HO311747   4.976   3.542  10.524 -0.0544 -0.1290  0.8735
  113OSM    C4S11748   4.832   3.506  10.242 -0.3851  0.0629  0.4837
  113OSM    H4S11749   4.758   3.551  10.173  0.3040 -1.7780 -1.5755
  113OSM    C5S11750   4.885   3.391  10.186 -0.4651 -0.6381 -0.2575
  113OSM    H5S11751   4.953   3.344  10.258 -0.0011  0.9338  0.3765
  113OSM    C6S11752   4.854   3.327  10.057 -0.4766  0.2062 -0.1121
  113OSM    H6S11753   4.750   3.322  10.019 -0.7121 -0.2597  0.5873
  113OSM    H6T11754   4.876   3.218  10.058 -0.1206  0.2747 -0.1862
  113OSM    C7S11755   4.939   3.407   9.956 -0.3213 -0.6769  0.1533
  113OSM    H7S11756   5.049   3.400   9.972  0.0255  1.6453 -0.7624
  113OSM    H7T11757   4.914   3.515   9.960 -1.9938 -1.0337 -0.1841
  113OSM    C8S11758   4.898   3.370   9.812 -0.4724 -0.6834 -0.6798
  113OSM    H8S11759   4.800   3.418   9.789 -0.1055  1.5403  1.8467
  113OSM    H8T11760   4.889   3.260   9.799  1.6295 -0.8113 -1.4649
  113OSM    C9S11761   4.987   3.419   9.701 -0.3491 -0.6583  0.3139
  113OSM    H9S11762   5.087   3.369   9.705  0.1705  0.2122 -0.9948
  113OSM    H9T11763   5.005   3.529   9.704  1.6692 -0.8756 -1.4754
  113OSM   C10S11764   4.914   3.401   9.566 -0.2561  0.0832  0.4742
  113OSM   H10S11765   4.832   3.475   9.563  1.9708  2.7168  0.4168
  113OSM   H10T11766   4.866   3.301   9.569  0.8571 -0.6336 -2.3070
  113OSM   C11S11767   5.000   3.430   9.445 -0.6792 -0.6756  0.2861
  113OSM   H11S11768   5.083   3.358   9.441 -1.5447 -1.6474 -0.9538
  113OSM   H11T11769   5.038   3.532   9.468 -0.8673 -0.6887  0.6851
  113OSM   C12S11770   4.922   3.421   9.314  0.4585 -0.2005 -0.0935
  113OSM   H12S11771   4.846   3.503   9.314 -0.1113 -0.6238 -2.8734
  113OSM   H12T11772   4.859   3.330   9.303  0.4238 -0.0943 -0.8931
  113OSM   C13S11773   5.008   3.439   9.199 -0.2035  0.2472 -0.0672
  113OSM   H13S11774   5.079   3.353   9.192  0.3394  0.8027 -1.9714
  113OSM   H13T11775   5.073   3.529   9.208  3.8084 -2.3008 -0.7708
  113OSM   C14S11776   4.946   3.458   9.063 -0.2894 -0.3532  0.8430
  113OSM   H14S11777   4.868   3.538   9.064 -0.3621 -0.4217  0.6337
  113OSM   H14T11778   4.889   3.364   9.049 -2.7392  0.6297  3.1421
  113OSM   C15S11779   5.043   3.463   8.937 -0.0554  0.6647  0.3435
  113OSM   H15S11780   5.114   3.379   8.943 -1.6622 -0.8111 -0.4414
  113OSM   H15T11781   5.102   3.555   8.958  0.5600  0.0356  1.4243
  113OSM   C16S11782   4.984   3.465   8.791  0.0805 -0.2298  0.5955
  113OSM   H16S11783   4.953   3.360   8.772  2.5079 -0.9938  0.4437
  113OSM   H16T11784   5.063   3.496   8.720  1.1039  1.2494  2.2946
  113OSM   C17S11785   4.861   3.561   8.771 -0.0883 -0.5104 -0.4813
  113OSM   H17S11786   4.900   3.649   8.825  0.9397 -2.4778  2.2248
  113OSM   H17T11787   4.772   3.529   8.830  0.0833  0.1062  0.1205
  113OSM   C18S11788   4.824   3.591   8.621  1.0797 -0.3310 -0.6027
  113OSM   H18S11789   4.785   3.495   8.581 -3.7460  2.0893 -2.4794
  113OSM   H18T11790   4.917   3.633   8.577  2.7895 -0.5646  2.4900
  113OSM   H18U11791   4.739   3.661   8.612  0.1643 -1.4226 -0.7416
  113OSM    C1F11792   5.063   3.851  10.191 -0.1019  0.0464  0.1730
  113OSM     OF11793   5.172   3.860  10.249  0.5583  0.1965 -0.3046
  113OSM    C2F11794   5.045   3.932  10.069 -1.2169 -0.0752 -0.1846
  113OSM    H2F11795   4.940   3.970  10.071 -0.6462  1.9741 -2.9200
  113OSM    H2G11796   5.044   3.863   9.982  0.5730  1.0264 -1.1365
  113OSM    C3F11797   5.166   4.032  10.049  0.5551  0.0618  0.0602
  113OSM    H3F11798   5.262   3.978  10.051  1.1571  1.1247  1.2380
  113OSM    H3G11799   5.166   4.109  10.129 -2.3506 -0.8781  1.1059
  113OSM    C4F11800   5.167   4.095   9.904 -0.5169  0.6604 -0.0762
  113OSM    H4F11801   5.058   4.111   9.887 -0.7233 -0.7431 -0.2023
  113OSM    H4G11802   5.201   4.009   9.842 -1.7889 -0.1867  0.3566
  113OSM    C5F11803   5.255   4.218   9.886  0.4122  0.6569 -0.0668
  113OSM    H5F11804   5.364   4.200   9.898  0.2886 -0.4921 -0.5797
  113OSM    H5G11805   5.220   4.293   9.961 -3.2330  0.7569 -1.6642
  113OSM    C6F11806   5.234   4.292   9.754  0.6610 -0.0045  0.3345
  113OSM    H6F11807   5.297   4.383   9.761 -0.8198  1.1711 -1.0311
  113OSM    H6G11808   5.129   4.325   9.745  0.6827 -0.4661 -2.7604
  113OSM    C7F11809   5.255   4.196   9.631 -0.2213  0.2735  0.0259
  113OSM    H7F11810   5.162   4.136   9.628  0.0768 -0.2272  0.7201
  113OSM    H7G11811   5.345   4.130   9.633  0.0289  0.5612 -0.9232
  113OSM    C8F11812   5.255   4.266   9.499  0.5969 -0.1553 -0.0560
  113OSM    H8F11813   5.152   4.307   9.496 -0.0691 -1.6896  0.7737
  113OSM    H8G11814   5.258   4.180   9.428  0.8043 -1.1939  1.1669
  113OSM    C9F11815   5.369   4.356   9.464  0.8473  0.2509  0.0286
  113OSM    H9F11816   5.391   4.429   9.542 -0.8308  0.3267  0.4528
  113OSM   C10F11817   5.450   4.359   9.355  0.3255 -0.3204  0.3892
  113OSM   H10F11818   5.536   4.427   9.354  0.9685 -1.0328 -2.1777
  113OSM   C11F11819   5.453   4.274   9.234 -0.5856  0.3154 -0.2049
  113OSM   H11F11820   5.378   4.192   9.234  0.6865 -0.9280  1.6899
  113OSM   H11G11821   5.546   4.213   9.234 -0.0865  1.0681 -0.5395
  113OSM   C12F11822   5.433   4.352   9.108 -0.6133  0.3489  0.4171
  113OSM   H12F11823   5.510   4.432   9.107 -0.4006  0.1831  1.5594
  113OSM   H12G11824   5.336   4.405   9.098  0.5887  2.4483 -0.8173
  113OSM   C13F11825   5.455   4.253   8.992 -0.3757 -0.3470  0.0787
  113OSM   H13F11826   5.353   4.211   8.977 -1.3714  1.7082  0.7139
  113OSM   H13G11827   5.528   4.173   9.020 -1.0014 -0.1000  2.6806
  113OSM   C14F11828   5.500   4.325   8.868  0.6852 -0.0991 -0.4416
  113OSM   H14F11829   5.593   4.381   8.896  0.5421  0.4990 -1.1288
  113OSM   H14G11830   5.419   4.394   8.837  2.3419  1.4653 -1.4927
  113OSM   C15F11831   5.534   4.231   8.759 -0.7943  0.1918  1.1211
  113OSM   H15F11832   5.484   4.261   8.664  2.1834 -0.2402 -0.7105
  113OSM   H15G11833   5.499   4.128   8.780  0.0094 -0.1524  0.8146
  113OSM   C16F11834   5.685   4.221   8.736  0.4973 -0.2126  0.2924
  113OSM   H16F11835   5.734   4.156   8.812  0.3785 -1.5488 -0.7292
  113OSM   H16G11836   5.729   4.322   8.750 -0.5498  0.2883  0.0154
  113OSM   C17F11837   5.713   4.152   8.598  0.1180 -0.0162  0.2190
  113OSM   H17F11838   5.822   4.157   8.578 -0.2226 -0.4440 -2.0537
  113OSM   H17G11839   5.659   4.216   8.525  0.1643 -1.6809 -1.3534
  113OSM   C18F11840   5.654   4.006   8.603 -0.2664 -0.3401  0.9103
  113OSM   H18F11841   5.685   3.954   8.510  0.0147  2.2792 -0.5347
  113OSM   H18G11842   5.545   4.010   8.623 -0.2296 -0.7793  1.2324
  113OSM   H18H11843   5.710   3.957   8.686  1.5682 -1.6726 -1.0074
  114OSM      N11844   1.040   4.998  10.735  0.1064  0.3885 -0.5021
  114OSM    C1511845   1.019   4.862  10.799 -0.1461 -0.0257  0.2022
  114OSM   H15A11846   0.941   4.869  10.874  0.4426 -1.1875  0.9601
  114OSM   H15B11847   1.116   4.837  10.841  0.3254  0.4537 -0.5682
  114OSM   H15C11848   0.985   4.784  10.733 -3.2258 -0.2282  1.8244
  114OSM    C1411849   1.039   5.104  10.846 -0.0824 -0.5177 -0.1430
  114OSM   H14A11850   1.047   5.205  10.810 -1.3068 -0.2847  0.1955
  114OSM   H14B11851   1.103   5.089  10.932  0.5923  0.3331 -0.4766
  114OSM   H14C11852   0.938   5.109  10.883 -0.2466  3.4145 -0.6615
  114OSM    C1311853   1.176   4.997  10.674 -0.1508  0.7519  0.5168
  114OSM   H13A11854   1.202   5.095  10.635  3.7339 -0.1511  0.3778
  114OSM   H13B11855   1.175   4.924  10.595 -0.6341  0.0430  1.1622
  114OSM   H13C11856   1.258   4.964  10.736  1.2276 -0.2695 -1.7254
  114OSM    C1211857   0.932   5.027  10.627  0.3954  0.3963  1.0085
  114OSM   H12A11858   0.837   5.037  10.678 -1.1995 -2.8500 -0.9656
  114OSM   H12B11859   0.917   4.936  10.571  2.0741  0.8210 -0.2373
  114OSM    C1111860   0.944   5.141  10.523  0.5602 -0.5196 -0.9985
  114OSM   H11A11861   0.878   5.108  10.440 -0.2867 -0.6257 -0.3009
  114OSM   H11B11862   1.045   5.133  10.478  0.8406  1.8692 -0.8774
  114OSM      P11863   0.771   5.321  10.615  0.3710  0.0606  0.2430
  114OSM    O1311864   0.690   5.218  10.687  0.2661 -0.1315 -0.2949
  114OSM    O1411865   0.785   5.452  10.688 -0.1215 -0.1140  0.2454
  114OSM    O1111866   0.715   5.354  10.475 -0.2772  0.4927  0.5702
  114OSM    O1211867   0.921   5.273  10.575 -0.0210  0.0737  0.1615
  114OSM    C1S11868   0.799   5.413  10.366  0.3301  0.0757 -0.1718
  114OSM    H1S11869   0.850   5.332  10.309 -1.0147 -1.2459  0.4355
  114OSM    H1T11870   0.866   5.489  10.410 -0.6913  0.6272  0.4553
  114OSM     NF11871   0.801   5.541  10.148 -0.7998  0.1061  0.3185
  114OSM    HNF11872   0.823   5.637  10.134  2.3402 -0.6803 -0.9530
  114OSM    C2S11873   0.716   5.498  10.259  1.0048  0.1356 -0.6884
  114OSM    H2S11874   0.646   5.424  10.214 -1.8645  1.1547  1.7753
  114OSM    C3S11875   0.630   5.612  10.329  0.2748  0.2434 -0.4320
  114OSM    H3S11876   0.693   5.679  10.391  1.7592  1.2315 -2.8788
  114OSM     O311877   0.531   5.548  10.413 -0.2861 -0.5172 -0.0834
  114OSM    HO311878   0.564   5.459  10.421 -0.0306 -0.6046 -1.6899
  114OSM    C4S11879   0.566   5.702  10.230  0.3623 -0.4563  0.1655
  114OSM    H4S11880   0.626   5.793  10.215 -2.5919  1.9774  1.9712
  114OSM    C5S11881   0.455   5.676  10.154 -0.6910  0.3502 -0.1165
  114OSM    H5S11882   0.391   5.588  10.174 -0.9464  0.5808  0.0880
  114OSM    C6S11883   0.418   5.759  10.038  0.5964  0.3594  0.4575
  114OSM    H6S11884   0.470   5.856  10.043  1.6518 -0.2111  0.7835
  114OSM    H6T11885   0.311   5.791  10.046 -0.6267 -1.9485 -3.7060
  114OSM    C7S11886   0.430   5.682   9.906 -0.4020  0.3329 -0.0001
  114OSM    H7S11887   0.388   5.740   9.821  0.1667  0.7204 -0.0223
  114OSM    H7T11888   0.379   5.584   9.917  1.6004 -0.8147 -0.3506
  114OSM    C8S11889   0.584   5.652   9.878  0.0036  0.1304  0.6140
  114OSM    H8S11890   0.621   5.600   9.968  0.9690  0.6801  0.5453
  114OSM    H8T11891   0.632   5.752   9.878 -0.8889  0.5760 -0.3008
  114OSM    C9S11892   0.623   5.590   9.745  0.2185  0.0640 -0.0141
  114OSM    H9S11893   0.727   5.624   9.729  0.2599  0.1032  0.3302
  114OSM    H9T11894   0.558   5.617   9.659 -0.8160  2.4761  1.4075
  114OSM   C10S11895   0.636   5.437   9.759  0.8005 -0.7889  0.5863
  114OSM   H10S11896   0.539   5.404   9.801  0.5453  2.7113  3.2312
  114OSM   H10T11897   0.712   5.420   9.838  3.0911 -0.1690 -1.3684
  114OSM   C11S11898   0.670   5.371   9.628 -0.3141 -0.0269 -0.2974
  114OSM   H11S11899   0.686   5.264   9.652  0.0697  0.0742 -0.1077
  114OSM   H11T11900   0.767   5.413   9.594 -1.0761  0.8123 -1.5193
  114OSM   C12S11901   0.565   5.374   9.518 -0.0632 -0.3339  0.3367
  114OSM   H12S11902   0.480   5.430   9.561  0.6847 -0.8639  2.6727
  114OSM   H12T11903   0.526   5.272   9.498  0.8962 -0.5468 -0.5291
  114OSM   C13S11904   0.627   5.427   9.382  0.5166 -0.3681  0.5824
  114OSM   H13S11905   0.687   5.517   9.410  1.6227 -1.3848  1.5686
  114OSM   H13T11906   0.543   5.469   9.322  1.9924  1.8062 -0.0911
  114OSM   C14S11907   0.714   5.330   9.314 -0.4266 -0.1668 -0.0889
  114OSM   H14S11908   0.668   5.229   9.313  1.3946 -1.0442  0.2129
  114OSM   H14T11909   0.803   5.318   9.379  1.7912  1.0964 -2.6616
  114OSM   C15S11910   0.758   5.373   9.168  0.4314  0.4318 -0.4280
  114OSM   H15S11911   0.841   5.444   9.183 -0.8794  1.6265  1.7074
  114OSM   H15T11912   0.673   5.423   9.116 -1.5664 -1.2994  0.9552
  114OSM   C16S11913   0.795   5.252   9.080  0.0300  0.1874 -0.1891
  114OSM   H16S11914   0.857   5.191   9.149  2.3153  0.9754 -1.4616
  114OSM   H16T11915   0.855   5.294   8.997  0.3409 -0.3730 -0.2544
  114OSM   C17S11916   0.681   5.166   9.033  0.8039 -0.2063  0.6265
  114OSM   H17S11917   0.619   5.146   9.122  0.6839  2.1215  1.1398
  114OSM   H17T11918   0.713   5.067   8.994  1.1760  0.1499 -0.0088
  114OSM   C18S11919   0.602   5.238   8.922  0.1787  0.5731  0.0330
  114OSM   H18S11920   0.640   5.228   8.818  0.0349 -0.3042  0.0556
  114OSM   H18T11921   0.598   5.345   8.954  0.7858  0.9359 -1.0746
  114OSM   H18U11922   0.497   5.202   8.916 -0.8048  3.4327 -2.0341
  114OSM    C1F11923   0.869   5.458  10.070 -0.0461  0.1148 -0.4971
  114OSM     OF11924   0.864   5.340  10.079  0.7293  0.1443  0.3288
  114OSM    C2F11925   0.964   5.533   9.978 -0.3223  0.4960 -0.2066
  114OSM    H2F11926   1.046   5.588  10.029 -0.5245  0.5301  0.0810
  114OSM    H2G11927   0.906   5.610   9.923 -0.4233  1.1993  0.8620
  114OSM    C3F11928   1.045   5.446   9.878 -0.0492 -0.5197 -0.2892
  114OSM    H3F11929   0.978   5.382   9.817 -0.5103 -0.6599  0.3472
  114OSM    H3G11930   1.107   5.380   9.943 -2.6900 -1.0908  1.8406
  114OSM    C4F11931   1.119   5.532   9.776  0.0781 -0.6873  1.0980
  114OSM    H4F11932   1.188   5.612   9.811 -1.6688  0.1747  2.7026
  114OSM    H4G11933   1.050   5.587   9.710  3.2972 -1.7814 -3.6965
  114OSM    C5F11934   1.202   5.440   9.680 -0.4442 -0.6202  0.1667
  114OSM    H5F11935   1.257   5.357   9.730  0.6498  0.6142  1.0736
  114OSM    H5G11936   1.278   5.510   9.639 -0.9377 -1.0207 -1.5028
  114OSM    C6F11937   1.123   5.378   9.557  2.0153 -0.1644 -0.3047
  114OSM    H6F11938   1.016   5.363   9.585  2.8696 -1.1161  2.9524
  114OSM    H6G11939   1.158   5.273   9.551  0.3855 -0.7764  0.3095
  114OSM    C7F11940   1.158   5.470   9.435  0.1845 -0.1300 -0.2297
  114OSM    H7F11941   1.267   5.451   9.430  0.2237 -0.3575  1.0600
  114OSM    H7G11942   1.144   5.575   9.467  0.9349  0.0629 -0.5138
  114OSM    C8F11943   1.093   5.435   9.301  0.1105  0.2760  0.3248
  114OSM    H8F11944   1.114   5.518   9.231 -0.4742 -1.1661 -1.6487
  114OSM    H8G11945   0.985   5.457   9.314  0.1071  0.7494 -0.4176
  114OSM    C9F11946   1.119   5.300   9.239  0.1537  0.1675  0.0011
  114OSM    H9F11947   1.094   5.217   9.307 -2.7945  0.1645 -0.9287
  114OSM   C10F11948   1.175   5.277   9.119 -0.7320  0.7708  0.0206
  114OSM   H10F11949   1.192   5.175   9.082 -0.1256  0.8565  0.0489
  114OSM   C11F11950   1.235   5.377   9.029 -0.0123  0.1924  1.0147
  114OSM   H11F11951   1.319   5.328   8.975 -0.0256  2.4694 -1.2347
  114OSM   H11G11952   1.281   5.465   9.081  2.5287 -0.9795  0.9313
  114OSM   C12F11953   1.133   5.428   8.926 -0.3006  0.4424 -0.1150
  114OSM   H12F11954   1.174   5.515   8.870  1.4934 -0.8180 -0.8448
  114OSM   H12G11955   1.042   5.461   8.981  0.3719  0.2651  1.1462
  114OSM   C13F11956   1.084   5.337   8.817 -0.1172 -0.6025  0.7031
  114OSM   H13F11957   0.997   5.388   8.769  1.2897  1.0670 -0.1743
  114OSM   H13G11958   1.049   5.241   8.861 -0.8546 -0.4339  0.4930
  114OSM   C14F11959   1.184   5.288   8.711  0.3742 -0.0725 -0.5115
  114OSM   H14F11960   1.271   5.235   8.754 -0.9418 -1.9974 -0.0679
  114OSM   H14G11961   1.215   5.381   8.660  0.6688  0.7664  1.1304
  114OSM   C15F11962   1.121   5.194   8.610 -0.1301 -0.2026  0.1168
  114OSM   H15F11963   1.021   5.230   8.576 -0.5638 -1.8665 -0.5084
  114OSM   H15G11964   1.085   5.102   8.661 -0.0003  0.9425  2.3884
  114OSM   C16F11965   1.212   5.166   8.489  0.2393  0.2987 -0.1725
  114OSM   H16F11966   1.314   5.178   8.532  0.3924  3.0801 -1.1497
  114OSM   H16G11967   1.196   5.239   8.407 -1.6139 -0.9012 -0.9328
  114OSM   C17F11968   1.177   5.024   8.446 -0.0467  0.2727  0.5081
  114OSM   H17F11969   1.069   5.015   8.419 -0.2815  0.9293  1.1885
  114OSM   H17G11970   1.197   4.954   8.529 -0.1268 -0.0807  0.2332
  114OSM   C18F11971   1.265   4.960   8.339 -0.1364  0.0461 -0.0104
  114OSM   H18F11972   1.360   4.918   8.378 -0.7334 -2.2292 -0.8404
  114OSM   H18G11973   1.286   5.032   8.257  1.5200 -1.3552 -0.8903
  114OSM   H18H11974   1.216   4.866   8.306  1.2389 -0.2985 -1.1938
  115OSM      N11975   4.202   5.070  10.488 -0.2538  0.8770  0.2113
  115OSM    C1511976   4.252   4.929  10.473  0.0381 -0.2699 -0.0590
  115OSM   H15A11977   4.165   4.865  10.469  0.2292 -0.5463  0.2701
  115OSM   H15B11978   4.302   4.890  10.560 -2.4783 -1.2294  1.0478
  115OSM   H15C11979   4.322   4.910  10.392  0.8020  0.5577  0.3939
  115OSM    C1411980   4.101   5.066  10.600  0.0796  0.1313 -0.9745
  115OSM   H14A11981   4.051   5.161  10.611  0.4640  0.3411 -1.0197
  115OSM   H14B11982   4.146   5.029  10.691 -0.3989  0.6298 -0.5337
  115OSM   H14C11983   4.018   5.000  10.580  0.7033 -1.4339  1.2509
  115OSM    C1311984   4.312   5.172  10.523  0.1513 -0.4084  0.1456
  115OSM   H13A11985   4.358   5.144  10.616  0.9118 -0.9280 -0.3821
  115OSM   H13B11986   4.280   5.275  10.520 -0.1739 -0.5071 -2.8975
  115OSM   H13C11987   4.392   5.171  10.451  0.0502  1.7890 -0.0769
  115OSM    C1211988   4.131   5.115  10.359 -0.7662  0.7243 -0.4969
  115OSM   H12A11989   4.197   5.078  10.282 -0.7766 -0.6765  0.1344
  115OSM   H12B11990   4.136   5.223  10.350  1.2726  0.6388 -0.9854
  115OSM    C1111991   3.981   5.080  10.314 -1.2100 -0.0781 -0.3463
  115OSM   H11A11992   3.974   5.124  10.212  0.9106  1.6342  0.1816
  115OSM   H11B11993   3.907   5.135  10.376 -2.0931  0.4686 -1.8226
  115OSM      P11994   3.993   4.849  10.205  0.0296  0.4092 -0.5675
  115OSM    O1311995   4.137   4.855  10.178  0.4909  0.0183  0.1844
  115OSM    O1411996   3.933   4.718  10.239 -0.2913 -0.1746 -0.4061
  115OSM    O1111997   3.918   4.922  10.092 -0.0508  0.8103 -0.0080
  115OSM    O1211998   3.964   4.939  10.332 -0.1720  0.1626  0.6438
  115OSM    C1S11999   3.943   4.886   9.956 -0.1838  0.1321 -0.0634
  115OSM    H1S12000   3.902   4.783   9.944  0.3833 -0.0686 -0.3183
  115OSM    H1T12001   4.050   4.886   9.926 -0.4208  2.5659 -1.1150
  115OSM     NF12002   3.887   4.940   9.728 -0.4627  0.0801 -0.4414
  115OSM    HNF12003   3.965   4.974   9.676 -0.8145  0.6032 -0.6379
  115OSM    C2S12004   3.869   4.981   9.865  0.4668 -0.0678  0.0709
  115OSM    H2S12005   3.759   4.976   9.881  0.6230 -0.3136  1.1191
  115OSM    C3S12006   3.903   5.130   9.904  0.0316 -0.3984  0.3547
  115OSM    H3S12007   4.009   5.145   9.935  0.0208  0.2388  0.1025
  115OSM     O312008   3.832   5.174  10.016  0.2284  0.7467 -0.2588
  115OSM    HO312009   3.817   5.099  10.074 -1.2592 -0.8351 -2.4956
  115OSM    C4S12010   3.867   5.231   9.787 -0.6605  0.4331 -0.1755
  115OSM    H4S12011   3.930   5.215   9.698  0.3524 -0.7788  0.7371
  115OSM    C5S12012   3.772   5.330   9.791  0.5578 -0.0229 -0.1971
  115OSM    H5S12013   3.717   5.351   9.884 -0.2684 -1.2049 -0.3970
  115OSM    C6S12014   3.730   5.415   9.682  0.3127  0.1860  0.0063
  115OSM    H6S12015   3.716   5.514   9.731  1.2371 -0.5617  1.8819
  115OSM    H6T12016   3.629   5.387   9.648  0.4687  0.9652 -1.1578
  115OSM    C7S12017   3.822   5.415   9.551 -0.9320  0.7634 -0.3300
  115OSM    H7S12018   3.778   5.484   9.476  1.7133  1.1331 -1.6714
  115OSM    H7T12019   3.813   5.309   9.517 -0.4310  0.8046 -0.6056
  115OSM    C8S12020   3.961   5.479   9.552 -0.6899  0.1060  0.5522
  115OSM    H8S12021   4.034   5.424   9.615 -1.1982 -0.0981  0.9688
  115OSM    H8T12022   3.968   5.577   9.602  1.8930  0.2441  0.0315
  115OSM    C9S12023   4.001   5.482   9.402  0.3464  1.2445  0.5337
  115OSM    H9S12024   3.925   5.527   9.335  1.0636  4.2768  1.5499
  115OSM    H9T12025   4.014   5.376   9.371  6.7914  1.4410  1.0336
  115OSM   C10S12026   4.122   5.575   9.373 -0.1102  0.5821 -0.8534
  115OSM   H10S12027   4.219   5.538   9.411 -0.8590  0.2988  0.8999
  115OSM   H10T12028   4.106   5.664   9.437 -0.6962 -0.8429  1.0877
  115OSM   C11S12029   4.122   5.618   9.229  0.1291 -0.7647 -0.3274
  115OSM   H11S12030   4.194   5.703   9.226  1.3256 -1.7594 -0.5063
  115OSM   H11T12031   4.026   5.642   9.179  1.7388  2.0278 -2.4168
  115OSM   C12S12032   4.184   5.509   9.142  0.4449 -0.6793 -0.4757
  115OSM   H12S12033   4.117   5.421   9.127 -0.2696 -0.3925  0.8755
  115OSM   H12T12034   4.268   5.473   9.205 -0.5001 -1.3600  0.4307
  115OSM   C13S12035   4.228   5.557   9.006  0.5294  0.6693 -0.4887
  115OSM   H13S12036   4.320   5.619   9.008  2.0780 -1.4099 -2.1806
  115OSM   H13T12037   4.145   5.615   8.961 -0.2337 -0.7370 -0.9651
  115OSM   C14S12038   4.247   5.437   8.911 -0.2656  0.0985 -0.3633
  115OSM   H14S12039   4.147   5.393   8.888  0.3216 -0.4822 -1.9891
  115OSM   H14T12040   4.302   5.351   8.954 -2.6232 -1.2527  0.1254
  115OSM   C15S12041   4.298   5.475   8.764 -0.0006 -0.1185 -0.2547
  115OSM   H15S12042   4.404   5.503   8.777  0.7623 -2.4303 -1.0581
  115OSM   H15T12043   4.250   5.569   8.727  1.0541  0.1185 -1.0684
  115OSM   C16S12044   4.294   5.364   8.665 -0.6387 -0.1786 -0.2078
  115OSM   H16S12045   4.188   5.330   8.655 -0.4176 -0.7661 -0.6113
  115OSM   H16T12046   4.337   5.278   8.721 -0.8906  0.5568  1.1759
  115OSM   C17S12047   4.362   5.373   8.523 -0.1839  0.2207 -0.1826
  115OSM   H17S12048   4.330   5.471   8.481 -1.3169 -1.3996 -3.4216
  115OSM   H17T12049   4.316   5.291   8.464  1.1544 -1.7617  1.3493
  115OSM   C18S12050   4.511   5.357   8.528  0.3484  1.1398 -0.4014
  115OSM   H18S12051   4.536   5.253   8.559  0.6026  1.7951  1.7988
  115OSM   H18T12052   4.571   5.428   8.589  2.7236 -1.7934  0.9283
  115OSM   H18U12053   4.553   5.354   8.426  4.0766 -0.3013  1.0046
  115OSM    C1F12054   3.834   4.824   9.681  0.1848 -0.4507  0.5169
  115OSM     OF12055   3.734   4.774   9.730 -0.8343  0.3149 -0.0984
  115OSM    C2F12056   3.886   4.768   9.558 -0.2165  0.1646  0.0390
  115OSM    H2F12057   3.869   4.662   9.585 -0.2441 -0.1205 -1.0807
  115OSM    H2G12058   3.991   4.793   9.530 -0.3991  0.3315 -0.4953
  115OSM    C3F12059   3.792   4.789   9.435 -0.2578 -0.4170  0.1704
  115OSM    H3F12060   3.746   4.890   9.430 -0.9409 -0.7353 -0.1265
  115OSM    H3G12061   3.711   4.718   9.463  1.7510 -2.8788  0.0662
  115OSM    C4F12062   3.858   4.757   9.302  0.5697  0.0005  0.1675
  115OSM    H4F12063   3.884   4.649   9.307  0.8633  0.1055  1.2757
  115OSM    H4G12064   3.954   4.810   9.283  0.0423  0.0505 -2.9357
  115OSM    C5F12065   3.782   4.808   9.183 -0.6193  0.5936  0.5092
  115OSM    H5F12066   3.753   4.915   9.192  0.5112  1.0646 -1.0693
  115OSM    H5G12067   3.684   4.755   9.177 -0.5598  0.4555  0.7351
  115OSM    C6F12068   3.861   4.785   9.053  0.0302  0.0224  0.1457
  115OSM    H6F12069   3.884   4.677   9.041  0.8690  0.3734 -1.8554
  115OSM    H6G12070   3.964   4.825   9.066  0.9577 -2.1297 -0.2084
  115OSM    C7F12071   3.809   4.843   8.922  0.1139  0.0074  0.4573
  115OSM    H7F12072   3.705   4.808   8.905  1.2790 -2.5750 -2.3402
  115OSM    H7G12073   3.865   4.795   8.839 -0.2880  0.1047  0.1320
  115OSM    C8F12074   3.819   4.994   8.904 -0.7123 -0.0959  0.0133
  115OSM    H8F12075   3.771   5.047   8.989 -4.2215 -1.1867 -1.1175
  115OSM    H8G12076   3.749   5.018   8.822 -0.9583  0.8987  0.4977
  115OSM    C9F12077   3.967   5.030   8.876 -0.2243 -0.4173 -0.3642
  115OSM    H9F12078   4.028   5.022   8.967  0.1605 -0.9675 -0.6632
  115OSM   C10F12079   4.024   5.089   8.770 -0.2284 -0.0219 -0.3843
  115OSM   H10F12080   4.127   5.125   8.775 -0.0149 -0.7251  0.6736
  115OSM   C11F12081   3.948   5.122   8.642 -0.1602  0.5911 -0.0066
  115OSM   H11F12082   3.974   5.221   8.601  1.2163  0.1088 -0.3568
  115OSM   H11G12083   3.839   5.119   8.661 -0.2681 -0.6453 -0.6536
  115OSM   C12F12084   3.963   5.009   8.542 -0.3496 -0.5070  0.4878
  115OSM   H12F12085   3.877   5.024   8.473 -0.6434 -1.2059  0.6963
  115OSM   H12G12086   3.971   4.907   8.585  0.9792  0.3483  2.3706
  115OSM   C13F12087   4.082   5.022   8.449  0.1294 -0.0113 -0.3139
  115OSM   H13F12088   4.078   4.932   8.384  1.2983 -0.0258 -0.3791
  115OSM   H13G12089   4.176   5.011   8.506 -0.4407  1.9963  1.1533
  115OSM   C14F12090   4.079   5.148   8.354 -0.4161  0.1913 -0.0049
  115OSM   H14F12091   4.091   5.246   8.405  0.4407  0.4256 -0.6266
  115OSM   H14G12092   3.978   5.153   8.309 -0.3101  0.8414 -0.1743
  115OSM   C15F12093   4.194   5.138   8.245 -0.5744 -0.2205 -0.3411
  115OSM   H15F12094   4.192   5.037   8.199  0.3141  0.1893 -1.3067
  115OSM   H15G12095   4.294   5.156   8.291 -0.1137 -1.4063 -0.8136
  115OSM   C16F12096   4.183   5.224   8.127  0.5596  0.3399 -0.2370
  115OSM   H16F12097   4.082   5.212   8.083 -0.4973 -0.5209  2.2206
  115OSM   H16G12098   4.243   5.212   8.035  0.2076  2.7142 -0.8389
  115OSM   C17F12099   4.205   5.369   8.171  0.2570  0.0867 -0.3773
  115OSM   H17F12100   4.297   5.373   8.233 -0.6430  1.3981  0.9455
  115OSM   H17G12101   4.114   5.405   8.223  0.5896  1.5874 -0.7889
  115OSM   C18F12102   4.232   5.461   8.054 -0.5064 -0.2863  0.4884
  115OSM   H18F12103   4.153   5.452   7.977 -1.7306  0.7366  1.5594
  115OSM   H18G12104   4.336   5.454   8.018  0.6490  0.7396  3.3387
  115OSM   H18H12105   4.219   5.565   8.090  3.0359  0.8973 -1.2618
  116OSM      N12106   6.474   2.364  11.045  0.1020  0.6507 -0.5869
  116OSM    C1512107   6.594   2.310  11.110  0.2607  0.3360 -0.6268
  116OSM   H15A12108   6.598   2.204  11.131 -2.3579  0.2717 -0.1699
  116OSM   H15B12109   6.606   2.360  11.205 -3.3587 -1.0927  0.7626
  116OSM   H15C12110   6.681   2.336  11.050  1.0011  0.7931  0.6143
  116OSM    C1412111   6.435   2.273  10.930  0.3927 -0.3356 -0.4122
  116OSM   H14A12112   6.405   2.173  10.957  0.1703 -0.2540 -0.3550
  116OSM   H14B12113   6.516   2.268  10.858 -0.3220 -2.9728 -1.1400
  116OSM   H14C12114   6.342   2.310  10.889 -2.1648 -2.1773  3.2165
  116OSM    C1312115   6.358   2.359  11.144 -0.0399 -0.2897  0.1775
  116OSM   H13A12116   6.384   2.410  11.236 -0.8443  0.4007  0.0301
  116OSM   H13B12117   6.327   2.258  11.166 -1.2665 -0.6701 -2.7644
  116OSM   H13C12118   6.268   2.408  11.110 -0.6795 -1.1176  0.6435
  116OSM    C1212119   6.496   2.504  10.994  0.0715  0.3525  0.6723
  116OSM   H12A12120   6.496   2.569  11.080 -1.9283  2.1702 -0.6124
  116OSM   H12B12121   6.411   2.534  10.934  0.2917  2.5753  1.3863
  116OSM    C1112122   6.634   2.525  10.917 -0.1044 -0.7773  0.1587
  116OSM   H11A12123   6.636   2.616  10.854 -0.3224 -1.3121 -0.6343
  116OSM   H11B12124   6.643   2.434  10.853  0.3253 -0.2734 -0.5085
  116OSM      P12125   6.785   2.649  11.102 -0.3116  0.1424 -0.2802
  116OSM    O1312126   6.672   2.692  11.190  0.7174  0.1296 -0.5589
  116OSM    O1412127   6.919   2.625  11.161 -0.6806  0.3660  0.7493
  116OSM    O1112128   6.795   2.770  10.997  0.2366 -0.3445  0.1642
  116OSM    O1212129   6.746   2.527  11.008  0.6324  0.0537 -0.0123
  116OSM    C1S12130   6.908   2.782  10.916 -0.6753  0.0693  0.4418
  116OSM    H1S12131   6.984   2.707  10.948 -0.7060  1.0814  3.1951
  116OSM    H1T12132   6.956   2.881  10.929 -1.0154  0.1761  0.9120
  116OSM     NF12133   6.996   2.777  10.677  0.0638 -0.0260 -0.0548
  116OSM    HNF12134   7.021   2.864  10.635  1.2135 -0.0699  0.4957
  116OSM    C2S12135   6.870   2.772  10.764  0.0784 -0.7433  1.0928
  116OSM    H2S12136   6.818   2.678  10.737  0.4087 -0.5958 -0.1281
  116OSM    C3S12137   6.766   2.888  10.733 -0.6960 -0.4236 -1.1688
  116OSM    H3S12138   6.815   2.982  10.765 -2.3373  0.3088 -0.7203
  116OSM     O312139   6.644   2.879  10.810  0.0259 -0.1913 -0.2162
  116OSM    HO312140   6.675   2.819  10.879 -0.1202 -1.4357 -1.2037
  116OSM    C4S12141   6.736   2.901  10.581 -0.2107  0.2760 -0.5370
  116OSM    H4S12142   6.702   2.805  10.540 -2.4379 -0.3989  2.5374
  116OSM    C5S12143   6.748   3.005  10.492 -0.1742  0.0300  1.4002
  116OSM    H5S12144   6.803   3.091  10.530  1.6379 -0.6312  0.3831
  116OSM    C6S12145   6.705   3.004  10.343 -0.2961 -0.3149 -0.1707
  116OSM    H6S12146   6.761   2.915  10.305  0.2520  0.2603 -0.7441
  116OSM    H6T12147   6.751   3.087  10.284  0.3041  0.4091  1.2735
  116OSM    C7S12148   6.554   3.006  10.323  0.0929 -0.0213 -0.2718
  116OSM    H7S12149   6.528   3.108  10.357  2.5635  1.3508 -2.1425
  116OSM    H7T12150   6.497   2.923  10.371  0.0613  0.3574  0.3508
  116OSM    C8S12151   6.512   3.009  10.166 -0.0437 -0.1386  0.1169
  116OSM    H8S12152   6.555   3.101  10.123  1.9833 -0.8221  0.5580
  116OSM    H8T12153   6.404   3.035  10.166  0.6656  3.2734 -0.9778
  116OSM    C9S12154   6.554   2.889  10.078  0.6667  0.0472 -0.3552
  116OSM    H9S12155   6.532   2.797  10.136  1.3795  0.1838  0.1564
  116OSM    H9T12156   6.665   2.884  10.070  0.6310 -1.2530 -0.1547
  116OSM   C10S12157   6.492   2.879   9.938 -0.6004 -0.0426 -0.2294
  116OSM   H10S12158   6.492   2.976   9.883  1.5674 -0.3291 -0.8412
  116OSM   H10T12159   6.385   2.850   9.951 -0.5948  0.3151  0.6182
  116OSM   C11S12160   6.561   2.761   9.871  0.1189  0.1226  0.5423
  116OSM   H11S12161   6.538   2.664   9.919 -1.2021  1.1973  2.2166
  116OSM   H11T12162   6.669   2.786   9.871 -0.4625  3.6611 -2.5796
  116OSM   C12S12163   6.528   2.748   9.724 -0.2714 -0.5112  0.0289
  116OSM   H12S12164   6.570   2.840   9.677 -1.0833  0.4215  1.0991
  116OSM   H12T12165   6.419   2.731   9.717 -0.2352 -0.7207 -0.0558
  116OSM   C13S12166   6.593   2.624   9.670 -0.0590  0.4597 -0.1404
  116OSM   H13S12167   6.556   2.545   9.739  0.2851  1.7780  1.6439
  116OSM   H13T12168   6.704   2.625   9.671 -0.0117 -0.4253 -1.6662
  116OSM   C14S12169   6.549   2.580   9.531  0.7870  0.1528 -0.0467
  116OSM   H14S12170   6.440   2.557   9.525  1.4700 -3.2972 -2.3890
  116OSM   H14T12171   6.596   2.482   9.507  0.4689  0.3028 -1.3864
  116OSM   C15S12172   6.579   2.681   9.420 -0.2876 -0.3514  0.0718
  116OSM   H15S12173   6.688   2.703   9.417 -0.1145 -1.0445  0.8052
  116OSM   H15T12174   6.518   2.768   9.449 -1.8334 -1.6632  0.9441
  116OSM   C16S12175   6.540   2.631   9.275  0.1392 -0.1130  0.3555
  116OSM   H16S12176   6.437   2.589   9.281  0.0046 -0.0551 -1.1755
  116OSM   H16T12177   6.611   2.547   9.262  1.1841  0.6558  1.0019
  116OSM   C17S12178   6.540   2.734   9.166 -0.1430 -0.3415  0.4617
  116OSM   H17S12179   6.638   2.786   9.158  0.0376 -0.7145  0.1869
  116OSM   H17T12180   6.465   2.811   9.195  0.6018 -0.2559  2.2904
  116OSM   C18S12181   6.491   2.675   9.030  0.2268 -0.6717 -0.0338
  116OSM   H18S12182   6.577   2.614   8.995 -0.0692 -1.7776  1.1005
  116OSM   H18T12183   6.466   2.752   8.955 -0.1056 -1.6490 -0.9477
  116OSM   H18U12184   6.403   2.610   9.043  0.2018 -0.4340  1.1066
  116OSM    C1F12185   7.078   2.673  10.692  1.3496  0.2308  0.2705
  116OSM     OF12186   7.054   2.580  10.768  0.3128 -0.0363 -0.2510
  116OSM    C2F12187   7.198   2.675  10.612  0.1771 -0.1720  0.0631
  116OSM    H2F12188   7.279   2.662  10.687  0.0551 -0.1612  0.1973
  116OSM    H2G12189   7.205   2.776  10.567 -0.0904 -0.5140 -0.7530
  116OSM    C3F12190   7.199   2.556  10.520  0.1549 -0.6346 -0.2329
  116OSM    H3F12191   7.204   2.472  10.592 -2.2419  1.0053  2.0676
  116OSM    H3G12192   7.300   2.563  10.476 -0.5617  0.8302 -1.7668
  116OSM    C4F12193   7.088   2.552  10.408 -0.5292  0.1855 -0.4117
  116OSM    H4F12194   6.984   2.566  10.444 -0.1741 -0.4352  0.9134
  116OSM    H4G12195   7.086   2.445  10.380 -0.7999 -0.2421  1.1500
  116OSM    C5F12196   7.118   2.640  10.281 -0.7649  0.3867 -0.1425
  116OSM    H5F12197   7.222   2.637  10.243 -0.8644  1.2573 -0.4890
  116OSM    H5G12198   7.091   2.745  10.304 -0.1393  0.5446 -0.1277
  116OSM    C6F12199   7.038   2.594  10.162 -0.1802  0.7110 -0.0670
  116OSM    H6F12200   6.953   2.535  10.203  2.6990 -2.3228  2.0086
  116OSM    H6G12201   7.100   2.531  10.095  1.1127  0.3439  1.4291
  116OSM    C7F12202   6.982   2.714  10.083  0.0461 -0.5271 -1.1298
  116OSM    H7F12203   7.070   2.775  10.055  0.3994 -0.5930 -0.1896
  116OSM    H7G12204   6.924   2.784  10.148  1.0800  2.2333 -2.9801
  116OSM    C8F12205   6.907   2.683   9.953  0.5613 -0.2029 -1.1693
  116OSM    H8F12206   6.857   2.776   9.919 -1.6617 -0.9404 -0.0879
  116OSM    H8G12207   6.829   2.606   9.972  1.1967 -0.9248 -1.4266
  116OSM    C9F12208   6.996   2.623   9.850 -0.4863 -0.1540 -0.5040
  116OSM    H9F12209   7.031   2.522   9.876 -1.1934 -0.4494 -0.6848
  116OSM   C10F12210   7.014   2.663   9.722 -0.1251 -0.1024  0.2106
  116OSM   H10F12211   7.080   2.600   9.660 -1.1652 -1.2522  0.2272
  116OSM   C11F12212   6.963   2.799   9.670 -0.9903  0.1890 -0.2109
  116OSM   H11F12213   6.982   2.877   9.747 -0.7562  0.3248 -0.4032
  116OSM   H11G12214   6.856   2.793   9.641 -0.4731 -1.2908 -2.0288
  116OSM   C12F12215   7.036   2.841   9.543  0.3991  0.1566 -0.4266
  116OSM   H12F12216   7.145   2.840   9.566  0.1272  0.0766  0.9399
  116OSM   H12G12217   7.012   2.948   9.522  0.7939  0.2735 -0.2977
  116OSM   C13F12218   7.000   2.767   9.415  0.0073 -0.6297  0.4321
  116OSM   H13F12219   6.902   2.796   9.371  0.5985  0.8625  0.0213
  116OSM   H13G12220   6.991   2.665   9.456  1.2712 -1.2040 -0.6441
  116OSM   C14F12221   7.120   2.762   9.315  0.2549  0.1827  0.1683
  116OSM   H14F12222   7.207   2.752   9.383 -1.2173  0.2493  2.1898
  116OSM   H14G12223   7.116   2.850   9.248 -1.9051 -1.7634 -2.4798
  116OSM   C15F12224   7.103   2.636   9.216 -0.1114  0.2674 -0.5422
  116OSM   H15F12225   7.103   2.542   9.275 -0.7848  0.5108 -0.1433
  116OSM   H15G12226   7.200   2.637   9.162  0.1224  3.7005 -0.2885
  116OSM   C16F12227   6.984   2.657   9.130 -0.0160  0.3588 -0.5686
  116OSM   H16F12228   6.891   2.661   9.192  0.5230  1.9762  0.1825
  116OSM   H16G12229   6.980   2.571   9.060  4.5965  0.5596 -1.3534
  116OSM   C17F12230   6.967   2.788   9.044 -0.3623  0.4121 -0.0899
  116OSM   H17F12231   7.067   2.818   9.006  0.3993 -2.2575 -0.4574
  116OSM   H17G12232   6.936   2.877   9.102  1.1983  1.1399 -0.3190
  116OSM   C18F12233   6.868   2.767   8.923  0.1807  0.3691 -0.1974
  116OSM   H18F12234   6.775   2.717   8.959  0.8740 -1.0724 -0.3338
  116OSM   H18G12235   6.900   2.698   8.843 -2.2550  2.5997 -3.3313
  116OSM   H18H12236   6.854   2.861   8.867  1.5377  0.5862 -0.1938
  117OSM      N12237   4.409   2.427  11.132  0.2053 -0.4922  0.2000
  117OSM    C1512238   4.277   2.399  11.195  0.1682 -0.2188 -0.0512
  117OSM   H15A12239   4.285   2.368  11.298 -0.8174  0.8494  0.3576
  117OSM   H15B12240   4.223   2.323  11.141  0.3278  0.6598 -1.4751
  117OSM   H15C12241   4.212   2.485  11.187  0.5060  0.2036  1.4739
  117OSM    C1412242   4.485   2.534  11.204 -0.1865  0.4238 -0.1386
  117OSM   H14A12243   4.574   2.560  11.150 -0.1943 -0.4867 -0.6159
  117OSM   H14B12244   4.521   2.478  11.290  0.8033 -0.5415 -1.1518
  117OSM   H14C12245   4.418   2.609  11.244 -0.2877 -0.5850  1.7384
  117OSM    C1312246   4.489   2.302  11.135  0.0575  0.3967 -0.3539
  117OSM   H13A12247   4.430   2.221  11.096  1.6979 -0.5266 -1.0235
  117OSM   H13B12248   4.510   2.283  11.239 -1.2867 -2.0650 -0.4755
  117OSM   H13C12249   4.584   2.321  11.086  0.7025 -0.7109  0.4264
  117OSM    C1212250   4.387   2.472  10.987  0.1506  0.3469  0.9100
  117OSM   H12A12251   4.483   2.514  10.962  0.7416 -0.7947  1.1659
  117OSM   H12B12252   4.310   2.547  10.981  1.0668  1.2736  0.5402
  117OSM    C1112253   4.336   2.362  10.879  0.4605  0.2380 -0.1628
  117OSM   H11A12254   4.400   2.271  10.881 -1.2645 -1.0195  1.1430
  117OSM   H11B12255   4.340   2.401  10.775 -0.7482 -1.9306 -1.0906
  117OSM      P12256   4.077   2.423  10.883  0.1146  0.3672  0.1578
  117OSM    O1312257   3.967   2.380  10.970  0.0293  0.3753 -0.2862
  117OSM    O1412258   4.117   2.565  10.886 -0.1981  0.0729 -0.0145
  117OSM    O1112259   4.038   2.398  10.734  0.7597 -0.2008  0.0922
  117OSM    O1212260   4.201   2.328  10.911  0.5739  0.4323  0.1961
  117OSM    C1S12261   4.101   2.480  10.634 -0.3070 -0.2696 -0.1682
  117OSM    H1S12262   4.206   2.446  10.629 -0.4551 -0.6245 -1.0440
  117OSM    H1T12263   4.095   2.588  10.658  0.9692  0.0376 -1.1676
  117OSM     NF12264   4.134   2.497  10.389  0.2873 -0.5992 -0.2662
  117OSM    HNF12265   4.147   2.592  10.363  3.2582 -0.0594  2.5735
  117OSM    C2S12266   4.039   2.467  10.497  0.4570 -0.4261 -0.6287
  117OSM    H2S12267   4.018   2.359  10.484 -0.5597 -0.3116 -0.0322
  117OSM    C3S12268   3.903   2.537  10.479 -0.2279 -0.3998  0.0489
  117OSM    H3S12269   3.925   2.644  10.501  0.2287 -0.9585  2.7275
  117OSM     O312270   3.803   2.485  10.569  0.0461 -0.5431  0.0466
  117OSM    HO312271   3.842   2.421  10.629  1.3619  0.4547  0.3011
  117OSM    C4S12272   3.854   2.511  10.341 -0.0068  0.0344 -0.3381
  117OSM    H4S12273   3.839   2.405  10.318 -0.7121 -0.1435  0.8487
  117OSM    C5S12274   3.841   2.613  10.251  0.6261  0.4406  0.9238
  117OSM    H5S12275   3.861   2.717  10.281  1.4437  0.6541 -0.3184
  117OSM    C6S12276   3.781   2.589  10.113 -0.0776  0.5488  0.2948
  117OSM    H6S12277   3.844   2.650  10.045  1.8948  3.9568  4.6383
  117OSM    H6T12278   3.685   2.643  10.117 -0.5947 -0.3377  0.0951
  117OSM    C7S12279   3.772   2.442  10.066 -0.2229  0.3397  0.5923
  117OSM    H7S12280   3.692   2.389  10.121  1.1738 -1.0351  1.3856
  117OSM    H7T12281   3.868   2.391  10.091 -1.2115 -1.6724  0.4566
  117OSM    C8S12282   3.748   2.433   9.910 -0.9583  0.2869  0.1374
  117OSM    H8S12283   3.807   2.514   9.862  1.0771 -0.4060  1.3632
  117OSM    H8T12284   3.641   2.444   9.884 -0.8540  0.4916 -0.2004
  117OSM    C9S12285   3.773   2.299   9.845 -0.0283 -0.1048 -0.0444
  117OSM    H9S12286   3.719   2.220   9.903 -0.5503  0.4373  0.2176
  117OSM    H9T12287   3.881   2.277   9.843  0.4374  1.7971  1.5149
  117OSM   C10S12288   3.736   2.304   9.699 -0.1332  0.2426  0.2367
  117OSM   H10S12289   3.774   2.394   9.646 -0.8859 -0.8702 -2.3656
  117OSM   H10T12290   3.631   2.308   9.665  0.1273  0.2314 -0.6028
  117OSM   C11S12291   3.783   2.176   9.631  0.3406 -0.2283  0.4664
  117OSM   H11S12292   3.762   2.090   9.699  0.5432  1.5033  2.8438
  117OSM   H11T12293   3.892   2.170   9.610  0.7531 -0.8428  2.5904
  117OSM   C12S12294   3.711   2.146   9.491 -0.4269 -0.0659  0.8240
  117OSM   H12S12295   3.726   2.242   9.436  1.0256  0.4250  1.9906
  117OSM   H12T12296   3.604   2.120   9.507 -1.0338  1.2885 -0.7668
  117OSM   C13S12297   3.794   2.036   9.418 -0.0145  0.7833 -0.1096
  117OSM   H13S12298   3.780   1.935   9.461 -1.1456  0.8277 -0.3224
  117OSM   H13T12299   3.902   2.054   9.433  0.0093 -0.2681  1.1662
  117OSM   C14S12300   3.763   2.037   9.265 -1.2675  0.2024 -0.7346
  117OSM   H14S12301   3.791   2.141   9.241  1.0158  0.2375  1.5645
  117OSM   H14T12302   3.657   2.015   9.243 -1.1384 -2.3257  0.7228
  117OSM   C15S12303   3.850   1.935   9.190  0.4308  0.3561  0.2654
  117OSM   H15S12304   3.863   1.838   9.242  0.4121 -0.6260 -1.4888
  117OSM   H15T12305   3.953   1.975   9.182  1.2806 -1.6584  0.5593
  117OSM   C16S12306   3.822   1.897   9.045 -0.1606  0.1508  0.0396
  117OSM   H16S12307   3.831   1.989   8.983  0.6107 -0.1702 -0.3353
  117OSM   H16T12308   3.721   1.853   9.035 -0.2563 -0.0454  1.6463
  117OSM   C17S12309   3.918   1.792   8.989 -0.6118  0.2636 -0.1640
  117OSM   H17S12310   3.919   1.705   9.058  0.6189 -0.1297 -0.6301
  117OSM   H17T12311   4.016   1.845   8.997 -0.1015 -0.7668  0.7486
  117OSM   C18S12312   3.886   1.751   8.844 -0.0626  0.4186  0.0904
  117OSM   H18S12313   3.966   1.682   8.813  0.6699  1.5018 -0.5095
  117OSM   H18T12314   3.880   1.835   8.771 -0.3066 -1.3954 -2.0943
  117OSM   H18U12315   3.788   1.702   8.826 -0.9983  2.2608 -0.1028
  117OSM    C1F12316   4.232   2.411  10.355 -0.2015 -0.2663 -0.1145
  117OSM     OF12317   4.218   2.294  10.386  0.5780  0.1308  0.0291
  117OSM    C2F12318   4.348   2.464  10.277  0.9297 -0.0099 -0.1870
  117OSM    H2F12319   4.368   2.563  10.322 -1.2694 -0.5728  2.2435
  117OSM    H2G12320   4.324   2.477  10.169  3.2925 -0.7733 -0.8548
  117OSM    C3F12321   4.472   2.383  10.296 -0.8606  0.5052  0.1883
  117OSM    H3F12322   4.450   2.275  10.284  1.5971 -0.2316  1.6428
  117OSM    H3G12323   4.513   2.398  10.398  1.7927 -0.0277 -0.7219
  117OSM    C4F12324   4.581   2.427  10.186 -0.1260  0.3482  0.3356
  117OSM    H4F12325   4.664   2.356  10.207 -0.5535  0.4003  2.3685
  117OSM    H4G12326   4.617   2.528  10.214  0.5750 -0.3953  2.2261
  117OSM    C5F12327   4.539   2.420  10.030 -0.6993  0.5269 -0.1228
  117OSM    H5F12328   4.464   2.494   9.997 -2.3250 -1.7702 -1.9098
  117OSM    H5G12329   4.502   2.317  10.008  1.1938 -0.4190  0.8505
  117OSM    C6F12330   4.668   2.443   9.946 -0.5796  0.0791 -0.1866
  117OSM    H6F12331   4.741   2.372   9.992  0.2917  1.1857  0.1968
  117OSM    H6G12332   4.723   2.536   9.974  2.4327 -2.2609  2.4052
  117OSM    C7F12333   4.656   2.416   9.797 -0.1106 -0.2824 -0.3239
  117OSM    H7F12334   4.612   2.508   9.755  0.0924  1.2966  2.6380
  117OSM    H7G12335   4.583   2.334   9.780 -0.8895  0.5100 -0.8680
  117OSM    C8F12336   4.784   2.373   9.736 -0.3102  0.0765 -0.2657
  117OSM    H8F12337   4.752   2.334   9.637 -1.2924 -2.6076  0.9985
  117OSM    H8G12338   4.832   2.289   9.791  0.0671  2.0461  2.6751
  117OSM    C9F12339   4.872   2.497   9.728 -0.0588 -0.2727 -0.3699
  117OSM    H9F12340   4.929   2.513   9.821 -0.4466 -0.3520 -0.1177
  117OSM   C10F12341   4.892   2.590   9.637 -0.0461  0.3108  0.3065
  117OSM   H10F12342   4.972   2.665   9.640 -0.5968  1.0057 -1.1609
  117OSM   C11F12343   4.826   2.584   9.500  0.4076  0.3305 -0.5130
  117OSM   H11F12344   4.790   2.687   9.480  0.6973  0.4585 -0.3795
  117OSM   H11G12345   4.737   2.517   9.502  1.3725 -1.0222 -1.0109
  117OSM   C12F12346   4.926   2.531   9.397  0.2275  0.1164  0.6318
  117OSM   H12F12347   4.946   2.424   9.417  0.4399 -0.3468 -1.7178
  117OSM   H12G12348   5.024   2.584   9.389  0.4004 -0.4446 -1.9309
  117OSM   C13F12349   4.865   2.545   9.254  0.6857 -0.6164 -0.3514
  117OSM   H13F12350   4.795   2.631   9.246  1.3049 -0.0800 -0.1147
  117OSM   H13G12351   4.790   2.464   9.257 -3.1599  2.6033 -0.9219
  117OSM   C14F12352   4.962   2.540   9.139 -0.2798  0.3622 -0.3006
  117OSM   H14F12353   5.027   2.453   9.164 -0.0031  0.4559 -0.6907
  117OSM   H14G12354   5.025   2.632   9.146  0.4311 -0.1220 -0.2261
  117OSM   C15F12355   4.912   2.519   9.004  0.8229  0.5564  0.4410
  117OSM   H15F12356   4.819   2.568   8.969  0.4876 -0.1931  0.2616
  117OSM   H15G12357   4.894   2.413   8.978 -3.6969  1.7008 -2.2121
  117OSM   C16F12358   5.018   2.560   8.904 -0.8060 -0.2751 -0.2470
  117OSM   H16F12359   5.115   2.508   8.917 -0.6831  0.1064  0.3685
  117OSM   H16G12360   5.033   2.670   8.912 -1.8839  0.0905 -2.4557
  117OSM   C17F12361   4.984   2.548   8.756  0.0753  0.1387  0.0592
  117OSM   H17F12362   4.918   2.634   8.729 -1.5534 -1.4743 -1.4388
  117OSM   H17G12363   4.931   2.454   8.729  0.0747  0.4425 -1.0508
  117OSM   C18F12364   5.106   2.556   8.665  0.2252 -0.3265 -0.6373
  117OSM   H18F12365   5.081   2.575   8.558  0.5494 -1.1791 -0.8753
  117OSM   H18G12366   5.169   2.464   8.665  3.4156  1.6827 -0.2024
  117OSM   H18H12367   5.162   2.647   8.694  0.9334 -1.2007  0.8769
  118OSM      N12368   3.687   3.248  10.565  0.4452 -0.6748 -0.3874
  118OSM    C1512369   3.790   3.320  10.651 -0.3609 -0.5878 -0.7653
  118OSM   H15A12370   3.759   3.351  10.750  0.8857  0.8458 -0.7818
  118OSM   H15B12371   3.811   3.417  10.611 -0.4094 -0.1036  0.3417
  118OSM   H15C12372   3.881   3.262  10.654  0.4019  0.4396 -2.7405
  118OSM    C1412373   3.611   3.136  10.634 -0.4041 -0.0275  0.2118
  118OSM   H14A12374   3.677   3.054  10.659  0.3366  0.2561 -0.7677
  118OSM   H14B12375   3.522   3.121  10.575 -0.1131  0.4227 -0.3495
  118OSM   H14C12376   3.572   3.167  10.730 -1.1799  0.4987 -0.2607
  118OSM    C1312377   3.583   3.352  10.531  0.2907 -0.0369 -0.9014
  118OSM   H13A12378   3.624   3.439  10.483  0.1128  1.4789  1.5256
  118OSM   H13B12379   3.548   3.394  10.624  1.1992 -0.7663 -0.2042
  118OSM   H13C12380   3.503   3.313  10.470 -0.4870 -2.1874  1.2851
  118OSM    C1212381   3.739   3.193  10.439 -0.5023 -0.3338  0.6596
  118OSM   H12A12382   3.661   3.155  10.375  0.3590  1.4734 -1.6271
  118OSM   H12B12383   3.812   3.117  10.466  0.5262  1.2353  2.6008
  118OSM    C1112384   3.812   3.295  10.347 -0.3725 -0.8942  0.6341
  118OSM   H11A12385   3.877   3.250  10.270  0.4775  1.9756 -0.4362
  118OSM   H11B12386   3.884   3.365  10.394 -0.1716 -0.2542 -0.5996
  118OSM      P12387   3.724   3.513  10.230  0.0552 -0.1784 -0.0197
  118OSM    O1312388   3.614   3.559  10.148  0.6643 -0.4913 -0.6455
  118OSM    O1412389   3.759   3.583  10.352  0.3993  0.1651 -0.1628
  118OSM    O1112390   3.856   3.511  10.145 -0.1587 -0.0144  0.2401
  118OSM    O1212391   3.708   3.362  10.268  0.1066 -0.0474  0.4400
  118OSM    C1S12392   3.849   3.453  10.018  0.2518  0.2535  0.6332
  118OSM    H1S12393   3.763   3.385   9.999 -0.5861  1.0045  1.5606
  118OSM    H1T12394   3.933   3.383   9.999  1.1396  1.0008  1.6885
  118OSM     NF12395   3.770   3.523   9.791 -0.2220 -1.0522  0.0026
  118OSM    HNF12396   3.832   3.517   9.713  1.0409  0.2258  0.8435
  118OSM    C2S12397   3.838   3.570   9.912  0.4601  0.5458 -0.2177
  118OSM    H2S12398   3.777   3.646   9.965 -0.9154 -0.2930 -0.5303
  118OSM    C3S12399   3.975   3.637   9.892 -0.1536 -0.3861  0.7370
  118OSM    H3S12400   4.043   3.564   9.843 -0.2096  1.2533 -1.9762
  118OSM     O312401   4.034   3.673  10.015  0.1313 -0.8398 -0.3101
  118OSM    HO312402   3.972   3.652  10.086  1.3740 -2.4670  0.3738
  118OSM    C4S12403   3.958   3.755   9.794 -0.8097  0.7755 -0.1561
  118OSM    H4S12404   3.995   3.730   9.694 -1.7172 -1.6743  0.0575
  118OSM    C5S12405   3.922   3.882   9.807 -0.0487 -0.4782 -0.1997
  118OSM    H5S12406   3.894   3.914   9.909 -0.8734  0.0589 -0.5794
  118OSM    C6S12407   3.924   3.989   9.704 -0.3112 -0.9219  0.5818
  118OSM    H6S12408   4.004   4.062   9.729 -0.6603 -0.4920  0.4567
  118OSM    H6T12409   3.823   4.035   9.699 -0.6082 -1.6215 -0.2140
  118OSM    C7S12410   3.959   3.940   9.556  0.8149 -0.3533  0.0620
  118OSM    H7S12411   3.873   3.882   9.516  0.4074  0.2604  0.0360
  118OSM    H7T12412   4.049   3.876   9.559  1.2348  0.2603  1.4607
  118OSM    C8S12413   3.969   4.057   9.452  0.2222  0.1930  0.5825
  118OSM    H8S12414   4.033   4.144   9.480 -0.5743  1.0132 -0.1070
  118OSM    H8T12415   3.876   4.113   9.431  1.4669  2.3102  0.4005
  118OSM    C9S12416   4.022   4.004   9.316 -1.0476  0.1060  0.2934
  118OSM    H9S12417   3.957   3.926   9.270  0.1867 -0.6679 -0.1823
  118OSM    H9T12418   4.119   3.955   9.338 -1.5596 -0.5043  1.3101
  118OSM   C10S12419   4.043   4.108   9.205  0.6815  0.3704  1.0920
  118OSM   H10S12420   4.131   4.172   9.228 -2.0757  5.2457 -0.6659
  118OSM   H10T12421   3.952   4.170   9.206 -0.3695 -1.1105  2.2495
  118OSM   C11S12422   4.062   4.045   9.064 -0.2434  0.1614 -0.1810
  118OSM   H11S12423   3.976   3.982   9.033 -1.2648  1.6403 -0.4733
  118OSM   H11T12424   4.147   3.975   9.076  0.1271  0.5905 -0.2766
  118OSM   C12S12425   4.094   4.150   8.955  0.8506  0.3378  0.0085
  118OSM   H12S12426   4.144   4.095   8.872  1.5632  0.6157  0.2454
  118OSM   H12T12427   4.161   4.235   8.982  0.3781  0.8280 -0.3580
  118OSM   C13S12428   3.960   4.207   8.912  0.4213 -0.6122 -0.1573
  118OSM   H13S12429   3.909   4.223   9.010  0.6174 -2.3994  0.2763
  118OSM   H13T12430   3.897   4.136   8.855 -1.6235  1.6019 -0.8282
  118OSM   C14S12431   3.967   4.333   8.825 -0.3766  0.2953  0.3838
  118OSM   H14S12432   3.998   4.418   8.890  0.0813  0.9456 -0.6521
  118OSM   H14T12433   3.866   4.347   8.781 -0.7696  0.1841  1.2219
  118OSM   C15S12434   4.049   4.325   8.698  0.1991  0.0464  0.1718
  118OSM   H15S12435   4.000   4.266   8.617 -2.2083  1.7517  0.2699
  118OSM   H15T12436   4.154   4.294   8.720  0.7007 -0.2880 -2.3512
  118OSM   C16S12437   4.072   4.464   8.631  0.3784  0.6148 -0.6770
  118OSM   H16S12438   4.146   4.455   8.549  0.4719 -1.1468 -0.4369
  118OSM   H16T12439   4.087   4.551   8.698  0.9083  0.1886 -0.2367
  118OSM   C17S12440   3.943   4.497   8.556  0.1766  0.1553 -0.6574
  118OSM   H17S12441   3.859   4.475   8.625  0.6859 -1.2526 -0.4356
  118OSM   H17T12442   3.944   4.440   8.460 -0.5666 -0.7057 -0.1653
  118OSM   C18S12443   3.922   4.652   8.531  0.2855 -0.1557 -0.2934
  118OSM   H18S12444   3.954   4.697   8.627  1.7524  0.0060 -0.8212
  118OSM   H18T12445   3.815   4.669   8.507  0.0955 -0.0328  0.6054
  118OSM   H18U12446   4.003   4.690   8.464  1.1669 -2.1318 -0.4096
  118OSM    C1F12447   3.643   3.487   9.774 -0.0774 -0.8066 -0.0745
  118OSM     OF12448   3.555   3.500   9.860  0.0908  0.7925 -0.1970
  118OSM    C2F12449   3.618   3.418   9.645 -0.5573 -0.1621 -0.3998
  118OSM    H2F12450   3.714   3.392   9.596 -0.6262 -2.1895  0.4241
  118OSM    H2G12451   3.569   3.494   9.581  0.8806  1.7596  0.7090
  118OSM    C3F12452   3.528   3.289   9.662  0.4458 -0.3991  0.1985
  118OSM    H3F12453   3.438   3.306   9.726 -0.4448 -1.7648 -0.6388
  118OSM    H3G12454   3.586   3.212   9.716  1.5546  0.5657  0.4249
  118OSM    C4F12455   3.471   3.234   9.525 -0.4776 -0.5062 -1.2233
  118OSM    H4F12456   3.398   3.309   9.490 -2.1825 -0.8029  1.4093
  118OSM    H4G12457   3.416   3.146   9.564 -0.2620 -0.3618 -0.5684
  118OSM    C5F12458   3.565   3.193   9.416 -0.4923 -0.3744 -0.6502
  118OSM    H5F12459   3.623   3.099   9.428 -1.1867 -0.9756 -1.8110
  118OSM    H5G12460   3.646   3.266   9.400  1.0266 -1.8150  0.2011
  118OSM    C6F12461   3.494   3.176   9.281  0.0534 -0.6786  0.0938
  118OSM    H6F12462   3.444   3.272   9.254  0.5705  0.1403  1.8879
  118OSM    H6G12463   3.411   3.104   9.300 -0.9002 -0.1829 -1.8639
  118OSM    C7F12464   3.591   3.121   9.176  0.6894 -1.0820  0.7434
  118OSM    H7F12465   3.653   3.037   9.216  2.5861 -1.2411 -2.2102
  118OSM    H7G12466   3.659   3.203   9.146  1.7145 -1.9142  0.7123
  118OSM    C8F12467   3.520   3.068   9.050 -1.1697 -0.1771 -0.0700
  118OSM    H8F12468   3.457   3.144   8.999 -1.7068 -1.8633 -2.0468
  118OSM    H8G12469   3.454   2.987   9.087 -0.2615 -0.0574  1.9939
  118OSM    C9F12470   3.625   3.000   8.962  0.1543 -0.6087  0.1909
  118OSM    H9F12471   3.712   2.957   9.012  0.6949 -0.4582 -0.6014
  118OSM   C10F12472   3.609   2.985   8.830  0.7853 -0.2649 -0.2158
  118OSM   H10F12473   3.696   2.938   8.781  2.3392  1.4410  0.7927
  118OSM   C11F12474   3.497   3.050   8.751 -1.4726 -0.8974  0.2578
  118OSM   H11F12475   3.464   3.144   8.801  2.7715  0.5258  0.8000
  118OSM   H11G12476   3.415   2.975   8.743  0.3319 -3.0230  0.6364
  118OSM   C12F12477   3.540   3.071   8.600  0.4470 -0.5355  0.2487
  118OSM   H12F12478   3.633   3.128   8.579 -1.3780  2.5152 -0.1440
  118OSM   H12G12479   3.451   3.111   8.546  0.7199 -1.5779 -1.0340
  118OSM   C13F12480   3.560   2.933   8.520  0.1483  0.0938  0.0404
  118OSM   H13F12481   3.473   2.868   8.544  1.2741 -1.6506 -0.4115
  118OSM   H13G12482   3.653   2.881   8.553  0.9988  0.9849 -0.8462
  118OSM   C14F12483   3.578   2.957   8.369 -0.7597  0.5302 -0.5769
  118OSM   H14F12484   3.644   3.044   8.351 -1.4974  1.0096 -1.0124
  118OSM   H14G12485   3.477   2.989   8.337 -1.5486  3.1462  3.7967
  118OSM   C15F12486   3.621   2.841   8.270 -0.0670  0.2510  0.0331
  118OSM   H15F12487   3.723   2.810   8.303  0.8176  1.5303 -1.3598
  118OSM   H15G12488   3.653   2.885   8.173  0.7531  1.8778  1.0006
  118OSM   C16F12489   3.525   2.720   8.255  0.0225 -0.6101 -0.7405
  118OSM   H16F12490   3.421   2.757   8.243 -0.2304 -0.5477  1.3339
  118OSM   H16G12491   3.538   2.665   8.350 -2.2784  0.7268  0.4119
  118OSM   C17F12492   3.553   2.635   8.132 -0.1832 -0.0667 -0.2278
  118OSM   H17F12493   3.657   2.595   8.135 -0.0673  0.2151  3.0494
  118OSM   H17G12494   3.547   2.699   8.041 -0.4004 -1.4714 -1.2391
  118OSM   C18F12495   3.454   2.518   8.107 -0.3633  0.1298 -0.3089
  118OSM   H18F12496   3.458   2.469   8.008 -2.1279 -2.0333  0.5979
  118OSM   H18G12497   3.355   2.565   8.125 -0.4433  0.1934 -0.9159
  118OSM   H18H12498   3.474   2.438   8.181  1.7067 -1.5000 -2.4990
  119OSM      N12499   4.998   4.443  10.377 -0.6026  0.2793 -0.4271
  119OSM    C1512500   5.125   4.441  10.457 -0.3886 -0.1405  0.7967
  119OSM   H15A12501   5.132   4.513  10.537 -0.7769 -0.8173  1.4528
  119OSM   H15B12502   5.219   4.446  10.406 -1.0129 -1.0615 -0.4937
  119OSM   H15C12503   5.130   4.342  10.501  0.6581 -0.7435 -0.6009
  119OSM    C1412504   4.879   4.432  10.470 -0.0377  0.7754 -0.5822
  119OSM   H14A12505   4.794   4.395  10.416 -0.3997  0.0173  0.4667
  119OSM   H14B12506   4.864   4.516  10.537 -0.1602 -0.6781  1.3161
  119OSM   H14C12507   4.887   4.357  10.547 -0.5025  0.9315 -0.3790
  119OSM    C1312508   4.985   4.571  10.304  0.9661  0.3323 -0.2365
  119OSM   H13A12509   4.914   4.564  10.222  2.1500 -0.9733 -1.1920
  119OSM   H13B12510   5.079   4.583  10.252  0.7439 -3.5307 -1.8520
  119OSM   H13C12511   4.977   4.651  10.375  3.4715  0.8069 -0.4018
  119OSM    C1212512   5.007   4.331  10.276  0.7271  0.1514  0.5815
  119OSM   H12A12513   5.023   4.246  10.340  1.1461  0.2328  0.5832
  119OSM   H12B12514   5.094   4.350  10.216 -0.2588 -0.0069 -0.9597
  119OSM    C1112515   4.895   4.292  10.179 -0.2556 -0.3780 -0.7919
  119OSM   H11A12516   4.925   4.209  10.112 -0.1940 -0.0652 -1.1612
  119OSM   H11B12517   4.875   4.382  10.115  1.1256 -0.1572 -0.9571
  119OSM      P12518   4.767   4.118  10.317 -0.0907  0.1197  0.0753
  119OSM    O1312519   4.896   4.073  10.369  0.2776  0.3187  0.4185
  119OSM    O1412520   4.655   4.113  10.407  0.3057 -0.2866 -0.8032
  119OSM    O1112521   4.723   4.028  10.204  0.1891 -0.2085 -0.1127
  119OSM    O1212522   4.770   4.260  10.244 -0.0264 -0.2909 -0.1856
  119OSM    C1S12523   4.601   4.052  10.131  0.2885 -0.5502  0.4784
  119OSM    H1S12524   4.603   4.147  10.074 -1.5759 -0.1402  1.0364
  119OSM    H1T12525   4.511   4.060  10.196  0.1433 -0.0221  0.2154
  119OSM     NF12526   4.446   3.999   9.948  0.3918  1.0366 -0.3374
  119OSM    HNF12527   4.351   3.973   9.964  0.0349  1.7663 -1.1416
  119OSM    C2S12528   4.555   3.951  10.030 -0.6177 -0.3177 -0.1041
  119OSM    H2S12529   4.644   3.940   9.965  0.5664 -0.5560  1.4882
  119OSM    C3S12530   4.539   3.815  10.096  0.2871  0.2664  0.5271
  119OSM    H3S12531   4.443   3.816  10.152 -0.1817 -1.6675 -0.1403
  119OSM     O312532   4.634   3.768  10.191 -0.2423  0.2812 -0.1661
  119OSM    HO312533   4.698   3.840  10.195 -1.2650  1.2064  3.0703
  119OSM    C4S12534   4.516   3.709   9.985  0.3851  0.1385  0.2773
  119OSM    H4S12535   4.600   3.708   9.914  0.0505 -0.3755 -0.1148
  119OSM    C5S12536   4.408   3.625   9.989  0.1722  0.2286  0.2429
  119OSM    H5S12537   4.328   3.636  10.064 -1.4192  0.0839 -1.3496
  119OSM    C6S12538   4.377   3.522   9.884 -0.7424  0.0828 -0.1110
  119OSM    H6S12539   4.267   3.516   9.869 -1.4995  1.2035  3.7620
  119OSM    H6T12540   4.406   3.426   9.933  1.9386  0.3128 -1.0652
  119OSM    C7S12541   4.450   3.535   9.748 -0.1044 -0.3088 -0.3520
  119OSM    H7S12542   4.423   3.443   9.692 -1.2001 -1.5281  2.0368
  119OSM    H7T12543   4.561   3.541   9.752 -0.1154 -0.8218  0.9946
  119OSM    C8S12544   4.395   3.655   9.661  0.2112 -0.3764  0.4072
  119OSM    H8S12545   4.440   3.746   9.705 -2.0042  0.7310  0.4951
  119OSM    H8T12546   4.291   3.678   9.692  0.0019 -0.4003 -0.2741
  119OSM    C9S12547   4.431   3.633   9.512 -0.0147  0.4426  0.0063
  119OSM    H9S12548   4.380   3.539   9.479  0.9055 -0.4323  1.0054
  119OSM    H9T12549   4.539   3.620   9.495 -0.2404 -1.6276 -0.1250
  119OSM   C10S12550   4.406   3.751   9.412  0.5210 -0.5014 -0.4256
  119OSM   H10S12551   4.463   3.844   9.433 -1.4026  0.6202  0.0833
  119OSM   H10T12552   4.299   3.783   9.422 -0.6149 -3.9520 -0.3554
  119OSM   C11S12553   4.440   3.695   9.269 -0.2870 -0.1803  0.0567
  119OSM   H11S12554   4.376   3.605   9.252  2.1219 -1.8878 -0.4288
  119OSM   H11T12555   4.537   3.644   9.290 -1.2947 -1.5607  1.6990
  119OSM   C12S12556   4.450   3.780   9.146 -0.4640 -0.5645  0.2491
  119OSM   H12S12557   4.522   3.862   9.167 -0.0789 -0.9467  0.4427
  119OSM   H12T12558   4.352   3.820   9.113  0.3375 -0.6426 -2.4644
  119OSM   C13S12559   4.498   3.706   9.019  0.5884 -0.1470 -0.0989
  119OSM   H13S12560   4.564   3.621   9.048 -1.0394 -0.6424  2.5396
  119OSM   H13T12561   4.569   3.775   8.968  0.3920  1.5831  1.8605
  119OSM   C14S12562   4.390   3.669   8.924  0.1403  1.1028 -0.1052
  119OSM   H14S12563   4.334   3.760   8.895 -1.3944 -0.2738 -1.6632
  119OSM   H14T12564   4.316   3.607   8.979 -0.2956  3.9997  2.9430
  119OSM   C15S12565   4.427   3.608   8.789  0.4814 -0.3188  0.0044
  119OSM   H15S12566   4.513   3.661   8.743 -0.2756  2.2882  1.3953
  119OSM   H15T12567   4.346   3.600   8.714 -0.0758  0.2020  0.5298
  119OSM   C16S12568   4.482   3.464   8.810  0.2067 -0.4939 -0.4103
  119OSM   H16S12569   4.411   3.415   8.880  1.2935  1.4490  2.2295
  119OSM   H16T12570   4.582   3.465   8.860 -0.5978  0.2576  1.2843
  119OSM   C17S12571   4.500   3.401   8.670  0.0931  1.0538  0.3838
  119OSM   H17S12572   4.557   3.469   8.603 -0.1230 -0.2010 -1.1258
  119OSM   H17T12573   4.403   3.386   8.619  0.3709 -1.2395  0.4030
  119OSM   C18S12574   4.561   3.257   8.666 -0.2055 -0.0374  0.0433
  119OSM   H18S12575   4.549   3.202   8.571  2.5003  0.8890 -0.9180
  119OSM   H18T12576   4.522   3.192   8.748  0.7061 -0.3911  0.2079
  119OSM   H18U12577   4.669   3.275   8.685 -0.1574  0.6025 -0.7652
  119OSM    C1F12578   4.441   4.097   9.855 -0.6282 -0.0510 -0.6126
  119OSM     OF12579   4.542   4.156   9.833  0.3441  0.3566 -0.5419
  119OSM    C2F12580   4.306   4.135   9.802  0.2468 -1.3537 -0.1559
  119OSM    H2F12581   4.290   4.244   9.822  2.3885 -0.8864 -0.7351
  119OSM    H2G12582   4.232   4.076   9.861 -1.6145 -0.0546 -1.0598
  119OSM    C3F12583   4.282   4.105   9.653 -0.3523 -0.1542 -0.4069
  119OSM    H3F12584   4.185   4.148   9.620 -0.4454  1.7159  1.9451
  119OSM    H3G12585   4.282   3.994   9.646 -0.0143 -0.2137  0.3602
  119OSM    C4F12586   4.394   4.147   9.559  0.4955 -0.8201 -0.7434
  119OSM    H4F12587   4.486   4.091   9.585  0.6812  0.3750  1.4868
  119OSM    H4G12588   4.416   4.255   9.573  0.2511 -0.7642 -0.7914
  119OSM    C5F12589   4.367   4.127   9.414  0.2098 -0.0906  0.6751
  119OSM    H5F12590   4.287   4.201   9.395  0.8654  1.0414  2.1571
  119OSM    H5G12591   4.330   4.022   9.407 -3.1909  1.0889 -1.8381
  119OSM    C6F12592   4.489   4.157   9.328 -0.0308 -0.3090 -0.3110
  119OSM    H6F12593   4.554   4.067   9.337  2.4538  1.5387  1.9922
  119OSM    H6G12594   4.553   4.236   9.373 -0.1699 -0.0176 -0.6232
  119OSM    C7F12595   4.443   4.187   9.186 -0.3275  0.0052  0.1606
  119OSM    H7F12596   4.371   4.271   9.198 -0.4383 -0.3176  1.9796
  119OSM    H7G12597   4.384   4.095   9.163  0.8799 -0.6771 -0.3280
  119OSM    C8F12598   4.543   4.200   9.074 -0.3126  0.4035  0.3083
  119OSM    H8F12599   4.586   4.101   9.047 -1.7350 -0.5435  1.3798
  119OSM    H8G12600   4.626   4.267   9.107  1.9971 -3.0603  2.1624
  119OSM    C9F12601   4.481   4.269   8.958  0.5123  0.7129  0.2794
  119OSM    H9F12602   4.450   4.373   8.980  1.9049  0.7157  2.5695
  119OSM   C10F12603   4.451   4.218   8.840 -0.2881 -0.4174  0.1333
  119OSM   H10F12604   4.416   4.292   8.766 -0.5735  0.8277  1.4749
  119OSM   C11F12605   4.476   4.077   8.794  0.1864  0.2357 -0.3268
  119OSM   H11F12606   4.385   4.013   8.795  0.9270 -0.8530 -0.5473
  119OSM   H11G12607   4.546   4.026   8.864 -0.6619 -1.6365 -0.7846
  119OSM   C12F12608   4.535   4.078   8.659 -0.1116  1.1142  0.4377
  119OSM   H12F12609   4.631   4.131   8.646  0.4494  0.1551  0.6018
  119OSM   H12G12610   4.458   4.123   8.593 -0.7659  0.2421  0.5855
  119OSM   C13F12611   4.573   3.939   8.592 -0.2887  0.0155  1.1352
  119OSM   H13F12612   4.474   3.891   8.576  0.4284 -1.4597  0.9466
  119OSM   H13G12613   4.638   3.873   8.653 -0.7368  0.2834  1.9212
  119OSM   C14F12614   4.636   3.959   8.449 -0.5101  0.2362 -0.7533
  119OSM   H14F12615   4.664   3.857   8.413 -0.0981 -0.3617  1.1496
  119OSM   H14G12616   4.736   4.006   8.451 -0.4242  0.1309 -1.8555
  119OSM   C15F12617   4.532   4.012   8.349  0.0864 -0.3348  0.3808
  119OSM   H15F12618   4.492   4.110   8.383 -0.5230 -0.0076 -1.1992
  119OSM   H15G12619   4.448   3.940   8.338  0.3637 -0.5597 -0.3105
  119OSM   C16F12620   4.588   4.033   8.207 -0.3716 -0.2313  0.6776
  119OSM   H16F12621   4.589   3.940   8.146 -0.9983  0.6002 -0.6696
  119OSM   H16G12622   4.692   4.070   8.209 -0.4247  0.0634 -0.6947
  119OSM   C17F12623   4.499   4.140   8.127 -0.8814  0.1945 -1.0502
  119OSM   H17F12624   4.503   4.223   8.201  0.5972 -0.2073 -0.6384
  119OSM   H17G12625   4.399   4.094   8.137 -1.1440  1.0062  0.2145
  119OSM   C18F12626   4.542   4.165   7.989  0.4549  0.0977  0.4184
  119OSM   H18F12627   4.638   4.221   7.985 -0.1160  1.0801  0.4600
  119OSM   H18G12628   4.472   4.224   7.928  0.0513 -1.1556 -0.3700
  119OSM   H18H12629   4.554   4.070   7.931  1.0163  1.8067 -2.4480
  120OSM      N12630   4.431   6.286  10.710  0.1139 -0.2983 -0.3814
  120OSM    C1512631   4.538   6.281  10.817 -0.3863 -0.2643  0.1513
  120OSM   H15A12632   4.570   6.184  10.854  0.7372  0.7050  1.8382
  120OSM   H15B12633   4.509   6.321  10.913  1.4589  2.3194 -0.2799
  120OSM   H15C12634   4.629   6.320  10.775  0.1708 -1.6884 -0.0225
  120OSM    C1412635   4.319   6.189  10.745 -0.4269  0.1292  0.7746
  120OSM   H14A12636   4.264   6.219  10.833  0.3801  4.8731 -0.0449
  120OSM   H14B12637   4.357   6.089  10.755  2.3396  0.7807 -1.9195
  120OSM   H14C12638   4.246   6.182  10.666  1.6458  3.9857 -1.7845
  120OSM    C1312639   4.386   6.432  10.700 -0.2823 -0.7917  0.0656
  120OSM   H13A12640   4.460   6.490  10.647 -0.6796  0.1492  0.5255
  120OSM   H13B12641   4.375   6.468  10.801 -0.5719  0.6899 -0.4827
  120OSM   H13C12642   4.294   6.431  10.643 -0.4078  3.0358 -0.0532
  120OSM    C1212643   4.506   6.240  10.586  0.5944 -0.4650  0.3266
  120OSM   H12A12644   4.435   6.217  10.508  1.5918  1.0781 -1.1052
  120OSM   H12B12645   4.563   6.152  10.614  0.1833 -0.4485  1.2617
  120OSM    C1112646   4.605   6.334  10.516  0.6149  0.7479 -0.2072
  120OSM   H11A12647   4.555   6.411  10.454 -0.7416 -1.2358 -1.6917
  120OSM   H11B12648   4.652   6.263  10.445  1.6207  1.0825  0.1133
  120OSM      P12649   4.778   6.524  10.563 -0.0872  0.5453 -0.2110
  120OSM    O1312650   4.683   6.626  10.608 -0.1787  0.0660 -0.3141
  120OSM    O1412651   4.917   6.529  10.613  0.2337  0.5592 -0.4424
  120OSM    O1112652   4.789   6.512  10.406 -0.6740 -0.1362 -0.4163
  120OSM    O1212653   4.715   6.385  10.602 -0.9206 -0.0102 -0.4972
  120OSM    C1S12654   4.824   6.640  10.333 -0.4196  0.2093  0.4933
  120OSM    H1S12655   4.934   6.650  10.350 -0.5607  0.2504  1.4496
  120OSM    H1T12656   4.773   6.734  10.363  0.7439  0.4907  1.6773
  120OSM     NF12657   4.868   6.739  10.117 -0.2985  0.2295  0.4289
  120OSM    HNF12658   4.802   6.800  10.074 -2.1225 -1.3251  0.8524
  120OSM    C2S12659   4.802   6.628  10.180 -0.2183  0.3410  0.3835
  120OSM    H2S12660   4.845   6.533  10.143 -2.3947 -0.8278  0.6799
  120OSM    C3S12661   4.651   6.618  10.155 -0.2280 -0.8292  0.1826
  120OSM    H3S12662   4.607   6.710  10.198  1.6169  0.7986 -1.2120
  120OSM     O312663   4.594   6.502  10.208 -0.0881 -0.5002  0.5647
  120OSM    HO312664   4.667   6.458  10.253  2.4894 -1.0408 -3.5828
  120OSM    C4S12665   4.622   6.626  10.006 -1.1177  0.4176 -0.3837
  120OSM    H4S12666   4.645   6.535   9.949 -0.8394  0.6141 -0.5881
  120OSM    C5S12667   4.577   6.739   9.952 -0.1129  0.1812 -0.1267
  120OSM    H5S12668   4.564   6.828  10.016 -0.7388  2.0650 -2.7348
  120OSM    C6S12669   4.540   6.752   9.806 -0.2790  0.2180 -0.2786
  120OSM    H6S12670   4.430   6.747   9.792 -0.4798  0.3401  1.1218
  120OSM    H6T12671   4.584   6.663   9.755 -1.3795 -0.1130 -0.6731
  120OSM    C7S12672   4.605   6.887   9.761 -0.2940 -0.9762 -0.2058
  120OSM    H7S12673   4.714   6.888   9.785 -0.0346  1.4737 -1.2451
  120OSM    H7T12674   4.553   6.974   9.806  1.5186  0.8909 -1.5677
  120OSM    C8S12675   4.602   6.895   9.607 -0.1944  0.1919 -0.3610
  120OSM    H8S12676   4.512   6.841   9.570 -0.7323  0.3803  0.6545
  120OSM    H8T12677   4.687   6.835   9.567  0.5152  0.0868  1.2457
  120OSM    C9S12678   4.601   7.038   9.545  0.1572  1.3631  0.2747
  120OSM    H9S12679   4.701   7.077   9.577  1.9617 -1.5424 -1.3906
  120OSM    H9T12680   4.512   7.096   9.577 -2.0943 -1.4526 -0.5620
  120OSM   C10S12681   4.598   7.050   9.384  0.5874  1.1432 -0.6722
  120OSM   H10S12682   4.642   7.150   9.362 -2.1797  2.1163 -2.3368
  120OSM   H10T12683   4.491   7.071   9.361 -0.1537 -0.0936  1.4490
  120OSM   C11S12684   4.641   6.933   9.301 -1.1941 -0.0203  0.4232
  120OSM   H11S12685   4.561   6.857   9.299 -0.6128 -0.6349 -1.5799
  120OSM   H11T12686   4.739   6.900   9.343 -0.5460  0.7170 -0.4724
  120OSM   C12S12687   4.652   6.965   9.152 -0.1728 -0.3174  0.3202
  120OSM   H12S12688   4.719   7.053   9.158 -0.2349 -0.3751  3.0058
  120OSM   H12T12689   4.553   6.995   9.112 -0.4022  0.3031  1.3079
  120OSM   C13S12690   4.709   6.851   9.070 -0.6612 -0.4770 -0.4696
  120OSM   H13S12691   4.654   6.757   9.095  0.0095 -0.6485  0.4139
  120OSM   H13T12692   4.807   6.849   9.123 -1.0432 -1.2281  0.2426
  120OSM   C14S12693   4.719   6.873   8.922  0.1870  0.0399  0.0704
  120OSM   H14S12694   4.799   6.803   8.888  1.8253  0.5270  2.6842
  120OSM   H14T12695   4.750   6.976   8.894 -0.3389  0.1457 -0.1420
  120OSM   C15S12696   4.587   6.840   8.852 -0.0537  0.6553  0.1127
  120OSM   H15S12697   4.505   6.904   8.891 -0.5152  0.4691 -0.5314
  120OSM   H15T12698   4.555   6.735   8.864  1.8655 -0.2972 -2.2205
  120OSM   C16S12699   4.615   6.850   8.699 -0.1074  0.1918  0.1329
  120OSM   H16S12700   4.698   6.781   8.671  1.0510  1.5140  0.2512
  120OSM   H16T12701   4.647   6.950   8.663  1.2857  0.1379  1.1695
  120OSM   C17S12702   4.486   6.801   8.624 -0.0944  0.0732  0.7129
  120OSM   H17S12703   4.401   6.857   8.667  0.7428  2.7264 -0.7999
  120OSM   H17T12704   4.462   6.695   8.646  0.4471 -0.6074 -1.6641
  120OSM   C18S12705   4.492   6.824   8.475  0.1034 -1.2125 -0.4450
  120OSM   H18S12706   4.551   6.748   8.420  0.5399 -1.3512  0.2176
  120OSM   H18T12707   4.543   6.919   8.448 -0.1462 -0.4805  1.5227
  120OSM   H18U12708   4.387   6.826   8.438 -0.8433  0.2041  2.0672
  120OSM    C1F12709   5.001   6.746  10.106  0.2452  0.9396 -0.1212
  120OSM     OF12710   5.070   6.654  10.150  0.1829 -0.4035 -0.7222
  120OSM    C2F12711   5.051   6.867  10.028 -0.1598 -0.7113 -0.0586
  120OSM    H2F12712   5.095   6.923  10.114  0.4097 -1.2048 -0.0240
  120OSM    H2G12713   4.957   6.910   9.986 -0.8158 -1.6971  0.3638
  120OSM    C3F12714   5.163   6.834   9.924 -0.6676 -0.0518 -0.3033
  120OSM    H3F12715   5.256   6.786   9.963 -0.1331  1.6090  0.5499
  120OSM    H3G12716   5.202   6.932   9.890  0.9420 -0.1583  1.0983
  120OSM    C4F12717   5.102   6.763   9.807 -0.2622 -0.3652  0.7102
  120OSM    H4F12718   5.041   6.677   9.844  0.3379 -1.3968 -0.6181
  120OSM    H4G12719   5.173   6.712   9.738 -0.2070  1.1551 -0.3977
  120OSM    C5F12720   5.023   6.848   9.702 -0.2978 -0.6358  0.2357
  120OSM    H5F12721   5.101   6.912   9.653  0.7068 -2.2552 -0.3504
  120OSM    H5G12722   4.943   6.905   9.753 -2.3841 -1.6236 -1.7709
  120OSM    C6F12723   4.949   6.772   9.591 -0.4352 -0.9126 -0.0098
  120OSM    H6F12724   4.880   6.838   9.534  0.1095  0.5449  0.9606
  120OSM    H6G12725   4.888   6.689   9.635 -0.8270  0.0624  1.3331
  120OSM    C7F12726   5.051   6.707   9.499 -0.5051 -0.7893  0.0658
  120OSM    H7F12727   5.100   6.620   9.548 -1.2733  0.1206  2.5901
  120OSM    H7G12728   5.134   6.778   9.476  0.4221 -1.4150  1.3202
  120OSM    C8F12729   4.993   6.662   9.365 -0.6562  0.1120  0.4392
  120OSM    H8F12730   4.947   6.746   9.309 -1.6612 -0.2933  0.6468
  120OSM    H8G12731   4.914   6.585   9.370  0.3112 -0.9431 -0.1565
  120OSM    C9F12732   5.106   6.608   9.282  0.5708  0.2638 -0.4035
  120OSM    H9F12733   5.184   6.551   9.334 -0.1210 -1.5122 -1.2159
  120OSM   C10F12734   5.125   6.610   9.150 -0.0839  0.4895 -0.2453
  120OSM   H10F12735   5.216   6.566   9.106 -1.0508 -0.5233 -1.2863
  120OSM   C11F12736   5.040   6.670   9.039 -0.3456  0.2689  0.0681
  120OSM   H11F12737   5.087   6.766   9.009  0.1098  0.8461  2.4708
  120OSM   H11G12738   4.937   6.691   9.074 -0.2890  0.0601  0.3688
  120OSM   C12F12739   5.029   6.585   8.918  0.2562  0.4082  0.1210
  120OSM   H12F12740   4.944   6.619   8.855 -2.0848 -3.2123  1.0227
  120OSM   H12G12741   5.008   6.478   8.938  0.7901  0.0010 -1.4093
  120OSM   C13F12742   5.163   6.581   8.833 -0.4906 -0.3211 -1.0969
  120OSM   H13F12743   5.249   6.552   8.896  0.3992  1.0240 -1.6492
  120OSM   H13G12744   5.187   6.684   8.799 -1.5364  2.0441  4.3414
  120OSM   C14F12745   5.153   6.495   8.705 -0.0026  0.1891 -0.0346
  120OSM   H14F12746   5.080   6.538   8.634  2.2247  1.7999 -1.4965
  120OSM   H14G12747   5.107   6.396   8.727 -2.1231  1.3915  1.2410
  120OSM   C15F12748   5.286   6.480   8.629  0.5486  0.3712 -0.5035
  120OSM   H15F12749   5.350   6.407   8.683  1.6477  1.5668 -0.1401
  120OSM   H15G12750   5.356   6.566   8.628  3.7409 -1.7367  3.8708
  120OSM   C16F12751   5.268   6.440   8.484 -0.0767 -0.5015  0.0775
  120OSM   H16F12752   5.232   6.520   8.416  2.1241  0.2392 -0.2866
  120OSM   H16G12753   5.200   6.357   8.457  0.2012 -0.6963 -0.0279
  120OSM   C17F12754   5.405   6.409   8.424 -0.1601  0.4627 -0.3545
  120OSM   H17F12755   5.463   6.333   8.480  0.2050  1.3845  0.5573
  120OSM   H17G12756   5.471   6.498   8.417 -0.0268  0.3478 -0.5691
  120OSM   C18F12757   5.389   6.341   8.292 -1.2529 -0.2911  0.4503
  120OSM   H18F12758   5.361   6.409   8.209 -1.4095 -0.5661  0.2761
  120OSM   H18G12759   5.313   6.260   8.293 -2.0920  0.4685  1.7429
  120OSM   H18H12760   5.487   6.306   8.252 -1.9426  1.0146 -2.7063
  121OSM      N12761   3.168   2.889  10.822 -0.0916  0.4343  0.6928
  121OSM    C1512762   3.119   3.029  10.833 -0.7846 -0.1573 -0.5759
  121OSM   H15A12763   3.191   3.091  10.781  0.9949  0.3946  2.3124
  121OSM   H15B12764   3.105   3.059  10.936 -0.5716 -0.5470 -0.4323
  121OSM   H15C12765   3.025   3.046  10.783 -0.3036  0.5115 -1.2831
  121OSM    C1412766   3.293   2.894  10.908  0.2463  0.0522  0.0010
  121OSM   H14A12767   3.271   2.931  11.007 -1.2314 -0.3338 -0.1578
  121OSM   H14B12768   3.370   2.955  10.863 -1.3302  2.1706  0.0351
  121OSM   H14C12769   3.334   2.795  10.918 -0.4616 -0.1638  0.8635
  121OSM    C1312770   3.068   2.796  10.878 -0.8182  0.1605 -1.1267
  121OSM   H13A12771   3.093   2.691  10.881  2.9728  0.9328  0.0979
  121OSM   H13B12772   2.974   2.804  10.827 -0.9750  1.6616 -0.6509
  121OSM   H13C12773   3.046   2.840  10.974  0.5217  2.5661 -1.8447
  121OSM    C1212774   3.208   2.853  10.679  0.8567  0.4430 -0.2272
  121OSM   H12A12775   3.124   2.868  10.613 -0.4267 -0.9213  1.0144
  121OSM   H12B12776   3.223   2.747  10.666 -1.9451 -0.1987  1.0404
  121OSM    C1112777   3.328   2.929  10.622 -0.0786  0.0591 -0.0827
  121OSM   H11A12778   3.365   2.886  10.526  1.6362  1.1233  0.0455
  121OSM   H11B12779   3.413   2.929  10.694  0.7703  1.0724 -1.0429
  121OSM      P12780   3.230   3.120  10.465  0.0740  0.3891 -0.6312
  121OSM    O1312781   3.117   3.023  10.434 -0.5204 -0.0230  0.3120
  121OSM    O1412782   3.183   3.261  10.481 -0.0332 -0.4932  0.3093
  121OSM    O1112783   3.342   3.113  10.352 -0.4345  0.1729  0.2564
  121OSM    O1212784   3.298   3.071  10.602  0.2449 -0.4425  0.3845
  121OSM    C1S12785   3.295   3.114  10.215 -0.3098  0.1428 -0.1581
  121OSM    H1S12786   3.234   3.205  10.197  0.5208  0.7607  0.0743
  121OSM    H1T12787   3.235   3.029  10.177  1.8176 -2.0387  1.1517
  121OSM     NF12788   3.384   3.100   9.977 -0.1967 -0.1933 -0.0438
  121OSM    HNF12789   3.392   3.009   9.937 -0.3877  0.9822 -2.9825
  121OSM    C2S12790   3.419   3.108  10.117 -0.7124  0.2809  0.4861
  121OSM    H2S12791   3.484   3.198  10.126  1.8882 -1.3021 -1.0552
  121OSM    C3S12792   3.505   2.984  10.150 -0.2255  1.0218  0.2831
  121OSM    H3S12793   3.434   2.902  10.130  0.9775  0.3892 -1.6704
  121OSM     O312794   3.558   2.981  10.280  0.4478 -0.0616 -0.3042
  121OSM    HO312795   3.486   3.027  10.324  0.8218 -0.0403  0.3010
  121OSM    C4S12796   3.618   2.968  10.051  0.2613  0.3113 -0.2158
  121OSM    H4S12797   3.605   2.891   9.974  1.3941 -0.9381  0.7825
  121OSM    C5S12798   3.733   3.041  10.048  0.7077 -0.0158  0.2973
  121OSM    H5S12799   3.746   3.120  10.124 -0.4532  0.0278  0.4822
  121OSM    C6S12800   3.848   3.027   9.953  0.1560 -0.2274  0.4886
  121OSM    H6S12801   3.861   2.919   9.936  0.9311  0.0700 -0.9324
  121OSM    H6T12802   3.943   3.068   9.994  0.8683 -0.3079 -0.9944
  121OSM    C7S12803   3.823   3.094   9.809  0.1187 -0.1396 -0.5011
  121OSM    H7S12804   3.819   3.203   9.830  0.8294 -0.0067 -1.0440
  121OSM    H7T12805   3.729   3.054   9.766  1.6971 -3.7460 -0.9868
  121OSM    C8S12806   3.939   3.061   9.720  0.0480  0.0237  0.2621
  121OSM    H8S12807   3.959   2.952   9.718  1.5526  0.2929 -0.7659
  121OSM    H8T12808   4.031   3.101   9.769  0.0502  0.3097  0.0255
  121OSM    C9S12809   3.926   3.109   9.578  0.4025 -0.3883  0.1646
  121OSM    H9S12810   3.923   3.219   9.588  0.8045 -0.4384  0.9545
  121OSM    H9T12811   3.823   3.081   9.545 -1.1737  3.9152  0.8195
  121OSM   C10S12812   4.040   3.052   9.490  0.2102  0.0055  0.4464
  121OSM   H10S12813   4.053   2.943   9.506  2.9541 -0.1653 -1.9920
  121OSM   H10T12814   4.131   3.109   9.518  2.1429 -3.1558  1.0936
  121OSM   C11S12815   4.004   3.069   9.349 -0.1783  0.0313 -0.0900
  121OSM   H11S12816   3.998   3.177   9.325  0.2879  0.4385  1.5300
  121OSM   H11T12817   3.904   3.025   9.329 -0.1028 -0.0015 -0.4025
  121OSM   C12S12818   4.104   3.020   9.249  0.3961 -0.1664 -0.0977
  121OSM   H12S12819   4.162   2.928   9.270 -0.4392 -0.7177 -0.1796
  121OSM   H12T12820   4.183   3.098   9.246  1.1506 -0.9468 -0.7732
  121OSM   C13S12821   4.027   3.013   9.114  0.8693 -0.4741 -0.5484
  121OSM   H13S12822   3.971   3.107   9.092 -0.8993 -1.3393  0.0228
  121OSM   H13T12823   3.950   2.933   9.111 -1.7242  1.7571  1.1439
  121OSM   C14S12824   4.125   2.992   8.997  0.0480  0.1064  0.0007
  121OSM   H14S12825   4.216   3.055   9.008 -1.1376  2.0027 -0.6080
  121OSM   H14T12826   4.075   3.027   8.904 -1.2094 -0.3264  0.4857
  121OSM   C15S12827   4.171   2.841   8.989 -0.3751  0.0580 -0.2012
  121OSM   H15S12828   4.087   2.772   8.968 -1.5277  0.9015  1.4140
  121OSM   H15T12829   4.215   2.813   9.087  1.3562  1.2739 -0.5897
  121OSM   C16S12830   4.279   2.825   8.883 -0.6183  0.5454  0.0367
  121OSM   H16S12831   4.299   2.722   8.847  2.3985  1.1740 -0.3478
  121OSM   H16T12832   4.370   2.860   8.936 -0.5626 -1.8017  1.6602
  121OSM   C17S12833   4.243   2.902   8.761 -0.4115  0.7403 -0.3604
  121OSM   H17S12834   4.241   3.012   8.771 -0.5865  1.1213 -3.7555
  121OSM   H17T12835   4.146   2.878   8.712  0.0670 -1.5857 -0.3179
  121OSM   C18S12836   4.344   2.873   8.652  0.3459 -0.0078  0.6406
  121OSM   H18S12837   4.310   2.782   8.598  0.9432  0.8865 -1.3197
  121OSM   H18T12838   4.448   2.856   8.690 -0.0888 -0.8991  1.4925
  121OSM   H18U12839   4.350   2.957   8.581 -0.8545 -2.6672 -2.9016
  121OSM    C1F12840   3.302   3.194   9.919  0.3735 -0.3025 -0.6975
  121OSM     OF12841   3.301   3.309   9.964 -0.2353 -0.1317 -0.0813
  121OSM    C2F12842   3.218   3.154   9.806 -0.1017 -0.0032  0.3332
  121OSM    H2F12843   3.148   3.078   9.846 -0.7942  0.9058  0.8982
  121OSM    H2G12844   3.272   3.111   9.719  0.0641  2.9798 -1.1741
  121OSM    C3F12845   3.134   3.267   9.742 -1.2504 -0.3991  0.2735
  121OSM    H3F12846   3.196   3.345   9.693 -3.1739  1.3021  0.3765
  121OSM    H3G12847   3.077   3.321   9.821 -2.8143  0.6593 -1.4782
  121OSM    C4F12848   3.023   3.217   9.643 -0.6416 -0.4017 -0.6052
  121OSM    H4F12849   2.947   3.297   9.624 -0.6507  0.1008  1.3416
  121OSM    H4G12850   2.968   3.134   9.692  0.3003 -0.2321  0.8084
  121OSM    C5F12851   3.104   3.187   9.515 -0.1822  0.2210  0.8899
  121OSM    H5F12852   3.180   3.107   9.529 -1.4349 -0.6793  3.0919
  121OSM    H5G12853   3.149   3.279   9.473  0.5189 -0.9328 -1.0268
  121OSM    C6F12854   3.018   3.136   9.397  0.1733  0.0451 -0.1739
  121OSM    H6F12855   2.938   3.211   9.379 -0.4134  0.2482  2.7746
  121OSM    H6G12856   2.961   3.049   9.436 -3.0522  2.5318  1.1167
  121OSM    C7F12857   3.091   3.137   9.264 -0.2404  0.3526  0.4816
  121OSM    H7F12858   3.155   3.048   9.250  1.6950  1.7157  0.2834
  121OSM    H7G12859   3.165   3.218   9.281  1.7781 -1.3353  0.1391
  121OSM    C8F12860   2.998   3.181   9.146  0.2467 -0.0073  1.5762
  121OSM    H8F12861   2.949   3.277   9.174 -3.0049 -1.4656  1.3107
  121OSM    H8G12862   2.917   3.107   9.131 -0.8369  0.7025  3.5454
  121OSM    C9F12863   3.080   3.197   9.018 -0.4563 -0.4652 -0.0981
  121OSM    H9F12864   3.177   3.238   9.051 -1.4873  2.1059  0.0247
  121OSM   C10F12865   3.063   3.158   8.891  0.4091  0.0706 -0.1886
  121OSM   H10F12866   3.144   3.171   8.818 -0.3053 -1.5625 -1.3432
  121OSM   C11F12867   2.941   3.091   8.841 -0.3126 -0.1314  1.1886
  121OSM   H11F12868   2.859   3.088   8.916  1.4420 -0.1390  3.1876
  121OSM   H11G12869   2.969   2.987   8.813  2.3254  1.2977 -2.1910
  121OSM   C12F12870   2.889   3.143   8.704  0.9141  0.1532  0.4838
  121OSM   H12F12871   2.809   3.074   8.671  0.6163  0.0962  1.3075
  121OSM   H12G12872   2.972   3.161   8.632  2.3661  0.8204  2.2398
  121OSM   C13F12873   2.823   3.283   8.729  0.5361  0.6926  0.3017
  121OSM   H13F12874   2.906   3.353   8.752  2.7383 -2.0281  1.1733
  121OSM   H13G12875   2.762   3.264   8.820 -0.1149  0.3259 -0.2078
  121OSM   C14F12876   2.725   3.348   8.632 -0.3801 -0.3257  0.3641
  121OSM   H14F12877   2.760   3.359   8.527 -1.8036  0.7205 -0.0323
  121OSM   H14G12878   2.697   3.447   8.674  1.0464 -0.7876  2.5558
  121OSM   C15F12879   2.585   3.281   8.621 -0.1626 -0.6454 -1.0564
  121OSM   H15F12880   2.526   3.284   8.715 -1.3994  1.3947 -1.8187
  121OSM   H15G12881   2.617   3.179   8.593  2.6646  0.2099 -1.2922
  121OSM   C16F12882   2.493   3.335   8.512  0.6087  0.2828  0.7418
  121OSM   H16F12883   2.412   3.260   8.521 -0.8003  1.7208  0.4251
  121OSM   H16G12884   2.538   3.322   8.412 -0.0381  0.1292  0.4689
  121OSM   C17F12885   2.443   3.480   8.538 -0.2932 -0.2120  0.2768
  121OSM   H17F12886   2.520   3.560   8.527 -1.9723  1.6248  1.3362
  121OSM   H17G12887   2.403   3.484   8.642  1.1367 -0.4468  0.8612
  121OSM   C18F12888   2.336   3.520   8.442  0.1666  0.1269 -0.1747
  121OSM   H18F12889   2.302   3.623   8.467  0.3247 -0.1638  1.3281
  121OSM   H18G12890   2.253   3.448   8.453 -0.4301  0.2593 -3.0628
  121OSM   H18H12891   2.368   3.506   8.337 -3.4882  1.7097 -1.6568
  122OSM      N12892   3.415   2.135  10.911  0.2540 -0.2377 -0.0500
  122OSM    C1512893   3.491   2.170  11.031  0.0183  0.3001  0.3824
  122OSM   H15A12894   3.451   2.259  11.079  3.1301  1.6081  0.8079
  122OSM   H15B12895   3.591   2.203  11.006 -0.8966  2.4819 -0.6683
  122OSM   H15C12896   3.505   2.081  11.090 -0.5521 -0.6898 -0.9342
  122OSM    C1412897   3.279   2.090  10.948  0.1416  0.3534 -0.1228
  122OSM   H14A12898   3.272   2.006  11.014 -1.3802  1.0423  0.6301
  122OSM   H14B12899   3.234   2.062  10.854 -2.5204  1.6090  0.6814
  122OSM   H14C12900   3.227   2.173  10.993 -1.3783  0.3534 -1.7559
  122OSM    C1312901   3.399   2.264  10.835  0.5082 -0.0229 -0.2227
  122OSM   H13A12902   3.350   2.256  10.739  0.4159  0.3204 -0.2065
  122OSM   H13B12903   3.489   2.321  10.817  1.1930 -1.4506 -1.6008
  122OSM   H13C12904   3.331   2.326  10.891  1.4468  0.6811  0.1521
  122OSM    C1212905   3.487   2.031  10.825 -0.0824  0.7663  0.3687
  122OSM   H12A12906   3.422   1.999  10.744  2.3751  0.2447 -1.5071
  122OSM   H12B12907   3.509   1.952  10.894 -0.7627  1.9920  2.0641
  122OSM    C1112908   3.618   2.080  10.754  0.4471  0.0313  0.4834
  122OSM   H11A12909   3.593   2.176  10.704 -3.7510 -1.3041 -0.4011
  122OSM   H11B12910   3.637   2.005  10.674 -2.6262  0.1041 -0.4544
  122OSM      P12911   3.811   1.982  10.889  0.0101  0.3706 -0.1292
  122OSM    O1312912   3.915   2.012  10.993 -0.1153  0.0549 -0.0209
  122OSM    O1412913   3.716   1.873  10.921 -0.6274 -0.0529 -0.0088
  122OSM    O1112914   3.878   1.947  10.753 -0.3329 -0.4838 -0.4658
  122OSM    O1212915   3.728   2.106  10.843 -0.1313 -1.0995 -0.3432
  122OSM    C1S12916   3.993   2.026  10.716 -0.1617 -0.1250  0.0600
  122OSM    H1S12917   4.080   1.997  10.778 -0.8700 -1.4103  0.4861
  122OSM    H1T12918   3.972   2.134  10.726 -0.7104 -0.3180  1.1115
  122OSM     NF12919   4.178   2.065  10.553 -0.0156 -0.0260 -0.6271
  122OSM    HNF12920   4.176   2.153  10.507 -1.2149  0.0219 -0.5100
  122OSM    C2S12921   4.047   2.002  10.579 -0.3848 -0.0924  0.5834
  122OSM    H2S12922   4.063   1.893  10.573 -2.0765 -0.4255  1.5758
  122OSM    C3S12923   3.939   2.045  10.471  0.2572  0.4707 -0.4240
  122OSM    H3S12924   3.929   2.155  10.468  0.2989  0.5341  1.1922
  122OSM     O312925   3.814   1.976  10.484  0.3076 -0.9734 -0.4208
  122OSM    HO312926   3.813   1.955  10.578  0.2168 -1.6461 -0.5712
  122OSM    C4S12927   3.989   2.012  10.336  0.5903 -0.1576 -0.6197
  122OSM    H4S12928   4.000   1.906  10.311  1.7747  0.0508 -1.0613
  122OSM    C5S12929   4.022   2.105  10.246 -0.5389  0.3223 -0.4153
  122OSM    H5S12930   4.009   2.213  10.266 -1.6396  0.7988 -3.2153
  122OSM    C6S12931   4.088   2.075  10.114  0.0270  0.3163 -0.1786
  122OSM    H6S12932   4.014   2.100  10.035  0.0222 -0.6751 -0.4983
  122OSM    H6T12933   4.107   1.966  10.102 -0.9213  0.1254 -0.0161
  122OSM    C7S12934   4.208   2.161  10.089 -0.2554 -0.2271  0.4251
  122OSM    H7S12935   4.289   2.159  10.165  0.3361  3.9808  0.1777
  122OSM    H7T12936   4.184   2.268  10.071  0.6793 -0.1191 -0.2624
  122OSM    C8S12937   4.268   2.119   9.955  0.3365  0.2935 -0.3989
  122OSM    H8S12938   4.263   2.008   9.946 -1.0097  0.0336  2.4766
  122OSM    H8T12939   4.372   2.156   9.943  0.4978 -0.0659 -0.1467
  122OSM    C9S12940   4.195   2.186   9.829 -0.3210  0.5070 -0.1673
  122OSM    H9S12941   4.166   2.289   9.859 -0.7491  1.1797 -2.6576
  122OSM    H9T12942   4.107   2.122   9.808 -2.0588  2.6776  0.1897
  122OSM   C10S12943   4.283   2.205   9.704  0.3218  0.0550 -0.0105
  122OSM   H10S12944   4.314   2.103   9.674 -4.1115 -1.5096 -0.0168
  122OSM   H10T12945   4.372   2.262   9.739  0.7203  0.3636 -1.4713
  122OSM   C11S12946   4.195   2.282   9.609  0.7137 -0.0641 -0.1579
  122OSM   H11S12947   4.188   2.383   9.655 -0.7700 -0.6232  0.9296
  122OSM   H11T12948   4.094   2.236   9.622  0.4849  0.6044  0.5327
  122OSM   C12S12949   4.234   2.269   9.462 -0.2592  0.3911 -0.2151
  122OSM   H12S12950   4.337   2.303   9.439 -0.2504  0.4956 -0.0238
  122OSM   H12T12951   4.165   2.328   9.398 -0.1460 -0.4184 -1.1068
  122OSM   C13S12952   4.219   2.127   9.422 -0.7412  0.0989  0.0052
  122OSM   H13S12953   4.117   2.086   9.434 -0.3110 -1.5784 -1.6698
  122OSM   H13T12954   4.274   2.045   9.472  1.0405  0.1871 -1.7019
  122OSM   C14S12955   4.252   2.101   9.270  0.0803  0.3038  0.5378
  122OSM   H14S12956   4.353   2.147   9.260 -0.0272  0.4751  0.2542
  122OSM   H14T12957   4.184   2.159   9.205 -2.8514 -2.1574  1.2013
  122OSM   C15S12958   4.268   1.952   9.233 -0.1669 -0.0216  0.1837
  122OSM   H15S12959   4.172   1.901   9.255 -1.8524  2.8548 -0.0249
  122OSM   H15T12960   4.347   1.912   9.301 -0.2744  0.5524  0.6552
  122OSM   C16S12961   4.306   1.916   9.087  0.0029  0.1901  0.0696
  122OSM   H16S12962   4.394   1.978   9.062 -0.0105  0.7170  1.2958
  122OSM   H16T12963   4.220   1.927   9.018 -0.3221  2.2401  0.7498
  122OSM   C17S12964   4.344   1.761   9.078 -0.7206  0.3233 -0.2901
  122OSM   H17S12965   4.260   1.698   9.113  1.4212 -1.6360  1.6546
  122OSM   H17T12966   4.429   1.746   9.148  0.4699  1.4454 -1.4240
  122OSM   C18S12967   4.386   1.722   8.924 -0.2559 -0.0271  0.7590
  122OSM   H18S12968   4.398   1.612   8.911 -3.0676 -0.3204 -0.0129
  122OSM   H18T12969   4.483   1.768   8.893  0.6367 -1.0905  1.8459
  122OSM   H18U12970   4.301   1.756   8.862  0.9802 -0.5301 -1.3254
  122OSM    C1F12971   4.290   2.015  10.601 -0.8084  0.2427  0.4309
  122OSM     OF12972   4.289   1.913  10.674  0.1898 -0.4432 -0.1505
  122OSM    C2F12973   4.412   2.092  10.567  0.6586  0.1390 -0.3149
  122OSM    H2F12974   4.466   2.115  10.661 -0.6148 -0.5168  0.6096
  122OSM    H2G12975   4.392   2.186  10.510  0.6926  0.6533  0.5026
  122OSM    C3F12976   4.496   2.010  10.461 -1.2165  0.3372  0.4068
  122OSM    H3F12977   4.438   1.985  10.369 -1.0949  0.9490  0.1618
  122OSM    H3G12978   4.514   1.909  10.504 -4.4201 -1.0665 -1.1565
  122OSM    C4F12979   4.633   2.068  10.420 -0.1790  1.1025  0.8257
  122OSM    H4F12980   4.686   2.099  10.513 -0.3879  0.1442  1.2738
  122OSM    H4G12981   4.618   2.157  10.355  0.8566  0.7457  0.0777
  122OSM    C5F12982   4.713   1.970  10.333  0.4037 -0.3908  0.5123
  122OSM    H5F12983   4.669   1.869  10.324  2.2653 -1.2403  0.4381
  122OSM    H5G12984   4.809   1.956  10.388  1.0627  0.3779 -0.3885
  122OSM    C6F12985   4.754   2.011  10.185  0.4306 -0.0151 -0.4758
  122OSM    H6F12986   4.813   1.925  10.146  1.4614  0.9638 -1.1394
  122OSM    H6G12987   4.814   2.103  10.201  2.4424 -1.5647  1.3505
  122OSM    C7F12988   4.639   2.040  10.091  0.3430  0.0120  0.2356
  122OSM    H7F12989   4.565   2.109  10.137 -0.3513 -0.1748 -0.5741
  122OSM    H7G12990   4.584   1.946  10.073  0.6579 -0.3317  1.0409
  122OSM    C8F12991   4.677   2.082   9.952 -0.6630 -0.6717 -0.2248
  122OSM    H8F12992   4.738   2.174   9.954  0.5277 -1.3577 -2.1353
  122OSM    H8G12993   4.593   2.112   9.886  1.7894 -1.4265 -3.9747
  122OSM    C9F12994   4.761   1.980   9.874  1.1843  0.2882 -0.1989
  122OSM    H9F12995   4.839   1.934   9.937 -1.5678 -2.9835  1.1560
  122OSM   C10F12996   4.743   1.935   9.749  0.4079 -0.2345 -0.1643
  122OSM   H10F12997   4.818   1.862   9.715  2.2589  1.2744  0.5000
  122OSM   C11F12998   4.645   1.983   9.641  0.0754  0.5647 -0.3850
  122OSM   H11F12999   4.577   2.064   9.674  0.4371  0.9693 -0.6227
  122OSM   H11G13000   4.596   1.891   9.603 -0.6353  0.4636  0.7273
  122OSM   C12F13001   4.724   2.045   9.527  0.0033 -0.5913 -0.2480
  122OSM   H12F13002   4.798   1.979   9.478 -0.7346 -1.5454 -0.0968
  122OSM   H12G13003   4.791   2.129   9.556 -0.1521 -0.5206 -0.0922
  122OSM   C13F13004   4.629   2.104   9.425  0.1434  0.1743  0.0500
  122OSM   H13F13005   4.555   2.169   9.475 -0.9148 -0.6243 -0.4440
  122OSM   H13G13006   4.570   2.022   9.378  0.2317 -0.0090  0.2548
  122OSM   C14F13007   4.702   2.170   9.302 -0.3175  0.2899 -0.1301
  122OSM   H14F13008   4.766   2.250   9.344 -0.7911  0.8165 -0.3941
  122OSM   H14G13009   4.636   2.228   9.234  1.1676  2.6393  0.3200
  122OSM   C15F13010   4.790   2.082   9.206  0.5007 -0.0073  0.4813
  122OSM   H15F13011   4.836   1.996   9.259  1.3987 -1.9853 -3.1120
  122OSM   H15G13012   4.867   2.150   9.162 -0.9196  1.7923  0.6663
  122OSM   C16F13013   4.717   2.023   9.083 -0.6671  0.1034  0.9312
  122OSM   H16F13014   4.674   2.119   9.045 -2.5594 -1.7558 -1.9879
  122OSM   H16G13015   4.642   1.948   9.115  0.8938 -1.8857  0.1008
  122OSM   C17F13016   4.800   1.962   8.977  0.1029  0.2007  0.4262
  122OSM   H17F13017   4.738   1.879   8.936 -0.0308 -0.2283  1.4767
  122OSM   H17G13018   4.889   1.917   9.027 -0.3509 -0.9736  0.2251
  122OSM   C18F13019   4.862   2.050   8.867  0.3186  0.0277 -0.3452
  122OSM   H18F13020   4.795   2.077   8.784 -0.0373  0.6793  0.1494
  122OSM   H18G13021   4.946   1.989   8.827  0.6078  0.0559  0.2085
  122OSM   H18H13022   4.911   2.144   8.902 -0.6280  1.0071 -1.6027
  123OSM      N13023   4.126   1.754   6.087  0.1840 -0.9239  0.4919
  123OSM    C1513024   4.091   1.648   6.201 -0.0187  0.1688  0.2074
  123OSM   H15A13025   3.986   1.622   6.202 -0.3637  1.3186 -1.8206
  123OSM   H15B13026   4.114   1.694   6.296  1.3198 -0.1316  0.0596
  123OSM   H15C13027   4.155   1.561   6.196 -1.0443 -0.5244 -1.7113
  123OSM    C1413028   4.275   1.793   6.095  0.9424  0.5440 -0.8117
  123OSM   H14A13029   4.313   1.864   6.023  2.8716 -0.3366 -0.7025
  123OSM   H14B13030   4.332   1.703   6.078 -1.3846 -1.6347  1.8265
  123OSM   H14C13031   4.294   1.839   6.190  0.6553  1.7180 -1.3031
  123OSM    C1313032   4.103   1.700   5.949 -0.5807  0.5354 -0.5725
  123OSM   H13A13033   4.020   1.631   5.949  1.5895 -2.2421 -1.5555
  123OSM   H13B13034   4.184   1.634   5.924 -0.9515 -1.0376  2.0356
  123OSM   H13C13035   4.085   1.775   5.873 -1.4927 -0.4993 -1.4255
  123OSM    C1213036   4.042   1.875   6.102  0.0054 -0.1008  0.3308
  123OSM   H12A13037   3.941   1.842   6.080  0.3861 -3.8034  3.1724
  123OSM   H12B13038   4.060   1.951   6.027 -1.9395 -1.6715 -1.9209
  123OSM    C1113039   4.042   1.934   6.248 -0.2973 -0.5824  0.0473
  123OSM   H11A13040   3.983   1.870   6.316 -0.5760  0.5312  0.8951
  123OSM   H11B13041   3.984   2.027   6.227  1.9081  0.4623 -1.9647
  123OSM      P13042   4.227   2.102   6.301 -0.1863 -0.1994 -0.5535
  123OSM    O1313043   4.342   2.101   6.391 -0.3869  0.1492 -0.1358
  123OSM    O1413044   4.237   2.161   6.164  0.0737  0.7166  0.6479
  123OSM    O1113045   4.104   2.171   6.379 -0.6873  0.0231 -0.2358
  123OSM    O1213046   4.169   1.956   6.301 -0.3797  0.0931 -0.5069
  123OSM    C1S13047   4.063   2.125   6.509 -0.1202 -0.7190  0.3384
  123OSM    H1S13048   4.060   2.014   6.510 -0.2116 -0.7295  2.3680
  123OSM    H1T13049   3.957   2.154   6.519  1.0267  3.6019  2.0816
  123OSM     NF13050   4.107   2.123   6.755 -0.1084  0.0188 -0.0863
  123OSM    HNF13051   4.056   2.178   6.821 -0.2130  0.8900 -0.8731
  123OSM    C2S13052   4.145   2.191   6.634  0.6431  0.5160 -0.0149
  123OSM    H2S13053   4.252   2.177   6.610  0.9985  1.7145  0.7600
  123OSM    C3S13054   4.118   2.342   6.634 -0.7208 -1.0465  0.0778
  123OSM    H3S13055   4.011   2.349   6.663 -0.2294  2.8275  1.5140
  123OSM     O313056   4.123   2.410   6.498 -0.0601  0.1104  0.0786
  123OSM    HO313057   4.131   2.333   6.441 -0.8737  0.3366 -0.3469
  123OSM    C4S13058   4.205   2.402   6.738 -0.0197  0.2986 -0.1294
  123OSM    H4S13059   4.173   2.376   6.840  0.1696  0.2528 -0.0805
  123OSM    C5S13060   4.317   2.474   6.720 -0.3637  0.6684 -0.2107
  123OSM    H5S13061   4.365   2.504   6.626 -0.9593  2.0076 -0.1183
  123OSM    C6S13062   4.393   2.530   6.837 -0.1890  0.1384 -0.1371
  123OSM    H6S13063   4.441   2.625   6.805 -1.6760  1.5282  1.5199
  123OSM    H6T13064   4.480   2.463   6.853  0.3481  0.7137 -0.5928
  123OSM    C7S13065   4.327   2.543   6.978  0.0252  0.2513 -0.2580
  123OSM    H7S13066   4.297   2.440   7.008  0.6877  0.3839  0.9597
  123OSM    H7T13067   4.240   2.612   6.969  0.4382  0.9755  1.0180
  123OSM    C8S13068   4.418   2.616   7.085  0.3483 -0.3663  0.3853
  123OSM    H8S13069   4.445   2.717   7.049 -0.1551 -0.4128 -0.1490
  123OSM    H8T13070   4.504   2.546   7.096  2.1103  1.1717 -2.4029
  123OSM    C9S13071   4.345   2.633   7.223  0.0936 -0.3534  0.1995
  123OSM    H9S13072   4.308   2.532   7.247  0.0542 -0.7256 -1.3004
  123OSM    H9T13073   4.255   2.698   7.221 -0.5363 -1.2340 -0.3456
  123OSM   C10S13074   4.433   2.680   7.347  0.0958  0.1378  0.6497
  123OSM   H10S13075   4.448   2.790   7.337 -1.2949  0.1895 -1.6686
  123OSM   H10T13076   4.524   2.618   7.357  0.7017  0.7494 -0.8335
  123OSM   C11S13077   4.354   2.646   7.476 -0.6090  0.0898  1.1066
  123OSM   H11S13078   4.321   2.540   7.475 -1.7163  0.3916 -0.5885
  123OSM   H11T13079   4.260   2.705   7.470  0.4526  1.7580 -0.6430
  123OSM   C12S13080   4.424   2.688   7.602 -0.1595 -0.4242 -0.6838
  123OSM   H12S13081   4.421   2.799   7.607  0.5586 -0.4255 -0.0612
  123OSM   H12T13082   4.530   2.656   7.614 -0.2602 -0.2401  0.9478
  123OSM   C13S13083   4.354   2.639   7.732 -0.9329 -0.0289  0.0921
  123OSM   H13S13084   4.361   2.528   7.726  0.9047  0.0982 -0.8637
  123OSM   H13T13085   4.255   2.690   7.739 -1.7788 -1.1864 -2.4227
  123OSM   C14S13086   4.439   2.676   7.860  0.5604  0.0751  0.0849
  123OSM   H14S13087   4.451   2.786   7.862 -0.9522  0.2538  0.7309
  123OSM   H14T13088   4.543   2.640   7.846  0.8995  1.3279 -0.7569
  123OSM   C15S13089   4.371   2.623   7.984 -0.3795 -0.4650  0.1200
  123OSM   H15S13090   4.362   2.512   7.980  2.3166 -0.7557  0.2394
  123OSM   H15T13091   4.268   2.665   7.987  0.6164  2.0742  1.7564
  123OSM   C16S13092   4.440   2.669   8.113 -0.2708  0.0165  0.6621
  123OSM   H16S13093   4.390   2.632   8.205  2.1215  0.2813  2.1578
  123OSM   H16T13094   4.432   2.780   8.120 -2.0076 -0.0846  0.6974
  123OSM   C17S13095   4.589   2.634   8.100 -0.2063 -0.5439 -0.2636
  123OSM   H17S13096   4.638   2.697   8.022 -0.1819 -1.3698 -0.9400
  123OSM   H17T13097   4.597   2.527   8.068 -0.0975 -0.3612 -0.8668
  123OSM   C18S13098   4.669   2.650   8.232 -0.5635  0.3448  0.9814
  123OSM   H18S13099   4.640   2.570   8.305  0.9592 -0.8934  0.2796
  123OSM   H18T13100   4.650   2.748   8.281 -0.8782  0.5753  0.4093
  123OSM   H18U13101   4.775   2.633   8.205 -1.5642 -3.5303 -1.3159
  123OSM    C1F13102   4.146   1.997   6.781  0.1545 -0.2316  0.2920
  123OSM     OF13103   4.192   1.922   6.694  0.4436 -0.0353  0.6235
  123OSM    C2F13104   4.119   1.954   6.921 -0.1998 -1.5060 -0.4261
  123OSM    H2F13105   4.011   1.928   6.932 -0.1723 -1.3028  0.4056
  123OSM    H2G13106   4.136   2.034   6.997  0.0174 -0.9205 -1.0739
  123OSM    C3F13107   4.210   1.837   6.938  0.5502  0.0524  0.0886
  123OSM    H3F13108   4.315   1.873   6.936  0.2176  1.0998  0.8670
  123OSM    H3G13109   4.188   1.761   6.860 -3.3438  1.6294 -0.6062
  123OSM    C4F13110   4.186   1.778   7.080  1.1904 -0.0613  0.1469
  123OSM    H4F13111   4.225   1.856   7.150  0.0987  1.5644 -0.9752
  123OSM    H4G13112   4.244   1.683   7.082  0.1971 -0.6969 -0.3904
  123OSM    C5F13113   4.044   1.750   7.131 -0.4256  0.3628 -0.0655
  123OSM    H5F13114   4.011   1.664   7.068 -0.0617  0.0892  0.1161
  123OSM    H5G13115   3.975   1.836   7.113  1.0508  1.6252  0.1673
  123OSM    C6F13116   4.045   1.705   7.279 -0.3625  1.1728 -0.0538
  123OSM    H6F13117   3.938   1.695   7.306 -0.5821 -0.6386 -1.3817
  123OSM    H6G13118   4.099   1.776   7.346  1.1736 -1.3891  1.5765
  123OSM    C7F13119   4.101   1.559   7.301  0.6984 -0.3836  0.7907
  123OSM    H7F13120   4.210   1.561   7.282  0.8046 -0.0739  1.4021
  123OSM    H7G13121   4.063   1.487   7.225  1.2412  0.6399 -0.5055
  123OSM    C8F13122   4.067   1.492   7.433 -0.0503  0.0877  0.1867
  123OSM    H8F13123   4.133   1.403   7.443 -0.5576 -0.3928 -0.6539
  123OSM    H8G13124   3.964   1.450   7.435  0.5132 -1.3611 -0.0402
  123OSM    C9F13125   4.091   1.578   7.547 -0.4642  0.2953 -0.4551
  123OSM    H9F13126   4.093   1.685   7.524  2.7666  1.0236  2.3551
  123OSM   C10F13127   4.127   1.542   7.674 -0.5570 -0.3041 -0.0089
  123OSM   H10F13128   4.142   1.613   7.757  1.0672 -2.2062  1.4134
  123OSM   C11F13129   4.127   1.398   7.721  0.0390 -0.4233 -0.5720
  123OSM   H11F13130   4.227   1.351   7.714 -0.0231 -0.9140  1.4043
  123OSM   H11G13131   4.061   1.343   7.650 -0.3251 -0.1340 -0.4590
  123OSM   C12F13132   4.074   1.398   7.863 -0.0762  0.4326 -0.5139
  123OSM   H12F13133   3.990   1.470   7.877  1.3942  2.0478  0.4178
  123OSM   H12G13134   4.151   1.440   7.931 -1.9442  4.1757 -0.4036
  123OSM   C13F13135   4.051   1.262   7.921  0.0167  0.1912 -0.2892
  123OSM   H13F13136   4.143   1.202   7.901 -0.1943 -0.6344  1.0585
  123OSM   H13G13137   3.962   1.208   7.882  0.8621 -2.1018  0.7399
  123OSM   C14F13138   4.031   1.279   8.075 -0.1066  0.4375 -0.1436
  123OSM   H14F13139   3.951   1.354   8.092  0.7440  1.4957 -0.7414
  123OSM   H14G13140   4.124   1.322   8.117 -0.7844  1.5195  0.2930
  123OSM   C15F13141   4.014   1.150   8.162 -0.2230  0.1637  0.3677
  123OSM   H15F13142   4.099   1.080   8.157 -1.3731 -1.2887  0.4600
  123OSM   H15G13143   3.931   1.092   8.117  0.1973  0.2889 -0.5759
  123OSM   C16F13144   3.982   1.180   8.308 -0.2310  0.0998  0.2753
  123OSM   H16F13145   3.881   1.222   8.327  0.6726  2.4422  0.2208
  123OSM   H16G13146   4.060   1.254   8.333 -0.3904 -0.4554  2.6116
  123OSM   C17F13147   3.996   1.049   8.389  0.2333 -0.3226 -0.4044
  123OSM   H17F13148   4.072   0.984   8.341  0.2976  0.1516 -0.9489
  123OSM   H17G13149   3.901   0.993   8.373  0.9958 -1.5913 -0.6928
  123OSM   C18F13150   4.010   1.068   8.544 -0.2178 -0.1948  0.7838
  123OSM   H18F13151   4.106   1.119   8.567 -0.8619  2.1511 -1.2669
  123OSM   H18G13152   4.011   0.976   8.606  0.4737 -1.6993 -1.3376
  123OSM   H18H13153   3.929   1.133   8.583  0.2402  0.7993  0.1252
  124OSM      N13154   5.982   4.991   6.163 -0.3107 -0.0521 -0.1669
  124OSM    C1513155   5.874   4.960   6.255  0.1945  0.3165 -0.1174
  124OSM   H15A13156   5.884   4.870   6.314  0.2417  1.1018  1.1037
  124OSM   H15B13157   5.786   4.951   6.193  1.0450 -1.1586 -1.1792
  124OSM   H15C13158   5.854   5.038   6.328 -2.3570  0.0394 -0.4455
  124OSM    C1413159   6.109   5.013   6.237 -0.3785  0.3727 -0.7656
  124OSM   H14A13160   6.090   5.101   6.297  2.5640  0.2397  0.5517
  124OSM   H14B13161   6.187   5.042   6.167 -1.2566  4.0467 -0.4301
  124OSM   H14C13162   6.134   4.931   6.302  1.6051  1.2529 -0.3299
  124OSM    C1313163   5.998   4.867   6.074 -0.4495 -0.6554 -0.0078
  124OSM   H13A13164   5.906   4.831   6.031 -1.1832  2.5461 -1.4511
  124OSM   H13B13165   6.031   4.788   6.140 -0.5159  0.2542  1.1495
  124OSM   H13C13166   6.064   4.877   5.989  0.2345  1.4949  0.7012
  124OSM    C1213167   5.943   5.117   6.084 -0.5234  0.1861  0.0290
  124OSM   H12A13168   5.874   5.077   6.011 -0.3004 -2.1002  0.9934
  124OSM   H12B13169   6.024   5.155   6.023 -0.3903 -0.6601 -0.3412
  124OSM    C1113170   5.888   5.229   6.173  0.1781 -0.4218  0.0459
  124OSM   H11A13171   5.782   5.212   6.201  0.4504  0.9704  2.1602
  124OSM   H11B13172   5.890   5.322   6.112  0.8502  0.9156  2.0165
  124OSM      P13173   5.952   5.349   6.404  0.2297 -0.1605  0.6477
  124OSM    O1313174   5.990   5.295   6.538  0.7127 -0.4168 -0.3613
  124OSM    O1413175   6.031   5.466   6.353  0.2903  0.5586 -0.5347
  124OSM    O1113176   5.796   5.392   6.405 -0.1864  0.0287  0.4228
  124OSM    O1213177   5.967   5.245   6.287 -0.3903 -0.5660 -0.2336
  124OSM    C1S13178   5.712   5.288   6.462 -0.3477  0.0830  0.0990
  124OSM    H1S13179   5.753   5.188   6.437  2.4293  1.6740 -2.1856
  124OSM    H1T13180   5.609   5.285   6.419 -0.2481  1.0272 -0.2142
  124OSM     NF13181   5.600   5.209   6.671  0.2129  0.4711 -0.1114
  124OSM    HNF13182   5.507   5.238   6.651 -0.2361 -0.1642  1.0080
  124OSM    C2S13183   5.689   5.312   6.617 -0.0694  0.4689  0.8097
  124OSM    H2S13184   5.786   5.305   6.670 -0.0230 -1.6654  0.5379
  124OSM    C3S13185   5.645   5.463   6.633 -0.8157 -0.0391  0.9125
  124OSM    H3S13186   5.564   5.483   6.561 -0.7482  0.5467  0.9959
  124OSM     O313187   5.738   5.568   6.598  0.0202 -0.1277 -0.8491
  124OSM    HO313188   5.805   5.514   6.555  2.5641  2.1838 -0.0379
  124OSM    C4S13189   5.604   5.495   6.770 -0.1525  0.6692  0.1444
  124OSM    H4S13190   5.684   5.473   6.843  0.8037 -0.1451 -1.1026
  124OSM    C5S13191   5.491   5.540   6.822  0.3649  0.5098  0.9943
  124OSM    H5S13192   5.400   5.550   6.761 -0.3598  1.0311  2.1226
  124OSM    C6S13193   5.457   5.566   6.970 -0.2020  0.2007 -0.2271
  124OSM    H6S13194   5.377   5.492   6.991 -0.0035  0.2522  0.7235
  124OSM    H6T13195   5.407   5.664   6.985 -2.8572 -0.8120 -1.7151
  124OSM    C7S13196   5.576   5.569   7.065 -0.2184 -0.0388 -0.0579
  124OSM    H7S13197   5.658   5.623   7.014  0.3938  1.5844  2.4728
  124OSM    H7T13198   5.604   5.463   7.083  0.3630 -0.1342 -1.4189
  124OSM    C8S13199   5.543   5.645   7.199 -0.8781 -0.9796 -0.3803
  124OSM    H8S13200   5.521   5.753   7.185 -0.3635 -1.0414 -1.8014
  124OSM    H8T13201   5.636   5.635   7.260  0.9152 -4.1331 -3.2645
  124OSM    C9S13202   5.417   5.579   7.273  0.3742 -0.1681  0.1629
  124OSM    H9S13203   5.452   5.476   7.296  0.9801 -0.3898 -1.6089
  124OSM    H9T13204   5.324   5.587   7.213 -0.2057  1.3191  1.2226
  124OSM   C10S13205   5.386   5.647   7.402  0.2574 -0.7296 -0.9911
  124OSM   H10S13206   5.361   5.753   7.379  0.2067  0.0271  2.1836
  124OSM   H10T13207   5.470   5.659   7.472 -1.1884  3.5556  0.3208
  124OSM   C11S13208   5.264   5.598   7.481 -0.1149 -0.3008  0.3186
  124OSM   H11S13209   5.248   5.491   7.456 -0.4860  0.1560 -1.5325
  124OSM   H11T13210   5.173   5.659   7.463  0.1555 -0.1416 -0.5595
  124OSM   C12S13211   5.283   5.599   7.637  0.3245 -0.6885 -0.1763
  124OSM   H12S13212   5.182   5.598   7.682  0.6701  2.1022  0.8495
  124OSM   H12T13213   5.323   5.696   7.673 -0.8358  1.0637 -3.1987
  124OSM   C13S13214   5.366   5.479   7.688 -0.2846  0.2317  0.5895
  124OSM   H13S13215   5.446   5.450   7.616  0.6497  2.0632  0.8358
  124OSM   H13T13216   5.299   5.392   7.702 -0.3386  0.4995  2.2786
  124OSM   C14S13217   5.420   5.502   7.826  0.5731 -0.1285  0.3165
  124OSM   H14S13218   5.333   5.548   7.879 -0.2497 -1.0403 -0.2087
  124OSM   H14T13219   5.506   5.570   7.838  0.0467  0.4045  1.2319
  124OSM   C15S13220   5.458   5.369   7.894 -0.2456 -0.2864 -0.5910
  124OSM   H15S13221   5.563   5.349   7.863 -0.3998 -0.0611 -1.2623
  124OSM   H15T13222   5.391   5.285   7.865 -0.3889 -0.9221  1.3916
  124OSM   C16S13223   5.459   5.392   8.051  0.3136 -0.1587 -0.4082
  124OSM   H16S13224   5.360   5.381   8.101  0.2759 -3.7868 -0.9998
  124OSM   H16T13225   5.499   5.495   8.066  2.0314 -0.7706 -0.6272
  124OSM   C17S13226   5.540   5.285   8.131 -0.4013 -0.6246 -0.1563
  124OSM   H17S13227   5.644   5.289   8.091 -0.6616 -0.2546 -0.7961
  124OSM   H17T13228   5.503   5.186   8.096  0.4612 -0.9095 -0.3007
  124OSM   C18S13229   5.539   5.306   8.285  0.5387  0.9255  0.4566
  124OSM   H18S13230   5.553   5.212   8.343  2.7297  1.2707  0.5950
  124OSM   H18T13231   5.452   5.365   8.318  1.2788  0.8679  2.6859
  124OSM   H18U13232   5.627   5.366   8.317 -0.4967  1.8990  1.5332
  124OSM    C1F13233   5.641   5.091   6.716  1.0345 -0.2560 -0.6670
  124OSM     OF13234   5.755   5.062   6.734  0.1546 -0.6530 -0.2095
  124OSM    C2F13235   5.545   4.984   6.723  0.6725  0.0373 -0.1392
  124OSM    H2F13236   5.572   4.893   6.665 -2.8528 -0.9012 -0.5503
  124OSM    H2G13237   5.458   5.025   6.666 -0.0454  2.1937  2.3257
  124OSM    C3F13238   5.509   4.949   6.871  0.5077  0.6242 -0.7701
  124OSM    H3F13239   5.598   4.928   6.934 -2.0454 -0.3165  2.8419
  124OSM    H3G13240   5.448   4.856   6.860  0.1495  0.8767 -0.9301
  124OSM    C4F13241   5.412   5.051   6.930 -0.1361  0.0633  0.3324
  124OSM    H4F13242   5.337   5.073   6.851  0.0737 -4.3700 -1.4171
  124OSM    H4G13243   5.467   5.146   6.947 -1.2866  0.4865  1.9355
  124OSM    C5F13244   5.348   4.999   7.057  0.0613  0.0995  0.1557
  124OSM    H5F13245   5.320   4.894   7.037 -1.1387  0.2629  0.8422
  124OSM    H5G13246   5.257   5.054   7.090  0.9507  1.0399  1.1550
  124OSM    C6F13247   5.448   5.030   7.171  0.9429  0.0669 -0.1752
  124OSM    H6F13248   5.485   5.135   7.165 -4.5726  2.3477  0.1648
  124OSM    H6G13249   5.526   4.950   7.174 -1.7900 -2.7595  1.7559
  124OSM    C7F13250   5.372   5.022   7.305  0.0566  1.2409  0.0916
  124OSM    H7F13251   5.363   4.917   7.340  1.5773  0.6618 -1.1442
  124OSM    H7G13252   5.267   5.056   7.294 -0.1855  0.7549  0.8939
  124OSM    C8F13253   5.448   5.095   7.414  0.1744  0.3782  0.8035
  124OSM    H8F13254   5.461   5.203   7.392 -0.6685  0.4394  0.5863
  124OSM    H8G13255   5.549   5.050   7.425 -0.3488 -0.5856  1.8499
  124OSM    C9F13256   5.375   5.083   7.545  0.2752 -0.4540  0.7113
  124OSM    H9F13257   5.268   5.099   7.524  0.7414  1.6707 -0.4121
  124OSM   C10F13258   5.421   5.048   7.665  0.9945 -0.6977  0.1882
  124OSM   H10F13259   5.349   5.051   7.748 -1.6030 -1.5867 -1.8790
  124OSM   C11F13260   5.558   5.044   7.713 -0.5659 -0.2105  0.4449
  124OSM   H11F13261   5.580   5.117   7.793 -0.8962 -1.2744  1.5358
  124OSM   H11G13262   5.638   5.056   7.637 -3.2421  2.5694 -2.2164
  124OSM   C12F13263   5.587   4.911   7.782  0.3816 -0.0997  0.3966
  124OSM   H12F13264   5.563   4.828   7.712 -1.4370  1.7999 -1.3532
  124OSM   H12G13265   5.513   4.892   7.863  0.9198 -0.5820  0.7889
  124OSM   C13F13266   5.726   4.904   7.847 -0.2689  0.1729  0.1107
  124OSM   H13F13267   5.744   4.991   7.914  4.4245  0.7778 -1.5924
  124OSM   H13G13268   5.809   4.920   7.775 -0.9365 -1.4460 -1.0671
  124OSM   C14F13269   5.745   4.787   7.937 -0.6010 -0.5276 -0.0258
  124OSM   H14F13270   5.738   4.686   7.891  1.1427  0.6694 -3.3040
  124OSM   H14G13271   5.669   4.793   8.017 -0.0780 -0.7465  0.4918
  124OSM   C15F13272   5.886   4.791   8.008 -0.5462  0.2000 -0.6614
  124OSM   H15F13273   5.910   4.891   8.051  0.1175 -0.1627 -0.1819
  124OSM   H15G13274   5.955   4.772   7.922 -1.6178  0.4588 -1.5988
  124OSM   C16F13275   5.898   4.676   8.110  0.4857 -0.1557  0.0361
  124OSM   H16F13276   5.873   4.585   8.051  0.0826  1.4718 -2.4124
  124OSM   H16G13277   5.808   4.694   8.171  0.2594  2.7624 -1.0038
  124OSM   C17F13278   6.030   4.668   8.177 -0.5205  0.7084 -0.1922
  124OSM   H17F13279   6.100   4.667   8.090 -1.1157  2.7509 -0.7657
  124OSM   H17G13280   6.050   4.578   8.238  0.2066  0.1131 -1.2664
  124OSM   C18F13281   6.066   4.791   8.266 -0.8783 -0.3662  0.1852
  124OSM   H18F13282   6.159   4.764   8.321 -1.4751  1.8175  2.4135
  124OSM   H18G13283   5.981   4.812   8.334 -2.0016 -0.2667 -1.2229
  124OSM   H18H13284   6.076   4.885   8.208  1.9898  0.4506  1.8062
  125OSM      N13285   0.158   0.593   6.112 -0.4623  0.0719  0.0820
  125OSM    C1513286   0.110   0.612   5.974 -0.6598 -0.1444  0.2666
  125OSM   H15A13287   0.126   0.712   5.938  0.2337 -0.4101 -0.0922
  125OSM   H15B13288   0.003   0.593   5.969 -0.6852  0.3386 -2.0949
  125OSM   H15C13289   0.141   0.539   5.901 -3.1690  1.3951 -2.5739
  125OSM    C1413290   0.079   0.674   6.199  0.5196 -0.7348  0.2940
  125OSM   H14A13291  -0.026   0.669   6.176  0.8284 -0.9689 -1.1128
  125OSM   H14B13292   0.107   0.778   6.192 -1.7449 -0.1237 -0.5163
  125OSM   H14C13293   0.093   0.643   6.302 -0.8874  0.1520  0.7806
  125OSM    C1313294   0.140   0.450   6.151  0.2667  0.3844  0.4861
  125OSM   H13A13295   0.183   0.428   6.248  3.1780 -0.9963 -0.9914
  125OSM   H13B13296   0.187   0.383   6.081  2.3919  1.3803  0.8759
  125OSM   H13C13297   0.034   0.431   6.156  0.0124  1.8405  1.0994
  125OSM    C1213298   0.299   0.636   6.130 -0.4374 -0.5218  0.3273
  125OSM   H12A13299   0.368   0.564   6.087 -0.5227 -2.0231  2.5394
  125OSM   H12B13300   0.318   0.635   6.236 -2.3988 -0.0224  0.7131
  125OSM    C1113301   0.337   0.775   6.070  0.2245 -0.2985 -0.9487
  125OSM   H11A13302   0.347   0.757   5.961  0.1996  2.2947 -1.4419
  125OSM   H11B13303   0.441   0.801   6.100  0.3908 -2.3868  0.4536
  125OSM      P13304   0.284   0.986   6.214 -0.3086 -0.5036  0.0798
  125OSM    O1313305   0.395   1.069   6.160  0.4495 -0.1652  0.0353
  125OSM    O1413306   0.155   1.057   6.246  0.4209 -0.4533  0.3039
  125OSM    O1113307   0.329   0.896   6.336  0.2857 -0.1398 -0.1607
  125OSM    O1213308   0.249   0.884   6.101  0.5967 -0.1639  0.0877
  125OSM    C1S13309   0.388   0.938   6.459 -0.4193 -0.5638 -0.0056
  125OSM    H1S13310   0.421   1.043   6.450 -1.4340 -0.1546  0.7910
  125OSM    H1T13311   0.483   0.883   6.476  0.1399  0.0653 -1.0309
  125OSM     NF13312   0.348   0.961   6.706 -0.0616  0.4074  0.8734
  125OSM    HNF13313   0.380   0.912   6.786  0.0208 -1.2783 -0.1448
  125OSM    C2S13314   0.296   0.902   6.583  0.0139  0.4720  0.6885
  125OSM    H2S13315   0.195   0.942   6.558 -0.2073  0.1101  0.9771
  125OSM    C3S13316   0.296   0.745   6.594 -0.5198 -0.2043  0.0136
  125OSM    H3S13317   0.389   0.724   6.650 -1.0796 -1.7537  0.4331
  125OSM     O313318   0.299   0.680   6.470  0.2488  0.8980  0.0495
  125OSM    HO313319   0.319   0.743   6.401 -1.4114  0.1887 -1.1240
  125OSM    C4S13320   0.189   0.694   6.692 -0.0397 -0.2156 -0.1030
  125OSM    H4S13321   0.219   0.675   6.796 -3.0148 -0.8823  0.7263
  125OSM    C5S13322   0.074   0.655   6.646 -0.1733  0.0924  0.2701
  125OSM    H5S13323   0.058   0.665   6.538  1.8420 -3.7768 -0.5578
  125OSM    C6S13324  -0.035   0.590   6.736 -0.1584 -0.1913 -0.0248
  125OSM    H6S13325  -0.043   0.485   6.700  0.5922 -0.3686  0.3051
  125OSM    H6T13326  -0.134   0.637   6.718  1.1493  1.6107 -3.3359
  125OSM    C7S13327  -0.006   0.579   6.888 -0.2754  0.1954  0.5970
  125OSM    H7S13328   0.004   0.677   6.940 -0.9580 -0.2938  1.6912
  125OSM    H7T13329   0.094   0.534   6.908  0.2287  0.7583 -0.5368
  125OSM    C8S13330  -0.107   0.495   6.963  0.0034 -0.0082  0.1956
  125OSM    H8S13331  -0.132   0.402   6.907 -1.1336 -0.5334  1.5150
  125OSM    H8T13332  -0.201   0.554   6.969  1.0688  1.8087 -0.0643
  125OSM    C9S13333  -0.049   0.455   7.101 -0.5007 -0.6420  0.0211
  125OSM    H9S13334  -0.000   0.546   7.143 -1.2387 -1.1335  2.0786
  125OSM    H9T13335   0.013   0.365   7.084  2.3784  1.5433 -2.2552
  125OSM   C10S13336  -0.171   0.428   7.190 -0.2912 -0.6146 -0.5284
  125OSM   H10S13337  -0.217   0.329   7.171  0.3937 -0.7254 -1.7078
  125OSM   H10T13338  -0.247   0.509   7.181  1.7275  1.8373  2.2677
  125OSM   C11S13339  -0.129   0.449   7.335  0.4079 -0.0783  0.0854
  125OSM   H11S13340  -0.088   0.552   7.346 -1.3464  0.6849 -0.2137
  125OSM   H11T13341  -0.042   0.381   7.353  0.5687 -0.6043 -2.3209
  125OSM   C12S13342  -0.232   0.433   7.449 -0.5166  0.0416  0.5620
  125OSM   H12S13343  -0.259   0.326   7.458 -0.9332  0.1873  1.0888
  125OSM   H12T13344  -0.318   0.497   7.420 -0.8580  0.6088  2.6375
  125OSM   C13S13345  -0.175   0.497   7.577 -0.3067 -0.3995  0.5606
  125OSM   H13S13346  -0.134   0.599   7.559  0.9107 -1.0066 -0.3063
  125OSM   H13T13347  -0.088   0.435   7.608 -0.9009 -0.5600  1.9441
  125OSM   C14S13348  -0.273   0.495   7.699 -0.1918 -0.2087 -0.2695
  125OSM   H14S13349  -0.301   0.388   7.713  0.8283 -0.3922  0.4494
  125OSM   H14T13350  -0.367   0.549   7.672 -0.8829 -1.6141 -0.8324
  125OSM   C15S13351  -0.221   0.552   7.834  0.3570  0.0313  0.1187
  125OSM   H15S13352  -0.310   0.565   7.900  0.1295  0.3104 -0.2362
  125OSM   H15T13353  -0.180   0.655   7.824  0.1072  0.2382  1.1057
  125OSM   C16S13354  -0.119   0.452   7.897  0.3169 -0.0673  0.6240
  125OSM   H16S13355  -0.033   0.448   7.827 -0.4710  0.9585 -0.4525
  125OSM   H16T13356  -0.159   0.349   7.889  1.0523 -0.3485  0.4222
  125OSM   C17S13357  -0.084   0.486   8.041 -0.4501 -0.3403  0.3605
  125OSM   H17S13358  -0.179   0.499   8.097 -0.2775  0.1424  0.5472
  125OSM   H17T13359  -0.026   0.581   8.041  0.3649 -0.8224 -0.6825
  125OSM   C18S13360   0.007   0.383   8.106 -0.5328  0.4436 -0.0768
  125OSM   H18S13361  -0.035   0.290   8.151  1.3968 -0.2333  0.4092
  125OSM   H18T13362   0.057   0.423   8.197 -0.2861 -0.9118  0.4193
  125OSM   H18U13363   0.086   0.351   8.035  0.6270 -0.3710  1.5113
  125OSM    C1F13364   0.355   1.093   6.720  1.2166  0.2380 -0.0103
  125OSM     OF13365   0.336   1.166   6.628  0.3482  0.4030  0.2083
  125OSM    C2F13366   0.389   1.134   6.856  0.3374 -1.3121 -0.3590
  125OSM    H2F13367   0.465   1.072   6.908  1.7995  1.8568  1.6064
  125OSM    H2G13368   0.294   1.128   6.914  0.6338  0.3583  0.3594
  125OSM    C3F13369   0.423   1.284   6.863 -0.1088  0.3101 -0.2145
  125OSM    H3F13370   0.354   1.350   6.807 -1.2536 -1.1551 -0.5977
  125OSM    H3G13371   0.524   1.299   6.818 -0.7238  1.7866 -1.1673
  125OSM    C4F13372   0.422   1.333   7.013  0.3563 -0.5056  0.4746
  125OSM    H4F13373   0.520   1.378   7.043 -0.6420  1.4757  0.9318
  125OSM    H4G13374   0.415   1.243   7.077 -0.6628  0.4349  1.7433
  125OSM    C5F13375   0.305   1.423   7.042  0.1882 -0.4582  0.3561
  125OSM    H5F13376   0.210   1.386   6.996 -0.3967 -0.1173  1.2503
  125OSM    H5G13377   0.316   1.515   6.980  0.2807 -0.2401  0.6928
  125OSM    C6F13378   0.282   1.465   7.182 -0.2356  0.1301  0.0071
  125OSM    H6F13379   0.203   1.542   7.177  0.7719  1.1790 -0.3404
  125OSM    H6G13380   0.375   1.505   7.230 -0.8133  0.9482  0.4698
  125OSM    C7F13381   0.224   1.354   7.272  0.6094  0.3394  0.0517
  125OSM    H7F13382   0.263   1.254   7.244 -3.7212 -1.1212 -1.7198
  125OSM    H7G13383   0.114   1.352   7.255  0.3268  1.4038  1.5487
  125OSM    C8F13384   0.251   1.360   7.423 -0.2765 -0.5088  0.2578
  125OSM    H8F13385   0.213   1.460   7.454 -2.0895 -0.5552 -1.5990
  125OSM    H8G13386   0.362   1.355   7.421 -0.2315 -0.4326  1.4780
  125OSM    C9F13387   0.206   1.240   7.500  0.2748 -0.1597  0.3423
  125OSM    H9F13388   0.114   1.196   7.459  0.6756 -0.2742 -0.4628
  125OSM   C10F13389   0.274   1.179   7.596  0.3070  0.6917 -0.2352
  125OSM   H10F13390   0.214   1.108   7.654 -0.0229  1.3470  0.2444
  125OSM   C11F13391   0.412   1.215   7.657 -0.3241 -0.3092  0.4486
  125OSM   H11F13392   0.405   1.300   7.728  2.7537 -0.4722  1.0665
  125OSM   H11G13393   0.479   1.251   7.576 -1.5274  0.6881 -0.1384
  125OSM   C12F13394   0.473   1.102   7.740  0.1064  0.5623 -0.4922
  125OSM   H12F13395   0.581   1.117   7.760 -0.2662  1.2346  1.1501
  125OSM   H12G13396   0.469   1.013   7.673 -3.2246  1.3776 -1.5563
  125OSM   C13F13397   0.403   1.051   7.864 -0.5722 -0.4848 -0.1689
  125OSM   H13F13398   0.440   0.950   7.889  0.5456 -0.5590 -1.9107
  125OSM   H13G13399   0.294   1.044   7.846 -0.8991  0.9564  1.0475
  125OSM   C14F13400   0.438   1.129   7.992 -0.8285  0.0191 -0.2355
  125OSM   H14F13401   0.444   1.236   7.962  1.8646 -0.0673 -0.2249
  125OSM   H14G13402   0.545   1.108   8.014 -0.0742  0.9878 -2.6257
  125OSM   C15F13403   0.351   1.105   8.113  0.4309 -0.2547 -0.3356
  125OSM   H15F13404   0.369   1.002   8.151 -3.0521 -0.5893  0.7325
  125OSM   H15G13405   0.245   1.122   8.087  0.0713 -0.3509  1.0051
  125OSM   C16F13406   0.376   1.202   8.235  0.0952  0.0214 -0.3837
  125OSM   H16F13407   0.358   1.308   8.209  1.8820  0.7964  1.3395
  125OSM   H16G13408   0.483   1.202   8.265 -0.0481  3.4233  0.5324
  125OSM   C17F13409   0.296   1.156   8.355  0.5996 -0.0902 -0.1235
  125OSM   H17F13410   0.321   1.054   8.390 -0.2429  0.0097  0.8107
  125OSM   H17G13411   0.193   1.149   8.313  1.0849  0.1177 -1.4134
  125OSM   C18F13412   0.310   1.258   8.464  0.2647 -0.0046 -0.0714
  125OSM   H18F13413   0.249   1.348   8.443  0.5170  0.0090 -0.7978
  125OSM   H18G13414   0.414   1.292   8.482  0.7881 -1.1846 -0.7206
  125OSM   H18H13415   0.255   1.219   8.552 -1.6427  1.0688 -0.7456
  126OSM      N13416   2.966   0.224   6.012 -0.3893  0.1002 -0.1277
  126OSM    C1513417   3.014   0.080   6.006 -0.0070 -0.9112 -0.4464
  126OSM   H15A13418   3.023   0.050   5.903  1.5061  0.8745 -0.9081
  126OSM   H15B13419   2.932   0.021   6.043 -1.3490 -0.0990 -1.9624
  126OSM   H15C13420   3.097   0.063   6.074 -0.4886 -0.8802  0.1550
  126OSM    C1413421   2.842   0.244   5.934  0.4244 -0.7923 -0.0434
  126OSM   H14A13422   2.810   0.347   5.937 -0.8765 -1.1951  1.7860
  126OSM   H14B13423   2.762   0.179   5.966 -0.9578 -0.3202 -2.3139
  126OSM   H14C13424   2.862   0.227   5.830  0.4203 -1.8342  0.1146
  126OSM    C1313425   2.907   0.241   6.152 -0.2609 -0.0887  0.0758
  126OSM   H13A13426   2.833   0.165   6.172  0.5022 -0.5350  1.3259
  126OSM   H13B13427   2.866   0.340   6.155  0.0067  0.0172  0.2996
  126OSM   H13C13428   2.981   0.239   6.231  0.7676 -1.3222 -0.8624
  126OSM    C1213429   3.070   0.334   5.997  0.2017  0.0598  0.4675
  126OSM   H12A13430   3.144   0.304   6.070 -1.8941 -1.0758  2.2788
  126OSM   H12B13431   3.020   0.422   6.035 -0.7444 -0.3983  0.3341
  126OSM    C1113432   3.119   0.361   5.854 -0.8125  0.3694 -0.6173
  126OSM   H11A13433   3.189   0.446   5.870 -1.1993  0.4805  0.5455
  126OSM   H11B13434   3.036   0.390   5.786  0.9519  0.5936 -2.8019
  126OSM      P13435   3.337   0.219   5.814  0.2441 -0.2160  0.6619
  126OSM    O1313436   3.361   0.075   5.776  0.2807 -0.4807 -0.1569
  126OSM    O1413437   3.416   0.326   5.746  0.0270 -0.2762  0.3185
  126OSM    O1113438   3.363   0.234   5.962 -0.4532 -0.4653 -0.2780
  126OSM    O1213439   3.184   0.246   5.796  0.1478 -0.2183 -0.1972
  126OSM    C1S13440   3.419   0.126   6.039  0.1587  0.4253 -0.1169
  126OSM    H1S13441   3.500   0.078   5.980  0.0925  0.8026 -0.5252
  126OSM    H1T13442   3.339   0.051   6.059 -0.3399  1.1789  0.8088
  126OSM     NF13443   3.511   0.062   6.240 -0.2840  0.4308 -0.4497
  126OSM    HNF13444   3.467   0.034   6.325  1.7691  0.4608  0.7128
  126OSM    C2S13445   3.471   0.182   6.177  0.7289 -0.3877 -0.4440
  126OSM    H2S13446   3.558   0.250   6.169  1.4039 -1.3971 -2.1047
  126OSM    C3S13447   3.364   0.269   6.254  0.0672 -0.0259  0.8041
  126OSM    H3S13448   3.276   0.202   6.260 -0.3282  0.4447  0.3109
  126OSM     O313449   3.311   0.384   6.182  0.7202 -0.0623 -0.2349
  126OSM    HO313450   3.327   0.356   6.091  2.9736  0.2030  0.0190
  126OSM    C4S13451   3.413   0.302   6.394  0.6319  0.2873 -0.1478
  126OSM    H4S13452   3.385   0.225   6.468 -1.1374  1.1251  0.1286
  126OSM    C5S13453   3.485   0.407   6.434 -0.1461 -0.0142  0.1510
  126OSM    H5S13454   3.525   0.468   6.352 -2.0327 -1.5816 -2.0510
  126OSM    C6S13455   3.534   0.439   6.578  0.4016 -0.1131  0.6028
  126OSM    H6S13456   3.506   0.544   6.600  2.4975  0.6696 -0.2434
  126OSM    H6T13457   3.644   0.431   6.586  0.4171 -1.7600 -0.6535
  126OSM    C7S13458   3.473   0.355   6.699  0.8398 -0.1909  0.1936
  126OSM    H7S13459   3.523   0.257   6.712 -0.5615 -0.7761  1.3416
  126OSM    H7T13460   3.368   0.324   6.680  0.3491  1.8597 -0.7124
  126OSM    C8S13461   3.505   0.421   6.836 -0.1357  0.1466  0.1119
  126OSM    H8S13462   3.463   0.523   6.823 -0.7404 -0.1160 -0.0038
  126OSM    H8T13463   3.615   0.437   6.844  0.2805 -1.1510 -2.0777
  126OSM    C9S13464   3.454   0.337   6.955  0.3732 -0.0723  0.0957
  126OSM    H9S13465   3.511   0.242   6.959 -0.3011 -0.5894 -1.5242
  126OSM    H9T13466   3.346   0.315   6.936 -0.2117  1.8745  0.8990
  126OSM   C10S13467   3.451   0.422   7.082 -0.4619 -0.0058  0.2433
  126OSM   H10S13468   3.362   0.489   7.080 -0.2071  0.3582 -2.4066
  126OSM   H10T13469   3.541   0.485   7.099  0.2758 -1.4088  1.8079
  126OSM   C11S13470   3.437   0.329   7.201  0.3904  0.1566 -0.7237
  126OSM   H11S13471   3.524   0.262   7.208 -0.0042 -0.2667  0.4642
  126OSM   H11T13472   3.338   0.279   7.200  0.8006 -0.6582 -0.7411
  126OSM   C12S13473   3.439   0.420   7.319 -0.2499  0.0925 -0.9206
  126OSM   H12S13474   3.363   0.500   7.321  0.9032  1.2018 -0.1991
  126OSM   H12T13475   3.537   0.469   7.335 -0.8961  0.3993  3.2093
  126OSM   C13S13476   3.420   0.345   7.457  0.0003  0.5149  0.6932
  126OSM   H13S13477   3.503   0.271   7.462 -0.3014  0.1411  0.2832
  126OSM   H13T13478   3.327   0.284   7.453  2.0504 -2.8293 -0.3262
  126OSM   C14S13479   3.412   0.451   7.570 -0.0241  0.1310  0.0908
  126OSM   H14S13480   3.319   0.512   7.559 -1.7625 -2.0959  1.5191
  126OSM   H14T13481   3.502   0.517   7.569  1.5529 -1.9192 -1.5086
  126OSM   C15S13482   3.393   0.394   7.712  0.6872 -0.2883  0.3212
  126OSM   H15S13483   3.308   0.323   7.718  0.8525 -0.3595  3.5009
  126OSM   H15T13484   3.359   0.481   7.770  0.9550 -0.2277  0.3904
  126OSM   C16S13485   3.527   0.347   7.770  0.1245 -0.3792  0.4882
  126OSM   H16S13486   3.609   0.421   7.770 -0.0496 -0.1734  1.3366
  126OSM   H16T13487   3.547   0.255   7.712  0.7316  0.8665 -1.3660
  126OSM   C17S13488   3.524   0.293   7.907  0.2981 -0.0787 -0.3398
  126OSM   H17S13489   3.424   0.249   7.924  0.2265  0.3220  0.3334
  126OSM   H17T13490   3.520   0.372   7.985 -1.7173 -0.7131  0.2587
  126OSM   C18S13491   3.633   0.190   7.950  0.4876 -0.0722  0.2685
  126OSM   H18S13492   3.740   0.221   7.946  1.0877 -2.0679 -0.5282
  126OSM   H18T13493   3.638   0.112   7.871  1.0311  0.1002  0.1256
  126OSM   H18U13494   3.600   0.149   8.048 -3.0467  1.7832 -0.0183
  126OSM    C1F13495   3.619  -0.012   6.200  0.0163  0.1391 -0.8652
  126OSM     OF13496   3.709   0.037   6.132  0.6002  0.5596  0.3881
  126OSM    C2F13497   3.624  -0.153   6.260  0.4588 -0.0153  0.1433
  126OSM    H2F13498   3.598  -0.218   6.174  0.0619 -0.9896  0.9705
  126OSM    H2G13499   3.545  -0.161   6.338  0.0840 -0.3105 -0.2614
  126OSM    C3F13500   3.766  -0.187   6.318 -0.5345 -0.1388  0.2443
  126OSM    H3F13501   3.775  -0.094   6.378 -3.2294  0.5528 -0.2793
  126OSM    H3G13502   3.844  -0.172   6.241 -1.3999 -0.6308 -0.7580
  126OSM    C4F13503   3.787  -0.314   6.402  0.6191 -0.0312 -0.2024
  126OSM    H4F13504   3.894  -0.324   6.429  0.4491 -2.0016 -0.0783
  126OSM    H4G13505   3.764  -0.397   6.332 -1.4319  0.3689 -0.0750
  126OSM    C5F13506   3.696  -0.330   6.523 -0.9440 -0.1312  0.4712
  126OSM    H5F13507   3.592  -0.333   6.484 -0.0415  0.3858 -2.2724
  126OSM    H5G13508   3.700  -0.247   6.596  2.9455  1.0181 -0.8077
  126OSM    C6F13509   3.721  -0.467   6.596 -0.2031  0.2545 -0.0407
  126OSM    H6F13510   3.787  -0.438   6.680  0.8044  1.0370 -1.0689
  126OSM    H6G13511   3.788  -0.530   6.533 -0.6529  1.1512 -1.4798
  126OSM    C7F13512   3.584  -0.538   6.625 -0.8268 -0.0105  0.5368
  126OSM    H7F13513   3.550  -0.570   6.525  1.6964 -0.3943 -0.2686
  126OSM    H7G13514   3.516  -0.461   6.667  0.0105  0.3593  1.2705
  126OSM    C8F13515   3.604  -0.668   6.696 -0.1903 -0.2715 -0.6985
  126OSM    H8F13516   3.673  -0.657   6.783 -1.0054  0.1275 -0.0877
  126OSM    H8G13517   3.647  -0.744   6.627  0.4683 -1.3672  0.8336
  126OSM    C9F13518   3.475  -0.745   6.735  0.7625 -0.4664  0.1575
  126OSM    H9F13519   3.447  -0.837   6.682  0.2051 -0.4001  0.3287
  126OSM   C10F13520   3.393  -0.694   6.830 -0.0992  0.5526  0.3115
  126OSM   H10F13521   3.301  -0.752   6.846  0.5399 -1.4530 -2.5626
  126OSM   C11F13522   3.420  -0.568   6.911 -0.1370  0.2350  0.5503
  126OSM   H11F13523   3.336  -0.498   6.890  0.4420  0.7821 -0.0043
  126OSM   H11G13524   3.505  -0.508   6.871  0.0376 -0.4300 -0.0978
  126OSM   C12F13525   3.430  -0.590   7.061  0.0397  0.1229  0.3457
  126OSM   H12F13526   3.475  -0.690   7.077  1.1160  0.2736 -1.4268
  126OSM   H12G13527   3.324  -0.593   7.093 -0.9249 -2.7703 -2.4444
  126OSM   C13F13528   3.507  -0.478   7.132  0.0702  0.8592  0.7284
  126OSM   H13F13529   3.455  -0.392   7.086 -0.2597  1.3424  1.9639
  126OSM   H13G13530   3.612  -0.476   7.097  0.3860  2.6707  1.6559
  126OSM   C14F13531   3.510  -0.472   7.281  0.5406  0.1620 -0.0477
  126OSM   H14F13532   3.408  -0.472   7.323 -0.2913  0.9916 -1.9486
  126OSM   H14G13533   3.556  -0.378   7.320  1.0948  0.3091 -1.0288
  126OSM   C15F13534   3.600  -0.577   7.355 -0.2827  0.1059  0.1733
  126OSM   H15F13535   3.700  -0.587   7.307 -1.1557 -1.5513 -1.4134
  126OSM   H15G13536   3.560  -0.680   7.342 -0.5416  0.1690  0.4599
  126OSM   C16F13537   3.601  -0.541   7.504 -0.0255  0.7066 -0.6315
  126OSM   H16F13538   3.500  -0.508   7.535 -0.8260 -0.7589 -1.5788
  126OSM   H16G13539   3.663  -0.449   7.510  0.2035  0.5481 -0.5583
  126OSM   C17F13540   3.676  -0.637   7.601 -0.4653  0.5856  0.2587
  126OSM   H17F13541   3.640  -0.740   7.579  0.9949  0.4719 -1.9616
  126OSM   H17G13542   3.658  -0.607   7.706  1.1039  2.7782 -0.0303
  126OSM   C18F13543   3.822  -0.645   7.563 -0.0446 -0.1751 -0.0569
  126OSM   H18F13544   3.822  -0.741   7.508 -3.1320 -0.3739  0.1163
  126OSM   H18G13545   3.890  -0.650   7.651  2.7971 -1.9479 -2.1913
  126OSM   H18H13546   3.854  -0.560   7.498 -1.2313 -0.7756 -1.4776
  127OSM      N13547   5.657   5.597   6.084  0.0854  0.4055  0.2414
  127OSM    C1513548   5.714   5.490   5.992  0.1120 -0.2680  0.4012
  127OSM   H15A13549   5.660   5.467   5.902  1.2246 -4.3346  0.5919
  127OSM   H15B13550   5.694   5.400   6.048 -2.1016 -0.5700 -0.7709
  127OSM   H15C13551   5.821   5.506   5.982 -0.1714  0.7474 -1.5975
  127OSM    C1413552   5.741   5.590   6.206  0.0674 -0.4145  0.1261
  127OSM   H14A13553   5.725   5.676   6.269  1.0802 -0.1364  0.0278
  127OSM   H14B13554   5.845   5.583   6.176 -0.3776  0.4957 -1.7452
  127OSM   H14C13555   5.719   5.505   6.269  2.5042 -2.1965 -1.2604
  127OSM    C1313556   5.663   5.724   6.010 -0.7925  0.2459  0.8834
  127OSM   H13A13557   5.634   5.811   6.067  0.2327  2.6534 -2.0314
  127OSM   H13B13558   5.588   5.725   5.933  0.9835  1.2939 -0.9186
  127OSM   H13C13559   5.761   5.746   5.971 -0.2639  0.2648  2.1711
  127OSM    C1213560   5.512   5.558   6.111  0.1009 -0.7934 -0.8296
  127OSM   H12A13561   5.462   5.534   6.019 -1.6091 -0.5530  0.0062
  127OSM   H12B13562   5.461   5.645   6.148  0.6092 -1.7138  2.3731
  127OSM    C1113563   5.478   5.443   6.204 -0.0696  0.2814  0.2984
  127OSM   H11A13564   5.369   5.424   6.190  0.7843 -4.3569 -1.6929
  127OSM   H11B13565   5.506   5.461   6.310 -1.7497  0.4125  0.7574
  127OSM      P13566   5.474   5.196   6.103  0.2950  0.1512 -0.3900
  127OSM    O1313567   5.451   5.214   5.958  0.1944  0.6175 -0.1601
  127OSM    O1413568   5.555   5.080   6.140 -0.3608 -0.1763 -0.3218
  127OSM    O1113569   5.334   5.196   6.175 -0.2061 -0.2160 -0.3880
  127OSM    O1213570   5.545   5.322   6.163 -0.3807 -0.0768  0.2597
  127OSM    C1S13571   5.282   5.169   6.303 -0.0858  0.5812  0.3661
  127OSM    H1S13572   5.353   5.189   6.386 -0.3251 -1.4945  1.1323
  127OSM    H1T13573   5.252   5.062   6.308 -0.2777  0.5668 -0.7330
  127OSM     NF13574   5.122   5.245   6.477 -0.0502  0.1186  0.0805
  127OSM    HNF13575   5.037   5.194   6.483 -1.2707  2.0538  0.2054
  127OSM    C2S13576   5.159   5.256   6.338 -0.2762  0.0107  0.9948
  127OSM    H2S13577   5.174   5.365   6.326  2.0685 -0.4028 -0.4875
  127OSM    C3S13578   5.052   5.233   6.226  0.4255 -0.6508  0.3266
  127OSM    H3S13579   5.035   5.123   6.222  1.8499 -0.9313  1.3262
  127OSM     O313580   5.092   5.271   6.100  0.1162  0.8364  0.3544
  127OSM    HO313581   5.184   5.295   6.108  0.1229  0.8904  0.1036
  127OSM    C4S13582   4.928   5.308   6.260  0.4857  0.7680 -0.4950
  127OSM    H4S13583   4.947   5.416   6.252  0.6542  0.6824 -1.3748
  127OSM    C5S13584   4.800   5.257   6.279 -0.4894  0.1580  0.0569
  127OSM    H5S13585   4.768   5.155   6.252 -0.0769  0.1725 -0.5090
  127OSM    C6S13586   4.688   5.349   6.328  1.3816 -0.2279 -0.3562
  127OSM    H6S13587   4.626   5.276   6.386 -0.4798  0.7315 -1.0653
  127OSM    H6T13588   4.614   5.393   6.259  0.8095  0.4527  0.6723
  127OSM    C7S13589   4.725   5.439   6.444  0.1719 -0.2515 -0.4535
  127OSM    H7S13590   4.782   5.516   6.387  0.6160  0.8594  1.4017
  127OSM    H7T13591   4.800   5.385   6.505 -1.2041 -0.9282  0.7000
  127OSM    C8S13592   4.608   5.493   6.524  0.0549  0.2108 -0.0181
  127OSM    H8S13593   4.542   5.405   6.531  1.9293 -1.3649 -1.0586
  127OSM    H8T13594   4.557   5.574   6.467 -0.2321  0.6196  0.8092
  127OSM    C9S13595   4.650   5.547   6.665  0.1209 -0.2214 -0.3791
  127OSM    H9S13596   4.703   5.463   6.714 -0.3610  1.6071  3.6884
  127OSM    H9T13597   4.570   5.582   6.734  0.1600 -1.5322  0.3573
  127OSM   C10S13598   4.750   5.672   6.652 -0.2697  0.1702 -0.4084
  127OSM   H10S13599   4.702   5.744   6.583  1.1992 -1.3169 -3.1735
  127OSM   H10T13600   4.837   5.630   6.596 -1.0555 -0.5260 -1.1276
  127OSM   C11S13601   4.794   5.718   6.789 -0.0664 -0.2149  0.1637
  127OSM   H11S13602   4.824   5.629   6.848 -0.6717  1.1556  2.6777
  127OSM   H11T13603   4.711   5.774   6.836  0.3641 -1.7256  2.8820
  127OSM   C12S13604   4.925   5.801   6.780 -1.0103 -0.0776  0.5563
  127OSM   H12S13605   4.889   5.891   6.726 -1.0422  0.1298  0.9226
  127OSM   H12T13606   4.998   5.748   6.715 -0.0665  1.0214  0.6747
  127OSM   C13S13607   4.962   5.833   6.915  0.3383  0.3382 -0.4693
  127OSM   H13S13608   4.975   5.743   6.978  2.3864  1.4411  0.8041
  127OSM   H13T13609   4.888   5.905   6.956 -0.0396  0.6568 -1.6585
  127OSM   C14S13610   5.095   5.920   6.921  0.1153 -0.2768 -0.4327
  127OSM   H14S13611   5.070   6.025   6.894 -0.2076  0.2909  1.8007
  127OSM   H14T13612   5.150   5.866   6.841 -2.6979 -0.1168 -2.6215
  127OSM   C15S13613   5.169   5.912   7.055  0.3191  0.1467  0.6491
  127OSM   H15S13614   5.209   5.809   7.064 -0.9634 -0.5685 -1.2585
  127OSM   H15T13615   5.103   5.941   7.139  0.6553 -0.1694  1.0226
  127OSM   C16S13616   5.286   6.014   7.051 -0.5707  0.0262 -0.5772
  127OSM   H16S13617   5.238   6.114   7.048 -3.0752 -1.0787 -0.1558
  127OSM   H16T13618   5.358   5.994   6.969 -0.2244  0.1665 -0.3066
  127OSM   C17S13619   5.359   6.012   7.188 -0.6269 -0.6210 -0.4394
  127OSM   H17S13620   5.418   5.918   7.190  1.7784  0.7885 -0.5704
  127OSM   H17T13621   5.293   6.009   7.277 -1.4869  1.1926 -0.9708
  127OSM   C18S13622   5.450   6.133   7.201  0.7690 -0.1438 -0.5649
  127OSM   H18S13623   5.515   6.112   7.288 -0.8591 -2.7846  0.1282
  127OSM   H18T13624   5.385   6.223   7.207  0.9854 -0.0694  0.8828
  127OSM   H18U13625   5.514   6.149   7.111  0.8035  0.5836 -0.4164
  127OSM    C1F13626   5.188   5.299   6.579 -0.1961 -0.6687 -0.0613
  127OSM     OF13627   5.304   5.343   6.568 -0.4852 -0.0084  0.0560
  127OSM    C2F13628   5.112   5.296   6.704  0.1540  0.4327 -0.2871
  127OSM    H2F13629   5.148   5.215   6.771  0.8371 -1.4154 -2.7526
  127OSM    H2G13630   5.005   5.273   6.687 -0.0964  1.4451 -0.1295
  127OSM    C3F13631   5.117   5.425   6.793 -0.0024 -0.5020 -0.2435
  127OSM    H3F13632   5.086   5.517   6.739  1.2182  0.5629  0.8085
  127OSM    H3G13633   5.225   5.446   6.807 -0.1406  1.9161 -2.0791
  127OSM    C4F13634   5.039   5.406   6.922  0.4937  0.2321  0.2816
  127OSM    H4F13635   4.931   5.426   6.904  0.3118 -0.2505  0.8372
  127OSM    H4G13636   5.062   5.497   6.981  0.1710 -0.9141  2.2533
  127OSM    C5F13637   5.066   5.276   7.000 -0.1899 -0.5178  0.5435
  127OSM    H5F13638   5.175   5.265   6.982  0.3634  1.8193  2.0487
  127OSM    H5G13639   5.012   5.187   6.961  1.1443 -1.2561  0.3472
  127OSM    C6F13640   5.061   5.272   7.155  0.3614  0.3148  0.7087
  127OSM    H6F13641   5.139   5.347   7.183  2.6220 -1.4091 -0.6379
  127OSM    H6G13642   5.097   5.173   7.191  2.8629  0.7008 -0.4771
  127OSM    C7F13643   4.925   5.298   7.216  0.0639  0.5445 -0.6497
  127OSM    H7F13644   4.854   5.221   7.179  0.9384 -0.8503  0.4834
  127OSM    H7G13645   4.889   5.398   7.181 -0.7962  0.8333  0.9589
  127OSM    C8F13646   4.922   5.279   7.372 -0.4412 -0.0649 -0.2007
  127OSM    H8F13647   4.973   5.186   7.405  0.6743 -0.0539 -1.7849
  127OSM    H8G13648   4.816   5.268   7.402 -0.6388  0.8377 -0.5429
  127OSM    C9F13649   4.977   5.401   7.441  0.5772 -1.0668 -0.0705
  127OSM    H9F13650   5.076   5.433   7.405  1.0207 -1.1155  1.0621
  127OSM   C10F13651   4.914   5.469   7.541  0.1658  0.0755 -0.6268
  127OSM   H10F13652   4.963   5.554   7.592 -0.6259 -1.7861  3.7006
  127OSM   C11F13653   4.796   5.429   7.617  0.0134 -0.2967  0.1054
  127OSM   H11F13654   4.800   5.326   7.660  0.7680 -0.4609 -0.3444
  127OSM   H11G13655   4.711   5.413   7.547 -0.6290  1.1843  0.5202
  127OSM   C12F13656   4.750   5.515   7.737  0.4084 -0.2573 -0.2667
  127OSM   H12F13657   4.827   5.512   7.817 -0.2659 -0.0780  0.4112
  127OSM   H12G13658   4.657   5.470   7.778  0.9343  1.5827  3.3871
  127OSM   C13F13659   4.714   5.663   7.716 -0.1326 -0.3360  0.2508
  127OSM   H13F13660   4.652   5.685   7.627  1.6327  0.6877 -0.7700
  127OSM   H13G13661   4.812   5.710   7.693  0.5168  0.3389  3.8057
  127OSM   C14F13662   4.665   5.742   7.846 -0.1193 -0.0843 -0.0327
  127OSM   H14F13663   4.752   5.742   7.916  0.2338 -1.4107 -0.4557
  127OSM   H14G13664   4.581   5.679   7.882  1.4278 -2.0188  0.3250
  127OSM   C15F13665   4.635   5.894   7.818 -0.1513  0.5800  0.5255
  127OSM   H15F13666   4.530   5.904   7.784 -0.0166  0.9398  0.2212
  127OSM   H15G13667   4.702   5.932   7.738 -0.7603  0.3641 -0.0901
  127OSM   C16F13668   4.652   5.979   7.936 -0.3492  0.9478 -0.3377
  127OSM   H16F13669   4.757   5.972   7.973 -1.1291 -0.8301  1.7357
  127OSM   H16G13670   4.592   5.953   8.026  1.1395  3.2196  1.4328
  127OSM   C17F13671   4.621   6.125   7.898  0.2497 -0.8536 -0.2546
  127OSM   H17F13672   4.646   6.195   7.981 -0.9664  0.4463 -0.9509
  127OSM   H17G13673   4.515   6.144   7.871  0.2328 -1.8353 -0.9213
  127OSM   C18F13674   4.712   6.170   7.782 -0.3706 -0.1215 -0.1230
  127OSM   H18F13675   4.815   6.142   7.814 -1.3963 -0.5539  3.2000
  127OSM   H18G13676   4.707   6.281   7.774  2.3673  0.1259  0.6021
  127OSM   H18H13677   4.696   6.134   7.679 -0.1217 -3.5492  0.9148
  128OSM      N13678   0.152   2.776   5.650 -0.1710  0.3050  0.0287
  128OSM    C1513679   0.022   2.775   5.732 -0.4395  0.0937 -0.4410
  128OSM   H15A13680   0.036   2.768   5.839 -1.6281  1.6710 -0.1554
  128OSM   H15B13681  -0.054   2.704   5.704 -0.9600  0.6623 -0.4823
  128OSM   H15C13682  -0.027   2.869   5.713 -0.4305 -0.2679 -2.4801
  128OSM    C1413683   0.226   2.650   5.677 -1.0811  0.9174 -0.2781
  128OSM   H14A13684   0.312   2.637   5.613 -0.1179 -1.2894  1.3361
  128OSM   H14B13685   0.156   2.570   5.661 -0.3363  0.2773 -0.3650
  128OSM   H14C13686   0.268   2.631   5.774 -1.0961  1.3517 -0.1813
  128OSM    C1313687   0.125   2.769   5.500 -0.0057  0.6194 -0.1936
  128OSM   H13A13688   0.072   2.678   5.478  0.9151  0.0585 -0.1678
  128OSM   H13B13689   0.219   2.761   5.447  0.3724  2.5630  0.1054
  128OSM   H13C13690   0.063   2.852   5.470 -2.4746 -1.0226  0.1344
  128OSM    C1213691   0.246   2.894   5.683  1.4463 -1.0858  0.5319
  128OSM   H12A13692   0.197   2.986   5.655  0.9298 -1.5721 -0.2254
  128OSM   H12B13693   0.327   2.905   5.612  0.3853  3.1997 -0.3045
  128OSM    C1113694   0.299   2.913   5.829 -0.3106  0.6898  0.2909
  128OSM   H11A13695   0.376   2.993   5.830 -1.3903  1.8087 -1.1699
  128OSM   H11B13696   0.355   2.819   5.852 -0.6960  0.4691  0.3309
  128OSM      P13697   0.137   3.073   5.944  0.0073 -0.2779  0.0621
  128OSM    O1313698   0.207   3.176   5.865  0.0467  0.5837 -0.2634
  128OSM    O1413699  -0.007   3.061   5.923 -0.3623 -0.0003 -0.7017
  128OSM    O1113700   0.166   3.103   6.098  0.4248  0.3890  0.5963
  128OSM    O1213701   0.200   2.935   5.926 -0.8626 -0.0393 -0.5087
  128OSM    C1S13702   0.146   2.999   6.192  0.9162 -0.1435  0.3806
  128OSM    H1S13703   0.219   2.916   6.177  0.1061 -0.7855 -0.1487
  128OSM    H1T13704   0.045   2.955   6.178  1.2575 -0.2139 -2.5030
  128OSM     NF13705   0.170   2.936   6.432  0.1671 -0.1906 -0.4467
  128OSM    HNF13706   0.083   2.903   6.468 -0.4173 -0.3008 -1.8988
  128OSM    C2S13707   0.159   3.047   6.337 -0.3296 -0.4882  0.0328
  128OSM    H2S13708   0.252   3.106   6.345 -0.2959 -0.8344  3.5415
  128OSM    C3S13709   0.046   3.151   6.364 -0.3074 -0.1147 -0.1958
  128OSM    H3S13710  -0.046   3.096   6.395  1.4425 -1.4119  3.2083
  128OSM     O313711   0.013   3.243   6.263 -0.4861 -0.3586  0.6405
  128OSM    HO313712   0.056   3.211   6.184 -1.8550 -0.5963 -0.0444
  128OSM    C4S13713   0.078   3.215   6.503 -0.5520  0.1449 -0.3113
  128OSM    H4S13714   0.049   3.143   6.581  0.0751 -0.6204 -0.7643
  128OSM    C5S13715   0.145   3.329   6.528  0.0679 -0.2099 -0.0527
  128OSM    H5S13716   0.196   3.375   6.442 -2.5947  1.6702 -0.7451
  128OSM    C6S13717   0.191   3.386   6.663 -0.2173  0.1073  0.1584
  128OSM    H6S13718   0.137   3.481   6.685 -1.3780 -0.3040 -0.8316
  128OSM    H6T13719   0.297   3.417   6.645  0.1419 -1.2616 -0.2408
  128OSM    C7S13720   0.195   3.292   6.785 -0.3730 -0.3710 -0.2172
  128OSM    H7S13721   0.273   3.218   6.757  0.4936  1.3218 -2.6879
  128OSM    H7T13722   0.094   3.246   6.788 -0.9641  0.6290 -2.4069
  128OSM    C8S13723   0.247   3.358   6.918  0.4139 -0.4655  1.2149
  128OSM    H8S13724   0.199   3.458   6.930 -0.6304 -0.9133  0.9073
  128OSM    H8T13725   0.357   3.369   6.907  0.2643 -0.2420 -0.3110
  128OSM    C9S13726   0.216   3.286   7.051 -0.3586  0.2152  0.1866
  128OSM    H9S13727   0.284   3.202   7.075 -2.5684 -0.8793  3.3895
  128OSM    H9T13728   0.115   3.241   7.042 -0.6635  0.5432  1.6749
  128OSM   C10S13729   0.225   3.380   7.169 -0.6213 -0.7695  0.2064
  128OSM   H10S13730   0.123   3.418   7.190 -0.0472  0.8421  0.2012
  128OSM   H10T13731   0.287   3.461   7.125 -0.5457 -2.1059 -2.3473
  128OSM   C11S13732   0.281   3.333   7.304  0.3677  0.6054 -0.4133
  128OSM   H11S13733   0.277   3.414   7.379  0.8062 -1.3404  1.8145
  128OSM   H11T13734   0.384   3.293   7.290  0.5744  1.5301 -1.6948
  128OSM   C12S13735   0.198   3.213   7.364  0.7067 -0.2368  0.3297
  128OSM   H12S13736   0.216   3.130   7.292  1.7395  0.4691 -0.2642
  128OSM   H12T13737   0.088   3.229   7.359  0.3489 -1.5165  2.7738
  128OSM   C13S13738   0.254   3.177   7.502  0.6621  0.8711  0.9544
  128OSM   H13S13739   0.364   3.191   7.498  0.6510  0.6876 -0.1778
  128OSM   H13T13740   0.236   3.069   7.524  0.5802  0.7802  0.4526
  128OSM   C14S13741   0.194   3.258   7.624  0.0702 -0.2707  0.3472
  128OSM   H14S13742   0.084   3.252   7.629 -0.1833  1.1133 -1.9627
  128OSM   H14T13743   0.206   3.365   7.595 -1.6319 -0.3440 -0.7539
  128OSM   C15S13744   0.262   3.217   7.752  0.0919  0.1760 -0.4618
  128OSM   H15S13745   0.373   3.218   7.746  0.1321 -0.0191  0.2202
  128OSM   H15T13746   0.242   3.109   7.766  0.8783  0.0612 -0.1727
  128OSM   C16S13747   0.223   3.284   7.881  0.6160 -0.0789 -0.2139
  128OSM   H16S13748   0.112   3.280   7.879  0.6019 -3.9162 -1.8789
  128OSM   H16T13749   0.253   3.391   7.881 -1.2466  0.4844 -0.6917
  128OSM   C17S13750   0.296   3.226   8.005  0.2138  0.0150  0.4650
  128OSM   H17S13751   0.403   3.249   7.991  0.4035 -0.8668  0.3741
  128OSM   H17T13752   0.285   3.117   7.988 -2.6708  0.5283 -1.8808
  128OSM   C18S13753   0.239   3.262   8.141  0.1254  0.1497 -0.8702
  128OSM   H18S13754   0.175   3.179   8.176  0.8531  0.3229  0.9888
  128OSM   H18T13755   0.174   3.352   8.138 -1.8878 -0.9584  2.8395
  128OSM   H18U13756   0.320   3.272   8.217 -0.8297 -1.0869  0.3589
  128OSM    C1F13757   0.281   2.871   6.441  0.1192  0.3809 -0.0840
  128OSM     OF13758   0.392   2.919   6.406 -0.3967  0.5081  0.0018
  128OSM    C2F13759   0.273   2.731   6.493  0.2879 -0.4803 -0.2549
  128OSM    H2F13760   0.328   2.674   6.415  1.9115 -1.8144  1.7564
  128OSM    H2G13761   0.167   2.697   6.493 -0.6694  2.1435 -2.2551
  128OSM    C3F13762   0.331   2.721   6.636  0.2935  0.1006 -0.8578
  128OSM    H3F13763   0.441   2.702   6.629  0.0843 -3.5513  2.5346
  128OSM    H3G13764   0.307   2.621   6.679  0.2139 -0.3738 -1.9739
  128OSM    C4F13765   0.288   2.829   6.742 -0.8645  0.1803  0.2700
  128OSM    H4F13766   0.178   2.828   6.758 -1.0654 -2.4743 -0.8455
  128OSM    H4G13767   0.332   2.927   6.713  0.0377 -0.0595  0.7975
  128OSM    C5F13768   0.352   2.814   6.880 -0.3870 -0.0034  0.2653
  128OSM    H5F13769   0.459   2.836   6.865 -0.3566 -0.3035  0.0131
  128OSM    H5G13770   0.334   2.712   6.921  0.9506 -0.5018 -0.3329
  128OSM    C6F13771   0.290   2.919   6.970 -0.4038 -0.1947 -0.2131
  128OSM    H6F13772   0.204   2.875   7.024 -1.7632  1.2340 -1.1549
  128OSM    H6G13773   0.258   3.006   6.910  2.0251 -1.0121 -2.9405
  128OSM    C7F13774   0.384   2.961   7.087 -0.0636 -0.2227  0.3468
  128OSM    H7F13775   0.330   3.010   7.170  0.5517  1.6569 -0.3058
  128OSM    H7G13776   0.451   3.042   7.049 -1.2246 -0.1342 -1.6277
  128OSM    C8F13777   0.481   2.849   7.138 -0.0498 -0.1849 -0.3538
  128OSM    H8F13778   0.557   2.893   7.207 -0.5726 -0.1147  0.1877
  128OSM    H8G13779   0.533   2.797   7.055 -0.6000 -0.9566 -0.2242
  128OSM    C9F13780   0.414   2.742   7.212  0.0162 -0.6229 -0.3391
  128OSM    H9F13781   0.368   2.656   7.160 -0.3937 -0.0249 -0.9801
  128OSM   C10F13782   0.417   2.730   7.342  0.0529  0.6351  0.2970
  128OSM   H10F13783   0.371   2.645   7.394  1.0125  0.7812  1.4230
  128OSM   C11F13784   0.478   2.823   7.439 -0.3101 -0.3100  0.3874
  128OSM   H11F13785   0.404   2.852   7.517  0.4824  0.9013  0.7188
  128OSM   H11G13786   0.517   2.913   7.388  2.8751 -1.9951 -0.3695
  128OSM   C12F13787   0.598   2.755   7.503  0.4244 -0.4465 -0.2889
  128OSM   H12F13788   0.657   2.830   7.561 -2.7341  2.1366 -0.1075
  128OSM   H12G13789   0.671   2.725   7.424  1.8969 -0.0977  0.8795
  128OSM   C13F13790   0.568   2.622   7.583  0.3053 -0.0636 -0.7301
  128OSM   H13F13791   0.660   2.580   7.628 -0.5380 -3.1931 -1.6572
  128OSM   H13G13792   0.547   2.531   7.522  1.7266  0.5942 -2.2906
  128OSM   C14F13793   0.460   2.642   7.694  0.1535 -0.8275 -0.6494
  128OSM   H14F13794   0.427   2.545   7.737 -0.0828  0.2530  1.7402
  128OSM   H14G13795   0.375   2.700   7.651  0.6050 -1.3994 -2.3863
  128OSM   C15F13796   0.513   2.727   7.817 -0.3102 -0.0284  0.1612
  128OSM   H15F13797   0.517   2.827   7.770  1.5732 -0.6072 -1.0378
  128OSM   H15G13798   0.606   2.690   7.865 -0.7608  0.3400  1.3691
  128OSM   C16F13799   0.406   2.741   7.931  0.2897  0.6883  0.4984
  128OSM   H16F13800   0.364   2.639   7.942  1.5077  0.0008 -0.8617
  128OSM   H16G13801   0.326   2.811   7.901  0.0073 -0.1855 -0.8841
  128OSM   C17F13802   0.470   2.785   8.062  0.4264  0.6953 -0.1931
  128OSM   H17F13803   0.425   2.883   8.087 -1.6436  0.2384 -1.8090
  128OSM   H17G13804   0.578   2.806   8.047  0.4215  1.9979  1.3765
  128OSM   C18F13805   0.435   2.690   8.180  0.0469 -0.0419  0.3894
  128OSM   H18F13806   0.481   2.591   8.156 -0.2869 -0.1050  0.0051
  128OSM   H18G13807   0.328   2.668   8.199  0.0682 -0.5185 -0.0136
  128OSM   H18H13808   0.474   2.723   8.278 -1.3544  2.6553  0.1238
  129OSM      N13809   4.875   1.676   6.438 -0.3991  0.1081  0.1730
  129OSM    C1513810   4.733   1.690   6.486 -0.3120  0.7661  0.5141
  129OSM   H15A13811   4.717   1.787   6.531 -0.9709  0.0523  1.9075
  129OSM   H15B13812   4.708   1.614   6.559 -0.5162  0.4516  0.1197
  129OSM   H15C13813   4.669   1.684   6.399 -0.4036  0.5891  0.5945
  129OSM    C1413814   4.877   1.561   6.337  0.0779 -0.0536 -0.1708
  129OSM   H14A13815   4.978   1.536   6.307  0.1640  0.0541  0.0319
  129OSM   H14B13816   4.829   1.588   6.244  1.7693 -0.9033 -1.3508
  129OSM   H14C13817   4.837   1.473   6.385  1.5273 -0.4196  0.4298
  129OSM    C1313818   4.911   1.801   6.368 -0.7770  0.4946  0.6151
  129OSM   H13A13819   4.998   1.787   6.305 -0.5148  0.2685  1.0211
  129OSM   H13B13820   4.937   1.874   6.443  1.4221  1.4165 -0.9464
  129OSM   H13C13821   4.828   1.825   6.303  0.1139 -2.6592 -1.9773
  129OSM    C1213822   4.976   1.652   6.550 -0.3621  0.3122  0.0111
  129OSM   H12A13823   4.937   1.718   6.625 -0.7056 -1.0333  1.0581
  129OSM   H12B13824   5.077   1.679   6.522 -0.1790 -0.8753 -0.5247
  129OSM    C1113825   4.977   1.510   6.616 -0.0286 -0.1350 -0.1890
  129OSM   H11A13826   4.873   1.473   6.635 -0.8076  1.2214 -1.6004
  129OSM   H11B13827   5.022   1.520   6.717 -2.4836 -1.9473  1.2169
  129OSM      P13828   5.203   1.411   6.533  0.0527  0.1375  0.0963
  129OSM    O1313829   5.253   1.347   6.408  0.2358  0.4373 -0.3996
  129OSM    O1413830   5.256   1.546   6.557 -0.3462  0.2330  0.0032
  129OSM    O1113831   5.237   1.324   6.665  0.9099  0.2995  0.1510
  129OSM    O1213832   5.038   1.411   6.529  0.1919  0.1139 -0.0384
  129OSM    C1S13833   5.180   1.193   6.669  0.0771 -0.2052  0.1285
  129OSM    H1S13834   5.231   1.137   6.588  0.6623  0.9592 -0.3416
  129OSM    H1T13835   5.069   1.189   6.664  0.1419 -1.3623 -0.7755
  129OSM     NF13836   5.208   0.979   6.798  0.3447 -0.1116  0.1445
  129OSM    HNF13837   5.139   0.937   6.855  0.7983 -0.8253  0.1905
  129OSM    C2S13838   5.218   1.126   6.805 -0.2456  0.3027  0.6644
  129OSM    H2S13839   5.322   1.155   6.830  0.1631 -0.6320  0.1121
  129OSM    C3S13840   5.145   1.194   6.925 -0.2298 -0.5884 -1.1041
  129OSM    H3S13841   5.037   1.171   6.927 -0.7433  1.3721 -3.1639
  129OSM     O313842   5.160   1.338   6.926  0.5727  0.3368 -0.0512
  129OSM    HO313843   5.206   1.363   6.846 -0.8298 -0.0030 -0.9929
  129OSM    C4S13844   5.207   1.144   7.045 -0.2664  0.2676 -0.1482
  129OSM    H4S13845   5.298   1.194   7.083  0.3693 -1.0380  0.1064
  129OSM    C5S13846   5.144   1.057   7.125  0.2949 -0.5851  0.0371
  129OSM    H5S13847   5.043   1.024   7.097 -0.2709  0.9939  0.1316
  129OSM    C6S13848   5.192   1.011   7.259  0.7634 -0.2250 -0.2134
  129OSM    H6S13849   5.300   1.034   7.277  0.2631  1.9876  0.2736
  129OSM    H6T13850   5.178   0.901   7.270 -1.1569  0.0760  0.7148
  129OSM    C7S13851   5.123   1.077   7.376  0.5400  0.0734  0.0607
  129OSM    H7S13852   5.012   1.079   7.366  0.7024 -0.2403 -2.4615
  129OSM    H7T13853   5.163   1.180   7.385  0.2052  0.3184 -1.0997
  129OSM    C8S13854   5.138   1.002   7.510  0.3530 -0.0794 -1.0666
  129OSM    H8S13855   5.247   1.016   7.524  0.0952  1.4018 -0.3942
  129OSM    H8T13856   5.124   0.893   7.490  0.8326 -0.2264 -0.6171
  129OSM    C9S13857   5.053   1.066   7.621  0.3984  0.8273  0.0185
  129OSM    H9S13858   4.953   1.093   7.581  0.5096 -1.3403 -1.9175
  129OSM    H9T13859   5.105   1.161   7.646  2.1578  0.1607 -0.9081
  129OSM   C10S13860   5.050   0.964   7.739 -0.1562  0.2268 -0.2941
  129OSM   H10S13861   5.149   0.926   7.774 -1.4245 -1.8544  1.2738
  129OSM   H10T13862   4.993   0.876   7.703  1.5187 -0.8001 -0.5733
  129OSM   C11S13863   4.989   1.022   7.859 -0.5775 -0.4498  0.1038
  129OSM   H11S13864   4.883   1.051   7.844  0.0954  1.8655 -0.5781
  129OSM   H11T13865   5.039   1.105   7.913  0.4705 -1.7869  1.2591
  129OSM   C12S13866   4.990   0.911   7.970 -0.1869 -0.0558 -0.3689
  129OSM   H12S13867   5.092   0.881   8.003  0.0404  1.0622 -0.0140
  129OSM   H12T13868   4.937   0.819   7.937  1.7499 -1.1249 -0.6499
  129OSM   C13S13869   4.931   0.962   8.101 -0.3641 -0.4485 -0.1778
  129OSM   H13S13870   4.834   1.010   8.074 -0.3690  0.5484  1.5175
  129OSM   H13T13871   5.002   1.037   8.140 -0.7698 -0.4895  0.6562
  129OSM   C14S13872   4.915   0.857   8.203  0.1992 -0.0905 -0.1128
  129OSM   H14S13873   4.865   0.765   8.164  0.2156 -0.1482  0.0036
  129OSM   H14T13874   4.832   0.900   8.263 -1.0455 -0.1466 -1.7234
  129OSM   C15S13875   5.030   0.835   8.297 -0.5122 -0.2253 -0.7616
  129OSM   H15S13876   5.057   0.926   8.355 -2.3452 -0.8600  1.1999
  129OSM   H15T13877   5.120   0.803   8.239 -0.9859 -0.0322 -1.6275
  129OSM   C16S13878   4.984   0.750   8.417 -0.0746 -0.2635  0.5823
  129OSM   H16S13879   4.935   0.655   8.384 -0.0364 -0.4733  1.1186
  129OSM   H16T13880   4.899   0.797   8.471 -1.7821 -3.0122  0.5166
  129OSM   C17S13881   5.089   0.722   8.524 -0.7305 -0.3159 -0.2060
  129OSM   H17S13882   5.136   0.817   8.556  1.2781 -1.5914  0.8442
  129OSM   H17T13883   5.177   0.662   8.493 -0.5832 -0.6106  0.7390
  129OSM   C18S13884   5.023   0.673   8.653  0.4107 -0.0703  0.2094
  129OSM   H18S13885   4.979   0.762   8.704 -2.0474 -0.0224 -1.8090
  129OSM   H18T13886   5.090   0.616   8.721 -0.1757 -1.9312 -0.7068
  129OSM   H18U13887   4.936   0.608   8.634  0.3347 -0.4554  1.7806
  129OSM    C1F13888   5.284   0.905   6.724 -0.4752  0.3895  0.1289
  129OSM     OF13889   5.385   0.957   6.672  0.4128  0.0867 -1.3461
  129OSM    C2F13890   5.239   0.771   6.685 -0.1174 -0.4650  0.3249
  129OSM    H2F13891   5.250   0.759   6.575  2.1274 -0.0121  0.4522
  129OSM    H2G13892   5.130   0.760   6.699 -0.5563  0.8782 -1.6142
  129OSM    C3F13893   5.311   0.665   6.767 -0.3329 -0.1773 -0.9530
  129OSM    H3F13894   5.419   0.669   6.744 -0.3617  0.4479 -0.9740
  129OSM    H3G13895   5.286   0.560   6.737  2.7548 -1.3902  0.3649
  129OSM    C4F13896   5.286   0.670   6.920  0.3938 -0.3550  0.4948
  129OSM    H4F13897   5.176   0.678   6.917  0.3516 -0.9503 -2.1255
  129OSM    H4G13898   5.332   0.763   6.961  0.2894  0.0994 -0.3896
  129OSM    C5F13899   5.343   0.540   6.979  0.4469  0.1157 -0.9938
  129OSM    H5F13900   5.443   0.526   6.934  0.5546 -0.9053 -0.4695
  129OSM    H5G13901   5.284   0.451   6.948  1.5456 -1.0271  0.1364
  129OSM    C6F13902   5.349   0.550   7.128 -0.0054 -0.1291  0.7993
  129OSM    H6F13903   5.435   0.615   7.155  0.5229  0.6363 -2.3569
  129OSM    H6G13904   5.378   0.447   7.157  1.6963 -0.5092 -1.8804
  129OSM    C7F13905   5.218   0.578   7.205  0.1456  0.1176  0.6900
  129OSM    H7F13906   5.149   0.495   7.179  3.4224 -2.4614 -0.4683
  129OSM    H7G13907   5.189   0.680   7.172  2.6952  0.9984  0.9186
  129OSM    C8F13908   5.251   0.590   7.353  0.2953  0.5116  0.1813
  129OSM    H8F13909   5.323   0.673   7.372 -0.0660  1.6311 -2.8649
  129OSM    H8G13910   5.288   0.497   7.402 -1.6385 -0.2846  0.2114
  129OSM    C9F13911   5.127   0.634   7.426 -0.8842  0.5650 -1.0240
  129OSM    H9F13912   5.051   0.682   7.364 -0.3158 -0.4328 -2.5627
  129OSM   C10F13913   5.116   0.607   7.560 -0.3283 -0.6683 -0.4625
  129OSM   H10F13914   5.023   0.639   7.609  0.3756  1.6228 -0.4964
  129OSM   C11F13915   5.206   0.524   7.651  0.0406 -0.8279  0.2125
  129OSM   H11F13916   5.218   0.562   7.755  0.7129 -1.1047  0.2451
  129OSM   H11G13917   5.310   0.532   7.613  0.6703  1.7154  2.1389
  129OSM   C12F13918   5.153   0.384   7.670  0.3463  0.0759 -0.0084
  129OSM   H12F13919   5.237   0.318   7.700  0.2972 -0.0887 -0.2253
  129OSM   H12G13920   5.123   0.356   7.566 -1.5210  1.7649  0.0166
  129OSM   C13F13921   5.038   0.375   7.775 -0.7993  0.2770  0.3229
  129OSM   H13F13922   4.962   0.449   7.742 -1.6267 -0.7070 -0.0305
  129OSM   H13G13923   5.087   0.403   7.871 -1.4611  1.7181  0.2668
  129OSM   C14F13924   4.960   0.241   7.781  0.5653  0.1505 -0.9587
  129OSM   H14F13925   5.032   0.160   7.807  1.2698  0.2934 -2.4121
  129OSM   H14G13926   4.923   0.208   7.682  0.5753 -1.7429 -0.3925
  129OSM   C15F13927   4.835   0.246   7.874  0.4823 -0.8637  0.2540
  129OSM   H15F13928   4.781   0.334   7.833  0.1319 -1.7528 -1.2920
  129OSM   H15G13929   4.865   0.265   7.979 -0.7521 -0.6930  0.5807
  129OSM   C16F13930   4.743   0.123   7.862 -0.8617 -0.1461 -0.1223
  129OSM   H16F13931   4.727   0.109   7.753 -0.3939 -2.7867  0.0814
  129OSM   H16G13932   4.649   0.157   7.911  0.0547 -1.1677  2.5320
  129OSM   C17F13933   4.799  -0.006   7.919  0.0732  0.7290  0.8936
  129OSM   H17F13934   4.842   0.005   8.021  1.7430 -1.8069  0.5446
  129OSM   H17G13935   4.888  -0.040   7.861 -1.6524 -2.6375 -0.0191
  129OSM   C18F13936   4.704  -0.127   7.905 -0.7475 -0.1949  0.3487
  129OSM   H18F13937   4.631  -0.102   7.985 -1.2801  2.8097 -0.9502
  129OSM   H18G13938   4.751  -0.225   7.928 -1.5218 -0.1853  2.1333
  129OSM   H18H13939   4.649  -0.138   7.809  2.0666 -0.1576 -1.3871
  130OSM      N13940   0.279   1.888   5.976  0.5901  0.1029 -0.2546
  130OSM    C1513941   0.186   1.805   5.895  0.1412  0.9059  0.2419
  130OSM   H15A13942   0.216   1.702   5.882 -1.1928  0.3511  1.3800
  130OSM   H15B13943   0.188   1.840   5.793  0.5331 -0.4844 -0.2605
  130OSM   H15C13944   0.082   1.813   5.924  0.7578  1.6436  2.4118
  130OSM    C1413945   0.242   2.028   5.980  0.2701 -0.0497 -0.1451
  130OSM   H14A13946   0.157   2.056   6.039 -0.2366 -2.2050  0.2283
  130OSM   H14B13947   0.214   2.056   5.879 -0.3332 -1.7750 -0.4850
  130OSM   H14C13948   0.323   2.095   6.004  0.4371  0.3381 -1.6918
  130OSM    C1313949   0.266   1.831   6.116 -0.6168  0.3383 -0.3130
  130OSM   H13A13950   0.313   1.903   6.181  1.0314 -1.9302  1.2121
  130OSM   H13B13951   0.319   1.737   6.125  0.5435  1.0627  0.7177
  130OSM   H13C13952   0.167   1.807   6.151 -1.0896  1.4609 -0.8529
  130OSM    C1213953   0.422   1.869   5.913 -0.6493 -0.2529 -0.6395
  130OSM   H12A13954   0.425   1.928   5.822  1.0635  0.3891 -0.2048
  130OSM   H12B13955   0.427   1.764   5.886  0.0002  0.0703 -1.8731
  130OSM    C1113956   0.542   1.909   6.007 -0.4188  0.3917 -0.8046
  130OSM   H11A13957   0.530   2.015   6.039  1.7797  0.1518  1.1277
  130OSM   H11B13958   0.640   1.892   5.957  0.0597 -3.4536  1.0981
  130OSM      P13959   0.641   1.734   6.168  0.0232  0.2735  0.3794
  130OSM    O1313960   0.600   1.678   6.298  0.4980 -0.1727 -0.3722
  130OSM    O1413961   0.653   1.638   6.058 -0.0266  0.3469  0.2424
  130OSM    O1113962   0.772   1.816   6.185  0.6321  0.0790 -0.0914
  130OSM    O1213963   0.540   1.839   6.128  0.1988 -0.3260  0.0382
  130OSM    C1S13964   0.760   1.936   6.264  0.1087 -0.7726  0.3153
  130OSM    H1S13965   0.675   2.005   6.247 -1.2114 -1.9937  1.6604
  130OSM    H1T13966   0.850   1.992   6.231 -0.4605  0.7822  1.2874
  130OSM     NF13967   0.786   2.024   6.492  0.4666 -0.4567 -0.2749
  130OSM    HNF13968   0.860   2.089   6.482  0.0349 -0.0896 -1.1162
  130OSM    C2S13969   0.785   1.901   6.414 -0.5640  0.2179 -0.6768
  130OSM    H2S13970   0.703   1.837   6.453 -0.4828  0.7963  0.4726
  130OSM    C3S13971   0.918   1.820   6.433 -0.2217 -0.1869  0.1553
  130OSM    H3S13972   1.000   1.879   6.388 -0.2567 -1.0671 -1.1058
  130OSM     O313973   0.915   1.697   6.368 -0.5846  0.1033 -0.1522
  130OSM    HO313974   0.841   1.708   6.308 -0.1169  3.2320 -0.3271
  130OSM    C4S13975   0.955   1.793   6.577  0.5765  0.8276 -0.4773
  130OSM    H4S13976   0.879   1.732   6.628  2.1539 -1.4714 -0.7270
  130OSM    C5S13977   1.067   1.812   6.640  0.2668  0.1014  0.3535
  130OSM    H5S13978   1.145   1.868   6.587 -0.7069  0.8617 -0.3057
  130OSM    C6S13979   1.088   1.764   6.783 -0.3610  0.9664 -0.5509
  130OSM    H6S13980   1.194   1.739   6.805  0.1643  3.3428 -0.1016
  130OSM    H6T13981   1.026   1.675   6.805  0.3469  0.6196  0.0881
  130OSM    C7S13982   1.047   1.866   6.883 -0.0253  0.0109  0.2432
  130OSM    H7S13983   0.939   1.894   6.882  0.0140  0.1942 -1.2327
  130OSM    H7T13984   1.082   1.966   6.851 -2.5602  0.0909 -2.8110
  130OSM    C8S13985   1.085   1.822   7.018 -0.0131  0.1452  0.1651
  130OSM    H8S13986   1.195   1.823   7.031 -0.2201 -0.4650  2.4131
  130OSM    H8T13987   1.043   1.721   7.036  1.0701  0.0296  2.3962
  130OSM    C9S13988   1.040   1.920   7.132 -0.4883 -0.3986  0.5672
  130OSM    H9S13989   0.933   1.951   7.132  0.2566  2.5077  2.6223
  130OSM    H9T13990   1.112   2.003   7.116  0.6820 -0.7827  3.3092
  130OSM   C10S13991   1.068   1.858   7.267 -0.5671  0.2252 -0.0556
  130OSM   H10S13992   1.174   1.826   7.269 -0.1409  1.5041 -1.1307
  130OSM   H10T13993   1.016   1.762   7.283  1.0443 -0.3790  2.1111
  130OSM   C11S13994   1.033   1.951   7.378  0.5283  0.6457 -0.2334
  130OSM   H11S13995   0.932   1.994   7.359 -0.8379 -2.2256  0.0332
  130OSM   H11T13996   1.121   2.019   7.379  0.8968  0.1720 -0.0298
  130OSM   C12S13997   1.030   1.885   7.513  0.2091  0.1196 -0.7664
  130OSM   H12S13998   1.122   1.827   7.535  0.0280 -0.7026 -2.0856
  130OSM   H12T13999   0.951   1.808   7.505  0.4823 -0.1647 -0.7254
  130OSM   C13S14000   0.981   1.977   7.621  0.7175  0.0862 -0.0071
  130OSM   H13S14001   0.882   2.017   7.590 -0.5049 -1.6732  1.3900
  130OSM   H13T14002   1.039   2.070   7.638  1.0212 -0.0108 -0.5006
  130OSM   C14S14003   0.969   1.915   7.757  0.1716 -0.3783 -0.9371
  130OSM   H14S14004   0.893   1.834   7.753  1.1907 -1.2917 -2.6470
  130OSM   H14T14005   0.940   1.993   7.831 -1.8890 -2.9573  1.1673
  130OSM   C15S14006   1.108   1.860   7.808  0.0561 -0.4760 -0.0359
  130OSM   H15S14007   1.187   1.935   7.788 -1.3927  0.7189 -1.6273
  130OSM   H15T14008   1.127   1.760   7.761  1.5110  0.0752 -0.6931
  130OSM   C16S14009   1.107   1.839   7.959  0.1908 -0.6729  0.1846
  130OSM   H16S14010   1.180   1.756   7.970  2.3843  0.4700 -3.8084
  130OSM   H16T14011   1.012   1.794   7.995  1.0597 -1.7588  1.2100
  130OSM   C17S14012   1.159   1.960   8.048 -0.1459  0.0267 -0.2711
  130OSM   H17S14013   1.066   1.987   8.101 -1.0292 -3.5998  0.3030
  130OSM   H17T14014   1.188   2.047   7.985 -0.1161  0.8468  0.8587
  130OSM   C18S14015   1.259   1.923   8.152  0.2107 -0.0057  0.3914
  130OSM   H18S14016   1.255   1.990   8.240  1.2743  2.6516 -1.4425
  130OSM   H18T14017   1.360   1.929   8.106 -0.6716  2.5584 -1.4687
  130OSM   H18U14018   1.239   1.819   8.185 -0.3132  0.2367  0.8426
  130OSM    C1F14019   0.671   2.084   6.522  0.2556 -0.1643 -0.7273
  130OSM     OF14020   0.566   2.015   6.508 -0.4063 -0.4256  0.2255
  130OSM    C2F14021   0.678   2.220   6.565 -0.9423  0.0474  0.1948
  130OSM    H2F14022   0.716   2.283   6.482 -2.0634  1.8019  0.9463
  130OSM    H2G14023   0.741   2.227   6.656 -0.0041 -1.3313 -0.3028
  130OSM    C3F14024   0.536   2.277   6.602 -0.4353 -0.3475 -0.3659
  130OSM    H3F14025   0.496   2.226   6.692 -0.4183  0.2612 -0.0045
  130OSM    H3G14026   0.469   2.273   6.513 -0.7854 -0.0365 -0.1237
  130OSM    C4F14027   0.536   2.421   6.648  1.1308 -0.1770  0.3705
  130OSM    H4F14028   0.436   2.459   6.618  0.0481 -1.0478  2.6619
  130OSM    H4G14029   0.612   2.472   6.585 -1.5101  2.0042 -1.2768
  130OSM    C5F14030   0.561   2.447   6.796 -0.4228 -0.0221 -0.1019
  130OSM    H5F14031   0.479   2.390   6.845 -2.7978  1.0531 -2.5849
  130OSM    H5G14032   0.540   2.555   6.811  0.4655  0.4315 -1.9253
  130OSM    C6F14033   0.711   2.417   6.834 -0.5388 -0.5680 -0.9775
  130OSM    H6F14034   0.777   2.461   6.756  1.8569  0.3853  1.4693
  130OSM    H6G14035   0.731   2.309   6.851  1.3686 -0.2542 -1.0474
  130OSM    C7F14036   0.750   2.508   6.952  0.9458 -0.6148 -0.0428
  130OSM    H7F14037   0.712   2.612   6.940  2.3077 -0.1032 -0.0856
  130OSM    H7G14038   0.861   2.514   6.959  0.9030  1.2062 -0.5308
  130OSM    C8F14039   0.693   2.469   7.091 -0.1598  0.1182  0.0907
  130OSM    H8F14040   0.583   2.482   7.091 -0.2349 -0.1072  2.2427
  130OSM    H8G14041   0.729   2.538   7.170 -0.7066 -0.3339  0.7513
  130OSM    C9F14042   0.744   2.324   7.118 -0.1104 -0.8594 -0.1547
  130OSM    H9F14043   0.711   2.246   7.048  0.2911 -0.6131 -0.6300
  130OSM   C10F14044   0.820   2.294   7.232 -0.0877  0.1830  0.8036
  130OSM   H10F14045   0.861   2.192   7.241 -0.8081 -0.6276 -3.0289
  130OSM   C11F14046   0.879   2.388   7.332 -0.1515  0.9508 -0.1372
  130OSM   H11F14047   0.817   2.480   7.341 -0.1407  0.7985  1.7991
  130OSM   H11G14048   0.983   2.415   7.305  0.1852 -0.5475 -0.4185
  130OSM   C12F14049   0.882   2.323   7.474 -0.9371 -0.3671  0.6138
  130OSM   H12F14050   0.932   2.224   7.476 -0.6131 -0.3211 -1.9901
  130OSM   H12G14051   0.777   2.306   7.507 -1.0291 -0.6978  0.1555
  130OSM   C13F14052   0.937   2.417   7.575 -0.1452  0.1715 -0.0051
  130OSM   H13F14053   0.893   2.519   7.566 -1.4786 -0.3664  0.0588
  130OSM   H13G14054   1.046   2.422   7.559 -0.1435 -2.1006 -1.0685
  130OSM   C14F14055   0.907   2.356   7.710 -1.1884 -0.1588 -0.1972
  130OSM   H14F14056   0.960   2.262   7.736  0.7639  0.9829  0.1089
  130OSM   H14G14057   0.798   2.331   7.715 -1.2287  0.1206  0.3370
  130OSM   C15F14058   0.945   2.462   7.824  0.1390 -0.2284  0.6940
  130OSM   H15F14059   0.861   2.533   7.810 -0.8880 -1.6297 -0.6168
  130OSM   H15G14060   1.041   2.517   7.813  0.7632 -1.2075  1.1234
  130OSM   C16F14061   0.961   2.402   7.957 -0.0354  0.5181 -0.0997
  130OSM   H16F14062   1.061   2.354   7.962 -0.9660 -1.4696  0.6184
  130OSM   H16G14063   0.881   2.326   7.971  1.1662 -0.7499  0.0937
  130OSM   C17F14064   0.953   2.496   8.074  0.6103  0.5153 -0.3559
  130OSM   H17F14065   1.015   2.586   8.057  1.7397 -0.2991 -0.6416
  130OSM   H17G14066   0.984   2.430   8.158 -2.3247 -3.3420 -1.9565
  130OSM   C18F14067   0.811   2.543   8.112  0.6595  0.2893  0.5121
  130OSM   H18F14068   0.768   2.614   8.038 -3.0325 -0.8112  1.4013
  130OSM   H18G14069   0.816   2.601   8.206  1.7342  1.0437  0.0067
  130OSM   H18H14070   0.744   2.456   8.127 -0.1669  0.9121  0.5008
  131OSM      N14071   3.784   5.761   5.475 -0.2223 -0.0393 -0.0567
  131OSM    C1514072   3.842   5.895   5.503  0.4051 -0.3339 -0.0807
  131OSM   H15A14073   3.870   5.948   5.413  0.9617 -1.3896 -0.5427
  131OSM   H15B14074   3.918   5.889   5.579 -0.8256  0.1088  1.2376
  131OSM   H15C14075   3.760   5.949   5.549  1.3007 -0.4646  1.7930
  131OSM    C1414076   3.669   5.764   5.381  0.0159 -0.2534 -0.4283
  131OSM   H14A14077   3.587   5.816   5.428  0.2019 -2.2094  2.3461
  131OSM   H14B14078   3.631   5.665   5.359  1.5919 -0.9908  0.0345
  131OSM   H14C14079   3.690   5.808   5.285 -1.5852  0.3563 -0.5277
  131OSM    C1314080   3.903   5.688   5.414  0.4080  0.4781  0.5622
  131OSM   H13A14081   3.878   5.589   5.378  0.0342  0.3049  1.2769
  131OSM   H13B14082   3.980   5.674   5.487 -1.8992  0.4564  3.1393
  131OSM   H13C14083   3.952   5.740   5.332 -0.6332 -0.8893 -0.9913
  131OSM    C1214084   3.739   5.703   5.610 -0.2784 -0.0288  0.5148
  131OSM   H12A14085   3.712   5.600   5.594 -0.8594  0.0018  1.2400
  131OSM   H12B14086   3.652   5.751   5.652  0.1889  0.2281  1.2175
  131OSM    C1114087   3.837   5.714   5.733 -0.1272 -0.3914 -0.1062
  131OSM   H11A14088   3.938   5.693   5.693 -1.3904 -2.0480 -2.7398
  131OSM   H11B14089   3.813   5.629   5.801 -0.2716  0.1344  0.5022
  131OSM      P14090   3.720   5.876   5.898 -0.7098 -0.2540 -0.0452
  131OSM    O1314091   3.715   6.015   5.943 -0.6668  0.2353 -0.0136
  131OSM    O1414092   3.592   5.818   5.857 -0.0121  0.3317  0.6250
  131OSM    O1114093   3.777   5.792   6.014  0.0091 -0.0320  0.1367
  131OSM    O1214094   3.831   5.851   5.787  0.1966 -0.1420  0.0938
  131OSM    C1S14095   3.912   5.811   6.057  0.2515  0.4416  0.3871
  131OSM    H1S14096   3.937   5.917   6.083  1.2610  0.1164  0.7910
  131OSM    H1T14097   3.995   5.782   5.989 -0.8477  0.4672 -1.0072
  131OSM     NF14098   4.065   5.758   6.247  0.3715 -0.0074 -0.2030
  131OSM    HNF14099   4.140   5.694   6.260 -0.2360 -0.4058  1.6125
  131OSM    C2S14100   3.942   5.712   6.174  0.3845  0.1063 -0.2151
  131OSM    H2S14101   3.858   5.699   6.245  0.7086 -2.3471 -0.1663
  131OSM    C3S14102   3.957   5.574   6.100 -0.8747  0.0527  0.1404
  131OSM    H3S14103   4.031   5.594   6.020  1.2453  3.7356  2.6679
  131OSM     O314104   3.842   5.539   6.029  0.2736  0.3314  0.2473
  131OSM    HO314105   3.811   5.626   6.001 -0.6473 -0.4246 -1.2197
  131OSM    C4S14106   4.009   5.473   6.197  0.1350  0.1831 -0.3640
  131OSM    H4S14107   4.118   5.458   6.190  0.2419  0.9577 -0.4744
  131OSM    C5S14108   3.935   5.394   6.277  0.4110  0.4654 -0.0694
  131OSM    H5S14109   3.825   5.397   6.270  0.3760  0.2670  0.3195
  131OSM    C6S14110   3.972   5.274   6.367 -0.5025 -0.0509  0.4514
  131OSM    H6S14111   4.068   5.241   6.322 -0.2790  0.9699  0.1376
  131OSM    H6T14112   3.911   5.181   6.359  1.2679 -1.2335  0.2516
  131OSM    C7S14113   3.986   5.308   6.514 -0.2828 -0.0971  1.1119
  131OSM    H7S14114   3.996   5.210   6.565 -1.1784 -1.2144 -0.7425
  131OSM    H7T14115   3.895   5.350   6.561  0.3674 -0.0522  2.3833
  131OSM    C8S14116   4.109   5.395   6.556  0.5168 -0.8700  0.6737
  131OSM    H8S14117   4.131   5.474   6.482  0.7745  0.5125  2.1604
  131OSM    H8T14118   4.197   5.327   6.561  2.1220  1.0021 -0.7072
  131OSM    C9S14119   4.091   5.464   6.692 -0.8491 -0.0078  0.0840
  131OSM    H9S14120   4.005   5.534   6.690 -1.1511 -0.3352 -2.6019
  131OSM    H9T14121   4.188   5.515   6.709 -0.4255 -1.0283  0.8586
  131OSM   C10S14122   4.068   5.366   6.811 -0.5977  0.0308  0.3284
  131OSM   H10S14123   4.155   5.297   6.810  1.9789  2.9569 -2.8463
  131OSM   H10T14124   3.971   5.322   6.778 -2.3201  3.5270  0.2029
  131OSM   C11S14125   4.045   5.433   6.945 -0.2564  1.0497 -0.2169
  131OSM   H11S14126   3.938   5.463   6.945 -0.6009 -0.0504  1.1158
  131OSM   H11T14127   4.090   5.534   6.956  0.5788  0.4230  3.3370
  131OSM   C12S14128   4.080   5.339   7.062 -0.0366  0.0888  0.4158
  131OSM   H12S14129   4.187   5.310   7.064 -0.1659 -0.3601  2.4675
  131OSM   H12T14130   4.022   5.244   7.053 -1.3649  1.0365 -1.9565
  131OSM   C13S14131   4.051   5.402   7.200 -0.3288 -0.2762 -0.2760
  131OSM   H13S14132   3.943   5.427   7.205 -0.0056  1.1554  0.0389
  131OSM   H13T14133   4.104   5.500   7.202 -0.6919 -0.0850  1.9682
  131OSM   C14S14134   4.090   5.318   7.322 -0.0666  0.4224 -0.1626
  131OSM   H14S14135   4.197   5.291   7.313 -0.4256 -0.6175 -1.6534
  131OSM   H14T14136   4.036   5.221   7.328  0.4125  0.1109 -0.7729
  131OSM   C15S14137   4.078   5.402   7.447  0.6094 -0.2298  0.0899
  131OSM   H15S14138   3.973   5.415   7.480  1.2392 -1.8551  3.1175
  131OSM   H15T14139   4.118   5.506   7.436  0.6047 -0.3151 -0.8341
  131OSM   C16S14140   4.165   5.349   7.564  0.0386 -0.1803  0.9253
  131OSM   H16S14141   4.149   5.239   7.561  0.7890 -0.2976  1.0366
  131OSM   H16T14142   4.124   5.385   7.661  0.8243 -1.2290  1.6677
  131OSM   C17S14143   4.309   5.380   7.555  0.2595 -0.5519 -0.2856
  131OSM   H17S14144   4.319   5.489   7.534 -0.9899 -1.0530 -4.3434
  131OSM   H17T14145   4.366   5.349   7.464  3.4589  1.9308  0.6452
  131OSM   C18S14146   4.391   5.346   7.677  0.5291  0.4532 -0.3914
  131OSM   H18S14147   4.372   5.413   7.764  1.4235  0.7258 -0.3980
  131OSM   H18T14148   4.498   5.340   7.649  1.0102  1.4167  1.1105
  131OSM   H18U14149   4.372   5.239   7.704  0.8742  0.1923 -1.1621
  131OSM    C1F14150   4.076   5.868   6.325 -0.1667  0.6463 -0.3300
  131OSM     OF14151   3.986   5.944   6.344 -0.3734 -0.2474  0.1313
  131OSM    C2F14152   4.204   5.884   6.385  0.0825  0.3962  0.8277
  131OSM    H2F14153   4.233   5.990   6.367 -1.8656  0.8508  0.2067
  131OSM    H2G14154   4.271   5.823   6.320 -0.4051  1.7460 -1.0372
  131OSM    C3F14155   4.202   5.860   6.538 -0.3595  0.3330 -0.0268
  131OSM    H3F14156   4.152   5.761   6.550  1.6126 -1.1978 -2.9070
  131OSM    H3G14157   4.137   5.936   6.584  3.1694  2.8312  1.2721
  131OSM    C4F14158   4.343   5.876   6.596 -0.0638 -0.2071  0.1659
  131OSM    H4F14159   4.387   5.974   6.564 -0.9548 -0.4329 -1.9474
  131OSM    H4G14160   4.407   5.795   6.555 -0.8230 -1.8714  2.0915
  131OSM    C5F14161   4.339   5.873   6.748 -0.1454  0.3363 -0.3275
  131OSM    H5F14162   4.271   5.955   6.782 -3.1677 -1.8739 -0.6345
  131OSM    H5G14163   4.445   5.896   6.772 -0.2143  0.7801 -0.4285
  131OSM    C6F14164   4.285   5.744   6.809 -0.3963 -0.5931  0.1330
  131OSM    H6F14165   4.346   5.657   6.777 -1.3095 -1.6244  1.1144
  131OSM    H6G14166   4.180   5.735   6.775 -0.8101 -0.1329  1.2452
  131OSM    C7F14167   4.295   5.734   6.965  0.3865  0.5146  0.1090
  131OSM    H7F14168   4.401   5.751   6.992 -0.5951  2.3893  3.4272
  131OSM    H7G14169   4.260   5.635   7.001 -0.6982  0.2491 -1.5769
  131OSM    C8F14170   4.201   5.844   7.040  0.4800 -0.3280  0.4402
  131OSM    H8F14171   4.262   5.937   7.035  1.7646 -1.1588 -0.0563
  131OSM    H8G14172   4.220   5.817   7.146  1.5553  0.4313  0.4613
  131OSM    C9F14173   4.051   5.848   7.002  0.3326 -0.2314 -0.2754
  131OSM    H9F14174   4.022   5.837   6.896  3.0970  0.7805 -1.2359
  131OSM   C10F14175   3.950   5.866   7.093 -0.0231 -0.3689 -0.5668
  131OSM   H10F14176   3.843   5.853   7.072 -0.2769  0.7960 -0.1011
  131OSM   C11F14177   3.967   5.891   7.239  0.7717  0.3092  0.6281
  131OSM   H11F14178   3.892   5.963   7.276  1.2371  0.1825  1.8707
  131OSM   H11G14179   4.063   5.944   7.259  1.7340 -1.8026  2.0256
  131OSM   C12F14180   3.958   5.761   7.316 -0.5020  0.3666  0.1100
  131OSM   H12F14181   4.038   5.687   7.296  0.1245  1.3252 -1.0811
  131OSM   H12G14182   3.861   5.708   7.304 -1.0297  0.8524  1.9824
  131OSM   C13F14183   3.979   5.787   7.471 -0.8994 -0.2926  0.0065
  131OSM   H13F14184   3.943   5.694   7.520  1.9246 -2.3947 -1.5776
  131OSM   H13G14185   3.919   5.871   7.512 -1.7126 -0.6263 -0.4571
  131OSM   C14F14186   4.130   5.798   7.513  0.5524  0.1053  0.2906
  131OSM   H14F14187   4.182   5.884   7.466  0.5234 -1.4776 -2.9825
  131OSM   H14G14188   4.175   5.706   7.470  0.8077  0.0004  0.7750
  131OSM   C15F14189   4.176   5.793   7.659 -0.6683  0.2261  0.1980
  131OSM   H15F14190   4.284   5.769   7.648 -0.3509  1.8188 -0.3927
  131OSM   H15G14191   4.128   5.714   7.721  1.3080  0.4440  2.1143
  131OSM   C16F14192   4.164   5.928   7.727 -0.0301  0.5778 -0.2774
  131OSM   H16F14193   4.056   5.953   7.723 -0.3476 -0.8721 -2.5439
  131OSM   H16G14194   4.226   6.007   7.679  2.5807 -1.3636 -0.3613
  131OSM   C17F14195   4.205   5.917   7.877 -0.2633 -0.5143  0.0551
  131OSM   H17F14196   4.316   5.920   7.874 -0.2684  2.7226 -0.5534
  131OSM   H17G14197   4.177   5.823   7.929  1.4949 -0.6963  0.7379
  131OSM   C18F14198   4.160   6.033   7.962 -0.2000 -0.0605 -0.6031
  131OSM   H18F14199   4.171   6.017   8.072 -2.0592  0.5169 -0.3091
  131OSM   H18G14200   4.050   6.031   7.946  0.0592  0.2310 -2.5949
  131OSM   H18H14201   4.192   6.135   7.933 -2.9357  1.1814  0.3946
  132OSM      N14202   6.254   4.995   5.604 -0.2069 -0.1838 -0.6758
  132OSM    C1514203   6.268   5.013   5.457 -0.0856 -0.0094 -0.4814
  132OSM   H15A14204   6.314   5.108   5.433  0.7238  0.0032  0.9781
  132OSM   H15B14205   6.168   5.013   5.415 -0.4599  1.2162  0.3416
  132OSM   H15C14206   6.318   4.933   5.406 -0.3264 -0.2559 -0.3356
  132OSM    C1414207   6.148   4.891   5.627 -0.0194  0.5378 -0.3465
  132OSM   H14A14208   6.065   4.905   5.560  0.4840  0.5692 -0.9794
  132OSM   H14B14209   6.106   4.894   5.727 -0.6255 -1.2281 -0.5178
  132OSM   H14C14210   6.192   4.793   5.611  0.6574  0.1364  3.1258
  132OSM    C1314211   6.375   4.943   5.676  0.2902  0.1257 -0.3772
  132OSM   H13A14212   6.358   4.934   5.782 -0.0798 -0.2883 -0.4667
  132OSM   H13B14213   6.452   5.017   5.660  0.7824 -0.8142 -2.7798
  132OSM   H13C14214   6.408   4.851   5.629 -0.1102  0.5043 -1.4235
  132OSM    C1214215   6.201   5.116   5.678  0.5479  0.0350 -0.4434
  132OSM   H12A14216   6.095   5.120   5.653  0.5441  1.3494 -0.3311
  132OSM   H12B14217   6.227   5.213   5.638  1.0084  0.6366  1.2294
  132OSM    C1114218   6.218   5.122   5.833  0.2103 -0.1787 -0.1538
  132OSM   H11A14219   6.322   5.148   5.860  0.3069  2.1690 -2.4241
  132OSM   H11B14220   6.197   5.020   5.873 -1.7817 -0.0352 -0.7252
  132OSM      P14221   6.175   5.374   5.889 -0.0852 -0.2231 -0.0590
  132OSM    O1314222   6.227   5.400   5.752  0.0406  0.0360  0.5939
  132OSM    O1414223   6.068   5.462   5.937  0.7317 -0.0434 -0.5514
  132OSM    O1114224   6.291   5.378   6.002  0.5353  0.5818  0.5321
  132OSM    O1214225   6.132   5.216   5.896 -0.2658 -0.7541  0.6357
  132OSM    C1S14226   6.287   5.303   6.121  0.3769  0.0829 -0.7484
  132OSM    H1S14227   6.299   5.193   6.107 -0.4426 -0.3932  1.8759
  132OSM    H1T14228   6.193   5.326   6.174  0.6416  0.2150 -0.3356
  132OSM     NF14229   6.378   5.289   6.359 -0.1758 -0.3393 -0.6688
  132OSM    HNF14230   6.348   5.357   6.425  2.6222  0.7593 -0.3666
  132OSM    C2S14231   6.398   5.346   6.227  0.6003  0.7229 -0.4789
  132OSM    H2S14232   6.488   5.293   6.190  1.3610  1.5626  0.1225
  132OSM    C3S14233   6.413   5.494   6.235 -0.0054 -0.4343 -0.1297
  132OSM    H3S14234   6.313   5.540   6.254  0.2823  0.6417 -1.1381
  132OSM     O314235   6.442   5.559   6.116 -0.2616  0.1515 -0.4207
  132OSM    HO314236   6.400   5.500   6.054 -0.0141  0.9243 -1.3477
  132OSM    C4S14237   6.512   5.531   6.341 -0.1796 -0.6547  0.0875
  132OSM    H4S14238   6.603   5.470   6.339  0.2929 -0.1085  2.2294
  132OSM    C5S14239   6.482   5.608   6.449  0.4528  0.1165  0.5244
  132OSM    H5S14240   6.375   5.630   6.455 -0.0037 -1.6255 -0.5215
  132OSM    C6S14241   6.556   5.629   6.573 -0.1980 -0.0238 -0.5014
  132OSM    H6S14242   6.581   5.738   6.581 -1.8812  0.3278  0.4435
  132OSM    H6T14243   6.647   5.566   6.581 -0.7759 -0.6715  1.8212
  132OSM    C7S14244   6.467   5.593   6.692 -0.3247  0.8853 -0.9834
  132OSM    H7S14245   6.450   5.484   6.693  5.0209 -0.2338  1.1875
  132OSM    H7T14246   6.369   5.646   6.696 -0.5356  0.6727 -2.5399
  132OSM    C8S14247   6.548   5.628   6.818  0.0345  0.3859 -0.3218
  132OSM    H8S14248   6.575   5.735   6.803  0.7257 -0.0774 -2.8725
  132OSM    H8T14249   6.641   5.569   6.810 -0.7722 -0.8150 -1.3323
  132OSM    C9S14250   6.478   5.592   6.955  0.2091 -0.9521  0.1559
  132OSM    H9S14251   6.445   5.487   6.944  0.8578 -1.0110 -1.6182
  132OSM    H9T14252   6.396   5.665   6.972  0.8135  0.4647 -2.4510
  132OSM   C10S14253   6.574   5.611   7.075  0.8271 -0.0804  0.3969
  132OSM   H10S14254   6.591   5.721   7.077 -0.6335  0.1733 -0.1601
  132OSM   H10T14255   6.674   5.568   7.052  0.5597 -0.5170  0.0597
  132OSM   C11S14256   6.517   5.557   7.212 -0.2498 -0.6989 -0.7517
  132OSM   H11S14257   6.609   5.539   7.271 -0.6554 -1.0693 -0.2223
  132OSM   H11T14258   6.469   5.459   7.192 -0.0020 -1.0720  0.4239
  132OSM   C12S14259   6.426   5.660   7.281  0.1620 -0.1585  0.7431
  132OSM   H12S14260   6.329   5.674   7.229  0.8412  0.1389 -0.4812
  132OSM   H12T14261   6.476   5.759   7.293  2.3490 -1.3023  1.8715
  132OSM   C13S14262   6.401   5.610   7.428  0.2578  0.0443  0.1289
  132OSM   H13S14263   6.498   5.589   7.478  0.1470 -1.2017 -0.1638
  132OSM   H13T14264   6.348   5.513   7.419  0.1851  0.0370  0.6430
  132OSM   C14S14265   6.314   5.700   7.520  0.5545 -0.0702  0.2102
  132OSM   H14S14266   6.212   5.708   7.477  0.5097  2.4906  0.6574
  132OSM   H14T14267   6.364   5.799   7.524 -0.5984  0.5042  0.6992
  132OSM   C15S14268   6.314   5.650   7.669 -0.8118 -0.4138 -0.0283
  132OSM   H15S14269   6.423   5.656   7.687 -0.8644  1.1709 -0.0815
  132OSM   H15T14270   6.275   5.549   7.689 -1.4154 -0.0112  0.8785
  132OSM   C16S14271   6.258   5.755   7.763  1.0168 -0.0900 -0.8803
  132OSM   H16S14272   6.150   5.772   7.743  1.0020  0.6890 -0.1620
  132OSM   H16T14273   6.293   5.858   7.740  2.1607 -0.1884  0.3289
  132OSM   C17S14274   6.279   5.722   7.917  0.2224 -0.0588 -0.3841
  132OSM   H17S14275   6.226   5.811   7.958 -2.7428 -1.9143  0.0968
  132OSM   H17T14276   6.389   5.734   7.924  0.0914  0.7163  0.6872
  132OSM   C18S14277   6.202   5.594   7.966 -0.8096  0.0086  0.5982
  132OSM   H18S14278   6.221   5.581   8.075 -0.1275 -1.1339  0.3639
  132OSM   H18T14279   6.244   5.502   7.918  0.5000  1.1327 -0.5001
  132OSM   H18U14280   6.096   5.610   7.936 -0.4418 -0.3934 -1.0288
  132OSM    C1F14281   6.381   5.160   6.391  0.5610 -0.1221  0.0956
  132OSM     OF14282   6.399   5.081   6.299  0.0999  0.0836  0.5443
  132OSM    C2F14283   6.341   5.129   6.524 -0.1601 -0.0597  0.3371
  132OSM    H2F14284   6.248   5.069   6.520  0.1625 -0.4957 -1.0228
  132OSM    H2G14285   6.319   5.224   6.578 -0.7028  0.5483 -0.9006
  132OSM    C3F14286   6.451   5.047   6.592  0.3046 -0.4105  0.4885
  132OSM    H3F14287   6.554   5.088   6.589  0.2272 -0.2332  0.2332
  132OSM    H3G14288   6.449   4.950   6.538 -3.2307  1.1700 -2.6618
  132OSM    C4F14289   6.414   5.010   6.739 -0.4426  0.4611 -0.3353
  132OSM    H4F14290   6.311   4.971   6.737  0.1644 -1.2200 -1.4334
  132OSM    H4G14291   6.434   5.100   6.801 -0.5870  0.0646  0.2936
  132OSM    C5F14292   6.501   4.891   6.795 -0.0783 -0.4103  0.0313
  132OSM    H5F14293   6.604   4.931   6.804 -0.6070  0.5785  2.7976
  132OSM    H5G14294   6.489   4.806   6.724 -0.3990  0.8487 -1.4682
  132OSM    C6F14295   6.458   4.863   6.936 -0.6354  0.1233 -0.2373
  132OSM    H6F14296   6.347   4.858   6.941 -0.5913 -0.3941  0.3654
  132OSM    H6G14297   6.500   4.946   6.997 -0.6003  1.3921 -1.9000
  132OSM    C7F14298   6.524   4.741   7.008 -0.3868 -0.3901  0.5943
  132OSM    H7F14299   6.620   4.775   7.054 -0.4612 -1.1701  1.3375
  132OSM    H7G14300   6.544   4.661   6.934 -1.1032  0.2645 -0.3318
  132OSM    C8F14301   6.442   4.685   7.126 -0.0820  0.5273  0.0696
  132OSM    H8F14302   6.497   4.594   7.157  2.1779  0.9418 -2.3520
  132OSM    H8G14303   6.342   4.656   7.088  0.0724  1.5320 -1.1472
  132OSM    C9F14304   6.438   4.794   7.232 -0.1986  0.2760  0.0703
  132OSM    H9F14305   6.528   4.858   7.242 -0.0393  0.0929 -0.1833
  132OSM   C10F14306   6.349   4.806   7.335 -0.1924  0.3268 -0.3693
  132OSM   H10F14307   6.359   4.888   7.408  0.1486 -0.0270 -0.0197
  132OSM   C11F14308   6.226   4.720   7.354 -0.3170  0.2977 -0.6352
  132OSM   H11F14309   6.183   4.677   7.261 -0.4844 -0.6215 -0.1518
  132OSM   H11G14310   6.144   4.791   7.374 -0.0389  0.5793 -0.4787
  132OSM   C12F14311   6.250   4.627   7.470  0.2626 -0.2722  0.1580
  132OSM   H12F14312   6.327   4.554   7.438 -0.2724 -1.0790  0.6607
  132OSM   H12G14313   6.153   4.573   7.478  0.9769 -2.0617 -1.9492
  132OSM   C13F14314   6.291   4.698   7.604 -0.4081 -0.7758 -0.2948
  132OSM   H13F14315   6.384   4.757   7.593 -0.0778 -0.7577  2.0604
  132OSM   H13G14316   6.314   4.617   7.677  2.1458  0.6228  0.5852
  132OSM   C14F14317   6.189   4.792   7.671 -0.6964 -0.2523  0.4215
  132OSM   H14F14318   6.102   4.729   7.701  0.4082 -1.1890  1.7646
  132OSM   H14G14319   6.143   4.860   7.595  0.6242  0.5148  0.2802
  132OSM   C15F14320   6.243   4.881   7.784  0.5296 -0.5961 -0.4148
  132OSM   H15F14321   6.160   4.934   7.834  0.7722 -0.6312  0.0303
  132OSM   H15G14322   6.321   4.955   7.756 -0.4502  0.6429  0.0736
  132OSM   C16F14323   6.321   4.804   7.896  0.6535 -0.2713 -0.1115
  132OSM   H16F14324   6.417   4.770   7.850  1.0667 -0.1906  0.6720
  132OSM   H16G14325   6.256   4.722   7.932 -0.5413  0.9784  0.6372
  132OSM   C17F14326   6.368   4.880   8.025 -0.3582 -0.5176  0.1100
  132OSM   H17F14327   6.280   4.917   8.081  0.2930 -0.2476  0.9641
  132OSM   H17G14328   6.424   4.966   7.983  0.2767  0.0260  1.9797
  132OSM   C18F14329   6.451   4.800   8.132  0.5252  0.0679  0.5766
  132OSM   H18F14330   6.520   4.735   8.073 -0.3475  1.3858 -1.9989
  132OSM   H18G14331   6.379   4.752   8.202 -1.4011  1.7735 -0.1427
  132OSM   H18H14332   6.514   4.874   8.187  1.9399 -1.9132  1.7826
  133OSM      N14333   0.497   4.489   5.964 -0.0634 -0.1517  0.0448
  133OSM    C1514334   0.624   4.481   5.888 -0.1548 -0.1601 -0.4786
  133OSM   H15A14335   0.693   4.424   5.950 -0.2072  1.0238  0.7022
  133OSM   H15B14336   0.671   4.575   5.864  0.8183 -0.2576  0.8539
  133OSM   H15C14337   0.597   4.426   5.799  2.8810 -1.9184 -0.4906
  133OSM    C1414338   0.462   4.356   6.009  1.0198  0.0556 -0.1789
  133OSM   H14A14339   0.378   4.353   6.077  2.0311  1.2048  1.1671
  133OSM   H14B14340   0.542   4.318   6.070 -0.3001  0.6677  2.0570
  133OSM   H14C14341   0.462   4.285   5.927  0.5354  1.5182 -1.4840
  133OSM    C1314342   0.510   4.581   6.078  0.1683 -0.6304 -0.7292
  133OSM   H13A14343   0.527   4.682   6.043 -0.4949 -0.2215  0.0827
  133OSM   H13B14344   0.586   4.546   6.145 -0.8669 -0.5813  0.5029
  133OSM   H13C14345   0.417   4.591   6.132 -0.1442 -2.9927 -0.7339
  133OSM    C1214346   0.385   4.531   5.873  0.2650 -0.1478 -0.2775
  133OSM   H12A14347   0.285   4.519   5.913  0.2928 -0.8187 -0.4014
  133OSM   H12B14348   0.384   4.471   5.783  0.7474 -0.6048  0.0233
  133OSM    C1114349   0.410   4.674   5.827  0.0279 -0.2003 -0.3234
  133OSM   H11A14350   0.349   4.687   5.735 -2.7613 -2.7120  1.0203
  133OSM   H11B14351   0.511   4.679   5.779 -0.4049  0.5923 -1.1923
  133OSM      P14352   0.284   4.886   5.937  0.5295  0.4986  0.2018
  133OSM    O1314353   0.330   4.982   6.037 -0.1347 -0.0173 -0.2327
  133OSM    O1414354   0.260   4.940   5.801  0.1879 -0.1203  0.1366
  133OSM    O1114355   0.144   4.825   5.991  0.2480  0.3325 -0.0900
  133OSM    O1214356   0.393   4.773   5.933  1.1299  0.1846  0.0395
  133OSM    C1S14357   0.133   4.766   6.115 -0.2440  0.5988 -0.4034
  133OSM    H1S14358   0.225   4.708   6.138 -0.0524  1.5365  1.4041
  133OSM    H1T14359   0.043   4.700   6.123  0.6449 -0.5566  0.3604
  133OSM     NF14360   0.077   4.776   6.359 -0.4410  0.6956 -0.5895
  133OSM    HNF14361  -0.017   4.744   6.374 -0.4759  0.9832 -0.1624
  133OSM    C2S14362   0.099   4.862   6.244  0.4303  0.0317 -0.8695
  133OSM    H2S14363   0.185   4.929   6.268  0.6234 -1.0496  1.8109
  133OSM    C3S14364  -0.023   4.956   6.208 -0.2656 -0.2482 -0.1465
  133OSM    H3S14365  -0.117   4.896   6.197  1.3179 -2.7972 -0.5298
  133OSM     O314366  -0.007   5.024   6.079  0.4387  0.1884  0.4070
  133OSM    HO314367   0.032   4.959   6.022  1.5400  3.1020 -2.4907
  133OSM    C4S14368  -0.049   5.056   6.319 -0.0809 -0.3303  0.1249
  133OSM    H4S14369  -0.109   5.007   6.398 -2.4374  0.0050 -1.3688
  133OSM    C5S14370  -0.007   5.179   6.335 -0.6080  0.0305  0.2373
  133OSM    H5S14371   0.063   5.225   6.264 -1.4944  0.9023 -0.0884
  133OSM    C6S14372  -0.033   5.270   6.453  0.3944 -0.6786 -0.0760
  133OSM    H6S14373  -0.123   5.240   6.512  0.4954  0.7477  0.8539
  133OSM    H6T14374  -0.051   5.373   6.415 -0.9535 -1.0584 -0.5061
  133OSM    C7S14375   0.090   5.296   6.548 -0.0111  0.2994  0.3178
  133OSM    H7S14376   0.171   5.349   6.493  1.0158 -2.7766 -1.3500
  133OSM    H7T14377   0.135   5.197   6.570 -0.2580 -0.0340 -0.6510
  133OSM    C8S14378   0.059   5.354   6.682  0.0262 -0.8722  0.0012
  133OSM    H8S14379   0.016   5.456   6.669  0.2917 -0.9608 -1.9446
  133OSM    H8T14380   0.151   5.370   6.743  1.2541 -0.7124 -1.8062
  133OSM    C9S14381  -0.037   5.274   6.764  0.1972  0.4428  0.1419
  133OSM    H9S14382  -0.014   5.167   6.751  2.6395  0.9242  0.0312
  133OSM    H9T14383  -0.143   5.285   6.730  0.1283 -2.7305 -1.0072
  133OSM   C10S14384  -0.028   5.313   6.908  0.3460  0.8096 -0.1096
  133OSM   H10S14385  -0.047   5.422   6.916 -1.3792  0.4645  0.9663
  133OSM   H10T14386   0.072   5.292   6.951  1.2230  0.5714 -2.1652
  133OSM   C11S14387  -0.134   5.227   6.987 -0.1056  0.3220 -0.5066
  133OSM   H11S14388  -0.115   5.120   6.963  2.4240 -0.1678  2.7957
  133OSM   H11T14389  -0.234   5.262   6.957 -0.0847 -1.3828 -2.8042
  133OSM   C12S14390  -0.095   5.231   7.134  0.4127 -0.0688  0.6283
  133OSM   H12S14391  -0.090   5.335   7.174  0.1207 -0.7980  2.7269
  133OSM   H12T14392   0.000   5.174   7.144 -1.0352 -2.4605  1.7545
  133OSM   C13S14393  -0.204   5.169   7.224 -0.4374  0.2437  0.3710
  133OSM   H13S14394  -0.247   5.073   7.188  0.9935  0.5273 -2.3037
  133OSM   H13T14395  -0.297   5.230   7.218 -0.5621  0.2002  1.5152
  133OSM   C14S14396  -0.178   5.167   7.375  0.0135  0.0806  0.6164
  133OSM   H14S14397  -0.086   5.104   7.380 -0.3142 -0.4842 -0.2322
  133OSM   H14T14398  -0.260   5.108   7.420 -0.7407 -1.0135 -2.0158
  133OSM   C15S14399  -0.159   5.300   7.440 -0.3813 -0.3132  0.6900
  133OSM   H15S14400  -0.242   5.361   7.398 -2.5063 -1.6691  2.6630
  133OSM   H15T14401  -0.065   5.334   7.392 -0.8073 -0.6285 -0.3951
  133OSM   C16S14402  -0.161   5.306   7.593  0.3300  0.1371 -0.3772
  133OSM   H16S14403  -0.124   5.408   7.617  0.3858 -0.1468  0.8493
  133OSM   H16T14404  -0.086   5.236   7.635  0.7489  1.5133  1.3058
  133OSM   C17S14405  -0.310   5.292   7.644  0.3113 -0.1488  0.2050
  133OSM   H17S14406  -0.345   5.188   7.626  0.8393 -0.2925 -0.0030
  133OSM   H17T14407  -0.374   5.365   7.591  2.5199  0.9204 -1.1049
  133OSM   C18S14408  -0.315   5.316   7.799  0.1019  0.6996  0.8015
  133OSM   H18S14409  -0.273   5.413   7.832 -0.2317  0.7553  1.0682
  133OSM   H18T14410  -0.260   5.233   7.847 -2.1398 -1.7980 -0.6309
  133OSM   H18U14411  -0.419   5.321   7.837 -1.5281  0.8792 -3.1722
  133OSM    C1F14412   0.169   4.708   6.429 -0.6640 -0.6425  0.1544
  133OSM     OF14413   0.280   4.723   6.396 -0.4081 -0.0851 -0.0617
  133OSM    C2F14414   0.120   4.626   6.540  0.5581  0.3797 -0.2342
  133OSM    H2F14415   0.202   4.562   6.580 -0.2416 -0.9636 -0.6725
  133OSM    H2G14416   0.040   4.555   6.510 -0.0386  1.3643 -1.0371
  133OSM    C3F14417   0.075   4.708   6.666 -0.2514 -0.4126  0.1032
  133OSM    H3F14418   0.039   4.639   6.745  2.2776 -1.6001  0.3019
  133OSM    H3G14419  -0.000   4.782   6.631 -0.2726 -0.5939 -0.2343
  133OSM    C4F14420   0.183   4.806   6.725 -0.5015  0.3882 -0.2618
  133OSM    H4F14421   0.187   4.884   6.646  2.7892 -0.4549 -1.0645
  133OSM    H4G14422   0.279   4.757   6.750  0.6183  2.9815  0.8015
  133OSM    C5F14423   0.140   4.890   6.851  0.5452  0.4525 -0.1448
  133OSM    H5F14424   0.032   4.908   6.831  0.2444 -0.9595  0.0936
  133OSM    H5G14425   0.201   4.983   6.855 -0.3958  1.0398  0.8508
  133OSM    C6F14426   0.162   4.817   6.988 -0.2037 -0.4434  0.3978
  133OSM    H6F14427   0.269   4.789   7.003 -0.0239  1.4911  3.6720
  133OSM    H6G14428   0.102   4.724   6.996 -2.0370  0.8373  2.9842
  133OSM    C7F14429   0.123   4.901   7.103  0.8204  0.2664  0.4034
  133OSM    H7F14430   0.013   4.896   7.121  1.0655  1.2943  2.5023
  133OSM    H7G14431   0.142   5.007   7.078 -0.8062  0.6466  0.6385
  133OSM    C8F14432   0.178   4.882   7.250 -0.3386 -0.6587 -0.0124
  133OSM    H8F14433   0.117   4.959   7.302 -0.1021 -1.1588  1.0165
  133OSM    H8G14434   0.282   4.922   7.245 -0.5298 -0.1250  0.1818
  133OSM    C9F14435   0.168   4.745   7.306  0.4403 -0.1529 -0.4630
  133OSM    H9F14436   0.213   4.663   7.248  1.0579  0.4908 -0.9139
  133OSM   C10F14437   0.089   4.712   7.411  0.3114  0.0813 -0.4629
  133OSM   H10F14438   0.082   4.603   7.428 -2.4201  0.2234 -0.2924
  133OSM   C11F14439   0.011   4.815   7.493  0.4959  0.0447  0.1709
  133OSM   H11F14440  -0.058   4.877   7.432  1.3257 -0.1129 -0.9654
  133OSM   H11G14441   0.073   4.892   7.544 -2.0121  1.4660  1.2775
  133OSM   C12F14442  -0.064   4.745   7.608 -0.5900  0.5374 -0.7295
  133OSM   H12F14443  -0.151   4.681   7.581 -1.1090  0.7355  0.4323
  133OSM   H12G14444  -0.114   4.824   7.668 -1.4411 -0.7706  0.3219
  133OSM   C13F14445   0.021   4.665   7.703 -0.2825  0.2921  0.5332
  133OSM   H13F14446   0.107   4.726   7.740  1.9687 -2.0513 -0.5000
  133OSM   H13G14447   0.084   4.584   7.661  1.0206  0.8493  1.3340
  133OSM   C14F14448  -0.049   4.618   7.829 -0.2253 -0.6186 -0.5797
  133OSM   H14F14449  -0.130   4.683   7.868  0.0904  0.0413 -0.9987
  133OSM   H14G14450   0.022   4.601   7.913 -2.3619 -1.6900  1.1131
  133OSM   C15F14451  -0.110   4.481   7.813  0.0157 -0.2282 -0.3436
  133OSM   H15F14452  -0.039   4.404   7.778 -0.5489 -0.1499 -1.7170
  133OSM   H15G14453  -0.185   4.475   7.731  0.8760  1.7250 -1.3570
  133OSM   C16F14454  -0.171   4.421   7.939 -0.7694 -0.1011  0.2569
  133OSM   H16F14455  -0.263   4.363   7.913  0.9272 -3.1351  0.6202
  133OSM   H16G14456  -0.196   4.505   8.006 -1.0885 -0.6033  0.7777
  133OSM   C17F14457  -0.068   4.328   8.023  0.3381 -0.9349  0.2991
  133OSM   H17F14458   0.032   4.376   8.018 -0.5271  0.8531 -3.0979
  133OSM   H17G14459  -0.057   4.233   7.966  4.8578 -0.9423  0.8430
  133OSM   C18F14460  -0.120   4.292   8.157  0.4959  0.1578  0.1357
  133OSM   H18F14461  -0.226   4.261   8.165  0.1066  1.8125  3.1422
  133OSM   H18G14462  -0.101   4.369   8.235 -0.3509 -0.1319  0.6376
  133OSM   H18H14463  -0.072   4.201   8.199  2.9343  1.4227  0.3130
  134OSM      N14464   1.938   2.428   6.159  0.6571  0.0819 -0.3270
  134OSM    C1514465   2.049   2.372   6.067 -0.1948 -0.3356 -0.0060
  134OSM   H15A14466   2.021   2.284   6.012 -2.3912  0.0608  0.3796
  134OSM   H15B14467   2.139   2.354   6.124 -0.2704 -1.3378 -0.1834
  134OSM   H15C14468   2.067   2.451   5.995  1.1929 -0.9685 -0.3831
  134OSM    C1414469   1.976   2.559   6.211 -0.0852  0.3580 -0.0839
  134OSM   H14A14470   1.899   2.603   6.273 -2.4166 -2.4991 -0.7288
  134OSM   H14B14471   1.990   2.637   6.137  1.4848 -0.9058 -1.1721
  134OSM   H14C14472   2.058   2.561   6.281 -1.3876  1.6245  1.4779
  134OSM    C1314473   1.815   2.435   6.074 -0.1218 -0.3544 -0.3183
  134OSM   H13A14474   1.816   2.499   5.987  0.8380 -0.5343 -0.4602
  134OSM   H13B14475   1.727   2.464   6.129 -0.0058  1.1706 -0.8898
  134OSM   H13C14476   1.796   2.340   6.027  0.9833 -1.1812  0.8097
  134OSM    C1214477   1.920   2.336   6.278 -0.1366  0.3947  0.2263
  134OSM   H12A14478   1.862   2.385   6.355  1.4463 -1.7735  2.9679
  134OSM   H12B14479   2.015   2.332   6.329 -0.5445 -0.8899  0.9318
  134OSM    C1114480   1.855   2.197   6.267 -0.1622  0.2943  0.0093
  134OSM   H11A14481   1.880   2.149   6.364  4.4172 -0.4110 -1.2849
  134OSM   H11B14482   1.902   2.144   6.181 -1.1806  1.3388 -1.2516
  134OSM      P14483   1.636   2.122   6.144 -0.2695  0.4190 -0.3374
  134OSM    O1314484   1.558   2.213   6.060  0.0528  0.0927  0.1593
  134OSM    O1414485   1.729   2.036   6.077 -0.0819  0.4543 -0.5135
  134OSM    O1114486   1.554   2.040   6.245  0.0390  0.6813  0.4043
  134OSM    O1214487   1.719   2.214   6.238 -0.0030  0.0381 -0.1717
  134OSM    C1S14488   1.614   2.000   6.373  0.6859  0.4656 -0.0601
  134OSM    H1S14489   1.617   2.092   6.434  3.1230  0.9726 -0.8288
  134OSM    H1T14490   1.719   1.964   6.368 -0.3342 -2.7556 -1.2527
  134OSM     NF14491   1.560   1.875   6.577  0.0353  0.0468 -0.3385
  134OSM    HNF14492   1.619   1.796   6.592  1.0597  0.8608 -0.0023
  134OSM    C2S14493   1.524   1.895   6.436 -0.4342  0.0043 -0.0587
  134OSM    H2S14494   1.420   1.934   6.432  0.3785  2.3477  0.1938
  134OSM    C3S14495   1.511   1.772   6.349  0.5999 -0.0611  1.0462
  134OSM    H3S14496   1.609   1.719   6.339 -0.0150 -1.1941  0.9026
  134OSM     O314497   1.471   1.802   6.222 -0.2052  0.3586  0.2035
  134OSM    HO314498   1.470   1.897   6.208 -0.6772  0.4278  0.6740
  134OSM    C4S14499   1.409   1.673   6.395  0.2644  0.1960  0.7853
  134OSM    H4S14500   1.304   1.703   6.410  0.3980  1.8987 -1.1810
  134OSM    C5S14501   1.444   1.552   6.435  0.4871  0.0413  0.4958
  134OSM    H5S14502   1.551   1.526   6.436  0.6862  0.8338  1.8193
  134OSM    C6S14503   1.361   1.443   6.497  0.5191  0.2695  0.1589
  134OSM    H6S14504   1.357   1.365   6.417 -0.5025  1.2521 -0.7667
  134OSM    H6T14505   1.257   1.479   6.507  0.1214 -0.9509  0.6220
  134OSM    C7S14506   1.425   1.398   6.632 -0.2421 -0.4150  0.3011
  134OSM    H7S14507   1.536   1.404   6.621 -0.3540 -0.2190 -0.8400
  134OSM    H7T14508   1.391   1.298   6.667  1.4165 -1.0136  0.2958
  134OSM    C8S14509   1.384   1.496   6.741 -0.2595  0.4140 -0.0477
  134OSM    H8S14510   1.274   1.496   6.757 -0.0543 -0.5660  1.6033
  134OSM    H8T14511   1.411   1.602   6.725 -0.7321  0.3050 -1.7499
  134OSM    C9S14512   1.423   1.444   6.884 -0.4221 -0.2060 -0.1669
  134OSM    H9S14513   1.534   1.453   6.878 -0.2924 -2.2421 -2.6541
  134OSM    H9T14514   1.393   1.337   6.887 -0.0651 -0.3409 -0.9709
  134OSM   C10S14515   1.377   1.537   6.994  0.1311  0.3427  0.1426
  134OSM   H10S14516   1.275   1.508   7.029 -0.3496  1.0806 -0.6001
  134OSM   H10T14517   1.388   1.642   6.961  2.2131  0.3343  0.7187
  134OSM   C11S14518   1.455   1.519   7.126 -0.1291  0.3000 -0.4771
  134OSM   H11S14519   1.565   1.531   7.115  0.5019 -3.4586  0.4426
  134OSM   H11T14520   1.445   1.410   7.140  1.0720 -0.1366 -2.5723
  134OSM   C12S14521   1.379   1.563   7.249  0.3444 -0.6255 -0.5703
  134OSM   H12S14522   1.278   1.517   7.250 -1.0178  2.1986 -0.4903
  134OSM   H12T14523   1.354   1.671   7.243  1.0804 -0.3624  0.6496
  134OSM   C13S14524   1.454   1.540   7.383 -0.1195 -0.4046 -0.4383
  134OSM   H13S14525   1.562   1.563   7.366  0.3269 -2.3259 -0.3963
  134OSM   H13T14526   1.465   1.430   7.391  0.4995 -0.5419 -2.5244
  134OSM   C14S14527   1.404   1.617   7.507  0.4527 -0.1044 -0.3220
  134OSM   H14S14528   1.300   1.580   7.521  0.1925  0.8114  0.2075
  134OSM   H14T14529   1.406   1.727   7.495  0.4128 -0.2438 -1.8456
  134OSM   C15S14530   1.482   1.602   7.642  0.5932  0.2492  0.0958
  134OSM   H15S14531   1.570   1.669   7.634  0.1804  0.7006 -0.9061
  134OSM   H15T14532   1.500   1.493   7.640 -0.3237  0.0907 -0.2174
  134OSM   C16S14533   1.404   1.642   7.765 -0.2472 -0.1240  0.8491
  134OSM   H16S14534   1.305   1.676   7.728  0.3811  0.5653 -0.2699
  134OSM   H16T14535   1.462   1.718   7.822  0.4295 -0.6456  0.8607
  134OSM   C17S14536   1.381   1.538   7.875  0.7331 -0.9010 -0.0091
  134OSM   H17S14537   1.303   1.464   7.849 -1.5011  1.1289  0.5395
  134OSM   H17T14538   1.329   1.595   7.955 -0.8163 -0.5248 -1.2268
  134OSM   C18S14539   1.511   1.469   7.931 -0.2359  0.3278  0.0584
  134OSM   H18S14540   1.567   1.539   7.996  0.5214 -1.8894  1.9532
  134OSM   H18T14541   1.573   1.430   7.849 -0.4071 -0.4037  0.2676
  134OSM   H18U14542   1.482   1.380   7.992  0.5424  0.7145  1.0142
  134OSM    C1F14543   1.543   1.954   6.684  0.0854 -0.1570  0.1386
  134OSM     OF14544   1.490   2.064   6.666 -0.0499  0.1536  0.0910
  134OSM    C2F14545   1.584   1.905   6.821  0.0023 -0.8932 -0.2228
  134OSM    H2F14546   1.693   1.889   6.831  0.1933 -0.2148 -1.0628
  134OSM    H2G14547   1.533   1.807   6.835 -2.8456  0.6874  1.4280
  134OSM    C3F14548   1.543   1.998   6.930  0.8089 -0.4275 -0.2209
  134OSM    H3F14549   1.435   2.024   6.928  0.9647  0.2845  0.2823
  134OSM    H3G14550   1.584   2.101   6.926  0.2829 -0.0253  2.4223
  134OSM    C4F14551   1.577   1.946   7.070  0.0952 -0.3384  0.3023
  134OSM    H4F14552   1.687   1.956   7.080 -0.0633 -0.0426  2.2315
  134OSM    H4G14553   1.553   1.840   7.092  0.3769 -0.1819  1.4465
  134OSM    C5F14554   1.507   2.028   7.184 -0.2027 -0.9163 -0.5019
  134OSM    H5F14555   1.398   2.012   7.196 -0.2606  0.7538  1.6672
  134OSM    H5G14556   1.524   2.138   7.182 -0.7102 -0.8350 -0.4740
  134OSM    C6F14557   1.555   1.976   7.320 -0.4245  0.1374  0.3851
  134OSM    H6F14558   1.665   1.989   7.331  0.3324 -3.4130 -1.4655
  134OSM    H6G14559   1.519   1.872   7.334  0.4317 -0.1437  0.5634
  134OSM    C7F14560   1.497   2.056   7.440 -0.3509  0.4345 -0.6591
  134OSM    H7F14561   1.387   2.044   7.428 -0.4210 -0.9332  1.0199
  134OSM    H7G14562   1.537   2.159   7.427  1.5170  0.1345  1.9526
  134OSM    C8F14563   1.530   2.007   7.580 -0.4292 -0.4699  0.1826
  134OSM    H8F14564   1.641   2.004   7.589 -0.4876 -1.3374  0.7969
  134OSM    H8G14565   1.489   1.904   7.589 -1.6741 -0.7170 -5.2641
  134OSM    C9F14566   1.466   2.089   7.685 -0.3108 -0.4712  0.2802
  134OSM    H9F14567   1.387   2.158   7.649  0.0190 -0.7777 -1.1052
  134OSM   C10F14568   1.511   2.104   7.813  0.2276  0.3351 -0.7400
  134OSM   H10F14569   1.468   2.184   7.875 -0.7852  0.3789 -1.4748
  134OSM   C11F14570   1.635   2.030   7.864 -0.4104  0.1766 -0.3859
  134OSM   H11F14571   1.722   2.076   7.813 -0.0085 -0.1043  0.0434
  134OSM   H11G14572   1.628   1.922   7.839  0.6744  0.0956 -0.3615
  134OSM   C12F14573   1.660   2.029   8.013  0.1675  0.0697 -0.5948
  134OSM   H12F14574   1.561   2.016   8.061  1.4447 -0.5004  2.1170
  134OSM   H12G14575   1.716   2.120   8.044  1.3405  0.0357 -2.4643
  134OSM   C13F14576   1.734   1.899   8.053 -0.3658  0.4573 -0.1452
  134OSM   H13F14577   1.837   1.898   8.010 -0.0555  1.9686  0.4951
  134OSM   H13G14578   1.672   1.811   8.026 -1.0052  1.7780 -3.4392
  134OSM   C14F14579   1.754   1.887   8.205 -0.4693 -0.0297 -0.1930
  134OSM   H14F14580   1.654   1.876   8.252  0.4719  1.8980  2.5523
  134OSM   H14G14581   1.807   1.979   8.238 -0.0669 -0.4670  0.4057
  134OSM   C15F14582   1.822   1.757   8.257  0.4216 -0.0958 -0.7346
  134OSM   H15F14583   1.762   1.665   8.245  0.6946 -0.3235 -0.3750
  134OSM   H15G14584   1.841   1.781   8.364 -2.0249  0.0506 -0.2649
  134OSM   C16F14585   1.957   1.738   8.192 -1.1390 -0.4418 -0.3799
  134OSM   H16F14586   2.015   1.833   8.196  0.6830 -1.5233  0.4773
  134OSM   H16G14587   1.930   1.709   8.088 -0.1762 -1.1573 -0.4438
  134OSM   C17F14588   2.027   1.623   8.244 -0.3842  0.2287  0.2705
  134OSM   H17F14589   1.959   1.535   8.233  0.8096 -0.5453 -1.4378
  134OSM   H17G14590   2.056   1.633   8.350  2.9378 -2.0248 -0.2619
  134OSM   C18F14591   2.146   1.592   8.154 -0.3244 -0.5992 -0.0411
  134OSM   H18F14592   2.110   1.582   8.050  0.0028  3.4530 -0.6801
  134OSM   H18G14593   2.187   1.498   8.196 -0.9045 -1.1375 -0.6540
  134OSM   H18H14594   2.224   1.671   8.151 -1.9288  1.0715  0.0355
  135OSM      N14595   1.036   1.921   5.875  0.1914  0.0561  0.1155
  135OSM    C1514596   1.158   1.836   5.849 -0.0806 -0.0005  0.1572
  135OSM   H15A14597   1.158   1.796   5.749 -1.5715  2.3429 -0.8670
  135OSM   H15B14598   1.164   1.759   5.925 -0.2480  0.5423  0.7331
  135OSM   H15C14599   1.240   1.905   5.861 -0.7201  0.5076  1.9645
  135OSM    C1414600   1.061   2.061   5.817  0.2183 -0.3884 -0.1585
  135OSM   H14A14601   0.971   2.117   5.798  0.3239 -0.2649 -0.2926
  135OSM   H14B14602   1.113   2.061   5.722 -0.0782  0.5554 -0.3298
  135OSM   H14C14603   1.117   2.127   5.882  1.3612 -1.1400 -0.3393
  135OSM    C1314604   0.922   1.850   5.804  0.2259 -0.2493 -0.0606
  135OSM   H13A14605   0.893   1.762   5.860 -1.3148  0.9231  1.0844
  135OSM   H13B14606   0.960   1.828   5.706  0.4921  0.7901 -0.2042
  135OSM   H13C14607   0.838   1.914   5.781  1.9530  2.0257 -0.3805
  135OSM    C1214608   1.007   1.925   6.024 -0.1465  0.7883 -0.5620
  135OSM   H12A14609   0.992   1.821   6.051 -0.8989  1.7296  3.2205
  135OSM   H12B14610   0.911   1.967   6.046 -1.4493 -2.1201 -0.1363
  135OSM    C1114611   1.116   1.981   6.127 -0.2294  0.6871  0.7471
  135OSM   H11A14612   1.208   1.925   6.102  0.1608  2.0531 -1.1108
  135OSM   H11B14613   1.090   1.976   6.235  3.1686 -0.0786  1.6632
  135OSM      P14614   1.081   2.245   6.142 -0.0244 -0.5075  0.3675
  135OSM    O1314615   1.154   2.369   6.097 -0.4187 -0.2929  0.8364
  135OSM    O1414616   0.940   2.233   6.100 -0.0713  0.4239  0.1936
  135OSM    O1114617   1.097   2.229   6.294  0.7146  0.1344  0.3256
  135OSM    O1214618   1.152   2.114   6.086  0.6152  0.3274 -0.3007
  135OSM    C1S14619   1.225   2.219   6.354 -0.9880  0.0990  0.3734
  135OSM    H1S14620   1.301   2.264   6.287 -0.9836 -1.8922 -1.0777
  135OSM    H1T14621   1.253   2.114   6.377 -0.2101  0.1816 -0.1533
  135OSM     NF14622   1.368   2.306   6.539 -0.8769 -0.5955  0.1356
  135OSM    HNF14623   1.408   2.229   6.586 -0.7833 -0.2914  0.5521
  135OSM    C2S14624   1.232   2.290   6.494 -0.4625  0.0553  0.3740
  135OSM    H2S14625   1.188   2.392   6.481  1.2488  1.0002  1.6431
  135OSM    C3S14626   1.152   2.204   6.588 -0.1257  0.2092 -0.8387
  135OSM    H3S14627   1.194   2.102   6.600  2.3949  1.2171 -0.3622
  135OSM     O314628   1.017   2.185   6.549 -0.0289 -0.8090 -0.1236
  135OSM    HO314629   1.011   2.209   6.456 -1.3255  0.1630  0.1843
  135OSM    C4S14630   1.159   2.268   6.729 -0.3275  0.2068  0.4002
  135OSM    H4S14631   1.112   2.367   6.735 -0.0653  0.3828 -0.3201
  135OSM    C5S14632   1.207   2.206   6.842  0.2131  0.5043 -0.0373
  135OSM    H5S14633   1.246   2.103   6.847  0.6018  0.6663  0.3699
  135OSM    C6S14634   1.180   2.280   6.974 -0.2296  0.3728 -0.8410
  135OSM    H6S14635   1.125   2.205   7.035  0.5907  0.3143 -0.1419
  135OSM    H6T14636   1.121   2.372   6.959  0.0057  0.9119  1.2454
  135OSM    C7S14637   1.310   2.334   7.031  0.1193  0.4379  0.6928
  135OSM    H7S14638   1.354   2.402   6.955 -0.6147  2.6134  2.1211
  135OSM    H7T14639   1.376   2.246   7.049  0.0373  0.7386  2.6226
  135OSM    C8S14640   1.293   2.415   7.156 -0.2030  0.1614 -1.1202
  135OSM    H8S14641   1.209   2.487   7.157  0.3511  0.8162 -0.8232
  135OSM    H8T14642   1.385   2.477   7.158 -0.3986  0.4436  0.5511
  135OSM    C9S14643   1.281   2.328   7.283 -0.2509 -0.0516  0.0956
  135OSM    H9S14644   1.375   2.270   7.297 -0.0571  0.4829  1.0717
  135OSM    H9T14645   1.199   2.255   7.264 -1.1451  1.0505 -0.4200
  135OSM   C10S14646   1.264   2.398   7.413  0.4059 -0.3107 -0.6742
  135OSM   H10S14647   1.217   2.321   7.479  0.4529  0.0460 -0.2153
  135OSM   H10T14648   1.198   2.487   7.405  0.5272  0.2372  2.6705
  135OSM   C11S14649   1.401   2.435   7.492  0.0510  0.8160 -0.4514
  135OSM   H11S14650   1.456   2.522   7.448 -1.1097  2.0238  0.4005
  135OSM   H11T14651   1.461   2.343   7.476  1.1236  1.1983  1.1486
  135OSM   C12S14652   1.364   2.469   7.640 -0.6928  0.6646 -0.5126
  135OSM   H12S14653   1.407   2.387   7.702 -1.1842  1.0608  0.3627
  135OSM   H12T14654   1.254   2.474   7.650 -0.7324 -1.8304  1.4430
  135OSM   C13S14655   1.443   2.590   7.698  0.1549 -0.0956 -0.4114
  135OSM   H13S14656   1.436   2.681   7.635  2.9145 -0.9428 -2.1009
  135OSM   H13T14657   1.553   2.579   7.685 -0.2758 -1.3481 -4.5783
  135OSM   C14S14658   1.410   2.623   7.846 -0.0581 -0.8695  0.6554
  135OSM   H14S14659   1.319   2.687   7.858 -0.0404 -0.2337 -2.0434
  135OSM   H14T14660   1.483   2.688   7.899  0.5089 -1.0588  0.1137
  135OSM   C15S14661   1.389   2.489   7.929  0.4808  0.0968  0.5468
  135OSM   H15S14662   1.479   2.427   7.910 -0.3913 -0.4436 -2.1804
  135OSM   H15T14663   1.301   2.443   7.881  0.0877 -0.2058  1.5316
  135OSM   C16S14664   1.353   2.528   8.067 -0.8187  0.0921  0.1302
  135OSM   H16S14665   1.301   2.440   8.111 -1.0359 -0.1481 -0.6072
  135OSM   H16T14666   1.274   2.605   8.075 -1.3369 -0.4010 -0.1778
  135OSM   C17S14667   1.475   2.552   8.159 -0.9372  0.3392  0.0604
  135OSM   H17S14668   1.534   2.640   8.127  1.1648 -0.5799  1.1736
  135OSM   H17T14669   1.529   2.455   8.161 -0.9521  0.3227 -0.3437
  135OSM   C18S14670   1.433   2.585   8.310 -0.0299 -0.0072  0.6582
  135OSM   H18S14671   1.526   2.589   8.371 -0.2355 -0.4454  1.0013
  135OSM   H18T14672   1.367   2.506   8.350 -1.0567 -0.7123 -2.1541
  135OSM   H18U14673   1.388   2.686   8.314  0.7692  0.4261 -0.5171
  135OSM    C1F14674   1.450   2.394   6.480 -0.4257  0.0068 -0.5496
  135OSM     OF14675   1.411   2.469   6.392 -0.2902 -0.0513  0.4318
  135OSM    C2F14676   1.592   2.372   6.513  0.0652  0.1388  0.2435
  135OSM    H2F14677   1.644   2.368   6.415  1.9144  1.5399  1.1228
  135OSM    H2G14678   1.615   2.281   6.573 -0.5714  1.5604  2.7775
  135OSM    C3F14679   1.649   2.500   6.588 -0.6627  1.0512  0.3985
  135OSM    H3F14680   1.641   2.589   6.522  1.2637  1.3823  0.5706
  135OSM    H3G14681   1.756   2.471   6.587 -0.8638  0.2452  0.8002
  135OSM    C4F14682   1.604   2.499   6.730  0.0515  0.3631  0.0109
  135OSM    H4F14683   1.641   2.402   6.769  1.8091  0.7504 -0.6080
  135OSM    H4G14684   1.494   2.515   6.736  0.0883  0.4254  0.5811
  135OSM    C5F14685   1.676   2.609   6.817  0.1129  0.2528 -0.1763
  135OSM    H5F14686   1.646   2.706   6.771 -1.0634  0.7485  1.5331
  135OSM    H5G14687   1.786   2.598   6.805  0.2036 -0.5979  1.1917
  135OSM    C6F14688   1.637   2.595   6.964 -0.5332 -1.1376  0.4309
  135OSM    H6F14689   1.653   2.491   7.001 -1.5537 -1.2318  0.6278
  135OSM    H6G14690   1.532   2.631   6.959 -0.4262 -0.7773  0.7370
  135OSM    C7F14691   1.718   2.689   7.050 -0.1107 -0.9275 -0.0229
  135OSM    H7F14692   1.826   2.665   7.035 -0.0358  0.4899 -2.3649
  135OSM    H7G14693   1.705   2.675   7.159 -0.7764  0.9246  0.1696
  135OSM    C8F14694   1.705   2.841   7.029  0.3407 -0.6424 -0.4758
  135OSM    H8F14695   1.729   2.865   6.923  0.4240 -0.2204 -0.3632
  135OSM    H8G14696   1.786   2.891   7.087 -1.0055  0.0917  0.8263
  135OSM    C9F14697   1.584   2.905   7.080 -0.4781  0.3241  0.0091
  135OSM    H9F14698   1.498   2.931   7.015  0.9276  1.2184 -1.5771
  135OSM   C10F14699   1.551   2.917   7.211 -0.1880  0.1722  0.3350
  135OSM   H10F14700   1.461   2.966   7.251 -1.5270 -1.8300 -0.1032
  135OSM   C11F14701   1.648   2.887   7.324  0.6060 -0.2719  0.5093
  135OSM   H11F14702   1.670   2.973   7.390  3.0910 -2.5755  2.9886
  135OSM   H11G14703   1.746   2.854   7.284  0.5665  1.4783 -1.1477
  135OSM   C12F14704   1.613   2.758   7.414 -0.5581  0.3696 -0.3461
  135OSM   H12F14705   1.586   2.675   7.345 -0.7393 -0.3095  0.5212
  135OSM   H12G14706   1.517   2.779   7.465 -1.0582 -0.8530 -0.7404
  135OSM   C13F14707   1.726   2.723   7.505  0.0994 -0.4720 -0.3999
  135OSM   H13F14708   1.818   2.733   7.444 -1.6078  0.5358 -2.9516
  135OSM   H13G14709   1.723   2.621   7.551  1.0335 -0.4751 -0.3212
  135OSM   C14F14710   1.746   2.813   7.626  0.2364  0.1287  0.0546
  135OSM   H14F14711   1.649   2.837   7.675 -0.2983  0.5800 -1.1847
  135OSM   H14G14712   1.777   2.912   7.586 -1.5041  1.1456  1.0728
  135OSM   C15F14713   1.831   2.752   7.740 -0.4495  0.1500  0.3611
  135OSM   H15F14714   1.932   2.720   7.707  0.5920  0.5635  2.9028
  135OSM   H15G14715   1.771   2.667   7.778 -1.4308  1.5651  2.1234
  135OSM   C16F14716   1.845   2.848   7.863 -0.2151 -0.5621  0.0326
  135OSM   H16F14717   1.740   2.879   7.881  0.1076  0.9534 -0.4909
  135OSM   H16G14718   1.903   2.940   7.838 -1.0649 -0.0243 -0.0051
  135OSM   C17F14719   1.907   2.787   7.986 -0.7270  0.1340  0.1517
  135OSM   H17F14720   1.907   2.864   8.066 -0.9906  3.9665 -3.2562
  135OSM   H17G14721   2.006   2.749   7.952 -0.8045 -0.0184  0.0958
  135OSM   C18F14722   1.835   2.658   8.034  0.5560  0.6202  0.1310
  135OSM   H18F14723   1.891   2.611   8.117 -0.2473  0.0667  0.3726
  135OSM   H18G14724   1.830   2.588   7.948 -0.3933  1.0732 -0.2104
  135OSM   H18H14725   1.732   2.689   8.061 -0.7054 -0.8865 -2.5279
  136OSM      N14726   5.613   3.212   6.282  0.2861  0.0189  0.1718
  136OSM    C1514727   5.530   3.326   6.244  0.1957  0.3900  0.3617
  136OSM   H15A14728   5.542   3.413   6.307  1.1643  2.1409 -2.0708
  136OSM   H15B14729   5.426   3.296   6.248  0.2349  0.2148  0.0582
  136OSM   H15C14730   5.548   3.356   6.142  0.3924  0.1327  0.3208
  136OSM    C1414731   5.753   3.247   6.304  0.3706 -0.1263  0.1911
  136OSM   H14A14732   5.805   3.153   6.307 -0.4108 -0.6662 -1.4727
  136OSM   H14B14733   5.767   3.306   6.393 -1.1341  0.7631 -0.1254
  136OSM   H14C14734   5.801   3.304   6.225  0.4256 -1.9741 -1.1778
  136OSM    C1314735   5.563   3.171   6.416  0.5724 -0.7825  0.3744
  136OSM   H13A14736   5.549   3.243   6.495 -1.6794 -1.4606  0.6722
  136OSM   H13B14737   5.633   3.094   6.447  0.7104 -0.7652  0.1167
  136OSM   H13C14738   5.471   3.116   6.410 -0.1889  0.2633  1.8862
  136OSM    C1214739   5.597   3.093   6.184  0.2447 -0.5308 -0.6363
  136OSM   H12A14740   5.658   3.012   6.221  2.1754  2.1323  2.5265
  136OSM   H12B14741   5.637   3.120   6.087  0.9401 -0.8831 -0.4526
  136OSM    C1114742   5.455   3.039   6.179  0.0213 -0.2164 -0.0950
  136OSM   H11A14743   5.440   2.976   6.088 -0.9464 -1.8408  1.1270
  136OSM   H11B14744   5.388   3.126   6.163  0.7984  0.3605 -0.2583
  136OSM      P14745   5.466   2.825   6.318  0.1769 -0.1148 -0.0164
  136OSM    O1314746   5.365   2.726   6.263 -0.4331  0.0828  0.2649
  136OSM    O1414747   5.602   2.808   6.264 -0.0391 -0.0799  0.0311
  136OSM    O1114748   5.473   2.812   6.475  0.4042  0.1793  0.3837
  136OSM    O1214749   5.418   2.970   6.297 -0.3220  0.3851  0.1617
  136OSM    C1S14750   5.369   2.839   6.564 -0.2583 -0.2158 -0.2861
  136OSM    H1S14751   5.280   2.777   6.541 -0.2133 -0.7877  0.9911
  136OSM    H1T14752   5.352   2.948   6.551  1.6853 -0.0052 -1.4750
  136OSM     NF14753   5.319   2.844   6.799  0.1856  0.7434  0.7785
  136OSM    HNF14754   5.279   2.935   6.788 -2.8226 -0.4455  0.8054
  136OSM    C2S14755   5.429   2.816   6.710 -0.8609  0.0342 -0.4675
  136OSM    H2S14756   5.480   2.717   6.711  1.1405  1.0174 -0.0813
  136OSM    C3S14757   5.540   2.929   6.730 -0.0231 -0.0906 -0.3760
  136OSM    H3S14758   5.484   3.024   6.742  1.5539  0.5211  4.0859
  136OSM     O314759   5.640   2.940   6.629 -0.5509  0.2191 -0.0297
  136OSM    HO314760   5.599   2.888   6.559  0.3459 -4.3856  2.4219
  136OSM    C4S14761   5.608   2.925   6.873  0.0636  0.3303  0.3522
  136OSM    H4S14762   5.542   2.964   6.953 -1.2581  0.6685 -0.8602
  136OSM    C5S14763   5.737   2.891   6.903 -0.4434 -0.2349  0.9703
  136OSM    H5S14764   5.808   2.858   6.825  0.2715 -0.8702  1.8733
  136OSM    C6S14765   5.806   2.901   7.038  0.0889 -0.0879  0.0561
  136OSM    H6S14766   5.894   2.965   7.018 -2.4266  2.9279 -2.2563
  136OSM    H6T14767   5.850   2.808   7.079  0.5820  0.5806  1.0853
  136OSM    C7S14768   5.726   2.961   7.152 -0.7172 -0.0223  0.1235
  136OSM    H7S14769   5.632   2.902   7.153 -0.4403 -0.4720  1.6164
  136OSM    H7T14770   5.701   3.069   7.137  1.3391  0.3937 -0.6716
  136OSM    C8S14771   5.800   2.967   7.284 -0.7177 -0.4863 -0.0602
  136OSM    H8S14772   5.899   3.017   7.270 -0.9257  1.0043  2.8412
  136OSM    H8T14773   5.831   2.863   7.305 -0.5584 -0.8241 -1.8395
  136OSM    C9S14774   5.726   3.036   7.401  0.2482 -0.4136 -0.7816
  136OSM    H9S14775   5.634   2.979   7.423 -0.4466  0.2834 -1.8210
  136OSM    H9T14776   5.700   3.137   7.363 -1.7788 -1.3889 -2.1438
  136OSM   C10S14777   5.803   3.043   7.536 -0.0733  0.1928 -0.2109
  136OSM   H10S14778   5.904   3.088   7.521  1.1112 -2.9023 -2.3644
  136OSM   H10T14779   5.811   2.935   7.559  0.5359  0.5769  1.6269
  136OSM   C11S14780   5.724   3.093   7.661 -0.3790 -0.3031  0.4280
  136OSM   H11S14781   5.629   3.037   7.654 -0.1291 -0.5716 -1.7790
  136OSM   H11T14782   5.696   3.200   7.650  0.1526 -0.2808 -1.0511
  136OSM   C12S14783   5.799   3.077   7.795 -0.9204 -0.0107 -0.8061
  136OSM   H12S14784   5.884   3.148   7.805  2.7571 -4.1256  0.3761
  136OSM   H12T14785   5.857   2.982   7.791  0.8664  1.0575 -0.9311
  136OSM   C13S14786   5.697   3.084   7.909 -0.4433  0.0484  0.0988
  136OSM   H13S14787   5.730   3.033   8.002 -1.4274  1.5030  1.2816
  136OSM   H13T14788   5.606   3.024   7.883 -0.3565 -0.1593  0.2663
  136OSM   C14S14789   5.654   3.230   7.949  0.3349  1.3429 -0.3858
  136OSM   H14S14790   5.603   3.271   7.859 -0.9927  1.7184  0.5146
  136OSM   H14T14791   5.743   3.291   7.974  0.1876  1.1681  0.6097
  136OSM   C15S14792   5.576   3.226   8.074  0.0677 -0.6851 -0.3465
  136OSM   H15S14793   5.525   3.324   8.084  0.0426 -0.9478  2.9015
  136OSM   H15T14794   5.647   3.210   8.157  0.2174 -2.3370 -0.7525
  136OSM   C16S14795   5.467   3.118   8.086  0.5758  0.1839  0.1079
  136OSM   H16S14796   5.519   3.023   8.108  0.7430 -0.1910 -1.7545
  136OSM   H16T14797   5.409   3.113   7.991  1.0960  0.4240 -0.2294
  136OSM   C17S14798   5.364   3.131   8.201  0.0521 -0.4855  0.2407
  136OSM   H17S14799   5.422   3.121   8.295  0.4036 -4.1157 -0.2199
  136OSM   H17T14800   5.294   3.044   8.201  0.8429 -1.1498 -0.4168
  136OSM   C18S14801   5.288   3.258   8.193  0.4854  0.4152  0.8892
  136OSM   H18S14802   5.208   3.255   8.270  0.8821 -0.5004  1.2789
  136OSM   H18T14803   5.237   3.270   8.094  0.0631 -0.4607  0.9944
  136OSM   H18U14804   5.351   3.348   8.205  2.6305 -1.0390  1.0097
  136OSM    C1F14805   5.230   2.751   6.821 -0.8641  0.1331 -0.0158
  136OSM     OF14806   5.247   2.642   6.773  0.2016 -0.2139 -0.4279
  136OSM    C2F14807   5.111   2.791   6.902 -0.5960  0.2767  0.7389
  136OSM    H2F14808   5.035   2.715   6.874 -0.7708 -0.1680  2.3229
  136OSM    H2G14809   5.084   2.894   6.869  1.9901  1.9130  3.2192
  136OSM    C3F14810   5.154   2.790   7.052  0.2310  0.7463  1.1411
  136OSM    H3F14811   5.204   2.693   7.074 -1.4501 -1.4325 -3.3210
  136OSM    H3G14812   5.060   2.796   7.110 -0.1982 -3.1037  1.1110
  136OSM    C4F14813   5.241   2.912   7.082 -0.1719  0.4627 -0.3612
  136OSM    H4F14814   5.175   2.994   7.047 -0.5813  0.1353 -0.3710
  136OSM    H4G14815   5.346   2.903   7.050  0.9776  0.6795  2.9758
  136OSM    C5F14816   5.268   2.902   7.235  0.3661 -0.0358  0.0257
  136OSM    H5F14817   5.337   2.818   7.257  1.6798  1.4115  1.6392
  136OSM    H5G14818   5.174   2.891   7.293  0.4740 -2.0362 -0.1084
  136OSM    C6F14819   5.356   3.011   7.295  0.1032  0.2637  0.1342
  136OSM    H6F14820   5.445   3.046   7.239  0.1913  0.6191  0.4857
  136OSM    H6G14821   5.382   2.975   7.397 -1.3883 -0.7263  0.1946
  136OSM    C7F14822   5.276   3.141   7.334 -0.0143  0.2134 -0.4797
  136OSM    H7F14823   5.180   3.111   7.381  0.9605 -0.4331  1.2264
  136OSM    H7G14824   5.240   3.203   7.250 -0.2878  1.3392  0.4385
  136OSM    C8F14825   5.363   3.240   7.427 -0.3202  0.0364  0.8997
  136OSM    H8F14826   5.459   3.275   7.382 -1.7899  2.7499 -0.3947
  136OSM    H8G14827   5.391   3.181   7.517 -2.0058 -0.4312  1.1485
  136OSM    C9F14828   5.287   3.363   7.462 -0.6324 -0.3018 -0.0597
  136OSM    H9F14829   5.234   3.408   7.377  0.0849 -1.2558 -1.0500
  136OSM   C10F14830   5.269   3.408   7.583  0.0939  0.0499  0.1985
  136OSM   H10F14831   5.207   3.499   7.595 -0.0583  0.1475 -1.1424
  136OSM   C11F14832   5.321   3.344   7.710  0.1278 -0.0098  0.8035
  136OSM   H11F14833   5.422   3.298   7.706  2.0889  3.9761  0.2400
  136OSM   H11G14834   5.255   3.256   7.728  1.4519 -1.0897  0.5192
  136OSM   C12F14835   5.344   3.436   7.825  0.3393 -0.7434  0.0017
  136OSM   H12F14836   5.369   3.364   7.906 -1.4352 -0.6923  0.6240
  136OSM   H12G14837   5.253   3.496   7.845  1.0504  0.6546 -0.7946
  136OSM   C13F14838   5.457   3.532   7.799 -0.2246 -0.2477 -0.6083
  136OSM   H13F14839   5.432   3.616   7.731 -0.9793  0.3365  0.3741
  136OSM   H13G14840   5.548   3.480   7.762  0.7932 -0.2187  1.6997
  136OSM   C14F14841   5.497   3.606   7.933  0.4446 -0.1704 -0.0358
  136OSM   H14F14842   5.541   3.533   8.003  0.5592  1.0701  1.2381
  136OSM   H14G14843   5.410   3.652   7.986 -0.3370 -1.8273  0.1918
  136OSM   C15F14844   5.606   3.714   7.905  0.2067 -0.4191  0.9159
  136OSM   H15F14845   5.568   3.799   7.844 -0.2877 -1.0811  0.2842
  136OSM   H15G14846   5.691   3.662   7.855  0.1439  0.8948 -0.6611
  136OSM   C16F14847   5.653   3.783   8.034 -0.1558  0.5188  0.0165
  136OSM   H16F14848   5.568   3.838   8.081 -1.1384  1.4241 -2.6295
  136OSM   H16G14849   5.733   3.854   8.004  0.3319 -0.5174 -1.2257
  136OSM   C17F14850   5.722   3.691   8.138 -1.0079  0.6428  0.4326
  136OSM   H17F14851   5.779   3.607   8.095  0.6876  1.1869  1.5167
  136OSM   H17G14852   5.637   3.646   8.194 -0.5831  0.8698  1.2679
  136OSM   C18F14853   5.816   3.766   8.228 -0.0811 -0.3141  0.8220
  136OSM   H18F14854   5.862   3.696   8.301  0.4730 -0.8062  0.0233
  136OSM   H18G14855   5.769   3.850   8.284  0.2909 -1.1566  2.4711
  136OSM   H18H14856   5.898   3.803   8.163 -0.6985 -1.4732 -0.6800
  137OSM      N14857   1.511   1.494   5.746  0.0274  0.0991 -0.0233
  137OSM    C1514858   1.601   1.608   5.747  0.7461 -1.0706 -0.1534
  137OSM   H15A14859   1.599   1.659   5.652  1.3346  2.0858  1.3673
  137OSM   H15B14860   1.697   1.576   5.786  0.5269 -0.6153  0.8100
  137OSM   H15C14861   1.554   1.683   5.810 -1.4635 -1.6371 -1.0719
  137OSM    C1414862   1.381   1.511   5.671 -0.5921 -0.0854 -0.3255
  137OSM   H14A14863   1.322   1.421   5.663 -0.9206  0.2267 -1.6187
  137OSM   H14B14864   1.400   1.539   5.569 -0.9180 -1.9206 -0.9199
  137OSM   H14C14865   1.324   1.592   5.715 -0.2642  0.9847 -1.7984
  137OSM    C1314866   1.575   1.373   5.688 -0.1520 -0.3035  0.0750
  137OSM   H13A14867   1.509   1.290   5.666 -0.1304 -0.0831 -0.8902
  137OSM   H13B14868   1.648   1.339   5.760 -0.3739  0.9343  0.8995
  137OSM   H13C14869   1.617   1.401   5.592 -0.4598  0.9274  0.2869
  137OSM    C1214870   1.483   1.454   5.888 -0.0593 -0.1592  0.6966
  137OSM   H12A14871   1.407   1.378   5.893 -1.8555  1.4939 -0.0831
  137OSM   H12B14872   1.425   1.534   5.930  0.4355 -0.2550  1.5817
  137OSM    C1114873   1.596   1.427   5.995 -0.4519 -0.2307 -0.3326
  137OSM   H11A14874   1.539   1.379   6.077 -2.2028  0.3095 -1.2023
  137OSM   H11B14875   1.614   1.531   6.031 -0.3360 -1.1487  2.4840
  137OSM      P14876   1.801   1.283   6.064 -0.3149 -0.6092 -0.1883
  137OSM    O1314877   1.847   1.152   6.013  0.0989 -0.4248  0.4674
  137OSM    O1414878   1.905   1.375   6.120  0.0691  0.5052  0.2288
  137OSM    O1114879   1.698   1.250   6.177  0.0964  0.1725 -0.0828
  137OSM    O1214880   1.707   1.356   5.957 -0.4606 -0.1347  0.5903
  137OSM    C1S14881   1.724   1.170   6.296 -0.2146  0.0762  0.2497
  137OSM    H1S14882   1.816   1.198   6.352  1.8032 -2.4831 -1.4794
  137OSM    H1T14883   1.751   1.070   6.254 -1.3868 -0.7502  1.3870
  137OSM     NF14884   1.645   1.075   6.520  0.7475 -0.7571 -0.3875
  137OSM    HNF14885   1.613   0.980   6.523  0.2401 -0.6476 -1.5069
  137OSM    C2S14886   1.606   1.143   6.388 -0.3926 -0.1584 -0.4584
  137OSM    H2S14887   1.577   1.245   6.422 -1.3806 -0.1301 -1.3521
  137OSM    C3S14888   1.492   1.086   6.314 -0.2263 -0.3979  0.0136
  137OSM    H3S14889   1.525   0.992   6.265  0.0853 -0.6241  0.6489
  137OSM     O314890   1.457   1.163   6.201  0.4615  0.0971 -0.1955
  137OSM    HO314891   1.532   1.221   6.183  1.2889 -0.5888  0.8633
  137OSM    C4S14892   1.361   1.061   6.398 -0.3367 -0.4264 -0.7376
  137OSM    H4S14893   1.297   1.149   6.415 -0.7622 -0.9459  0.4756
  137OSM    C5S14894   1.319   0.949   6.456  0.0218  0.4930 -0.2227
  137OSM    H5S14895   1.372   0.853   6.447  1.4728  1.4040 -2.1856
  137OSM    C6S14896   1.192   0.945   6.527 -0.0688 -0.4429  0.2066
  137OSM    H6S14897   1.126   0.867   6.483 -1.0617 -1.1837  2.8044
  137OSM    H6T14898   1.143   1.044   6.521  1.5113  0.3568 -0.2608
  137OSM    C7S14899   1.191   0.904   6.679 -0.5007 -0.4627 -0.3592
  137OSM    H7S14900   1.238   0.805   6.701 -1.6952 -0.6579  1.4383
  137OSM    H7T14901   1.086   0.884   6.709  0.1554 -0.7866  1.8757
  137OSM    C8S14902   1.240   1.019   6.772 -0.6796 -0.4654  0.1422
  137OSM    H8S14903   1.198   1.114   6.734 -1.9125 -0.1569  2.1469
  137OSM    H8T14904   1.346   1.041   6.748 -0.5045 -0.4588  0.8707
  137OSM    C9S14905   1.223   0.992   6.915  0.0804  0.3317 -0.1613
  137OSM    H9S14906   1.278   0.898   6.936 -0.4777  0.4192  1.9063
  137OSM    H9T14907   1.117   0.976   6.944 -0.9414  1.2540 -3.0503
  137OSM   C10S14908   1.277   1.099   7.014 -0.0084 -1.3626  0.1595
  137OSM   H10S14909   1.225   1.194   6.991  0.4188 -1.4258 -1.1532
  137OSM   H10T14910   1.384   1.105   6.984 -0.3964 -1.5660 -1.3631
  137OSM   C11S14911   1.266   1.057   7.162  0.8348  0.0768 -0.2482
  137OSM   H11S14912   1.295   0.952   7.180  0.2260 -0.5242 -2.5079
  137OSM   H11T14913   1.157   1.052   7.184  0.7833  0.6303 -0.3466
  137OSM   C12S14914   1.349   1.156   7.245  0.7684  0.0447  0.3331
  137OSM   H12S14915   1.321   1.258   7.209  0.6979 -1.0033 -2.9262
  137OSM   H12T14916   1.458   1.144   7.228  0.4463 -1.0910 -1.1342
  137OSM   C13S14917   1.323   1.142   7.394  0.1185  0.5947 -0.4241
  137OSM   H13S14918   1.215   1.138   7.418  0.0043 -1.4014 -1.0868
  137OSM   H13T14919   1.365   1.231   7.445 -0.5456  1.0782 -0.6956
  137OSM   C14S14920   1.375   1.013   7.455 -1.3088  0.2865  0.0753
  137OSM   H14S14921   1.362   0.929   7.384  1.9881  1.1059 -1.6609
  137OSM   H14T14922   1.339   0.993   7.558 -0.4091 -0.7418  0.2055
  137OSM   C15S14923   1.532   1.025   7.466  0.1725 -1.1444 -0.8234
  137OSM   H15S14924   1.569   1.115   7.520  0.4109 -1.0751 -1.0922
  137OSM   H15T14925   1.574   1.035   7.363  0.2438 -2.5726 -0.9504
  137OSM   C16S14926   1.598   0.907   7.545  0.4811 -0.5605 -0.0627
  137OSM   H16S14927   1.569   0.810   7.499  0.8279 -0.1210 -1.2240
  137OSM   H16T14928   1.551   0.907   7.646 -0.0588 -0.6057 -0.3144
  137OSM   C17S14929   1.755   0.903   7.547 -0.5476  0.1030  0.0964
  137OSM   H17S14930   1.791   0.981   7.618 -0.4398 -1.3945  1.7575
  137OSM   H17T14931   1.798   0.936   7.451  0.2021 -0.0685  0.3688
  137OSM   C18S14932   1.796   0.759   7.569 -0.9573  1.2700  0.3484
  137OSM   H18S14933   1.741   0.704   7.648 -1.8532 -1.0281 -1.7605
  137OSM   H18T14934   1.906   0.744   7.573 -1.1461 -1.5766 -1.7787
  137OSM   H18U14935   1.755   0.706   7.481 -0.2212  1.2517  0.0050
  137OSM    C1F14936   1.727   1.129   6.607 -0.0395 -0.4416 -0.6189
  137OSM     OF14937   1.770   1.238   6.583  0.5209  0.7713  0.3200
  137OSM    C2F14938   1.764   1.042   6.727  0.1357 -0.0993  0.0963
  137OSM    H2F14939   1.869   1.059   6.757  0.1665 -2.6702  1.7330
  137OSM    H2G14940   1.755   0.932   6.711  1.8053 -0.2122 -0.2645
  137OSM    C3F14941   1.688   1.086   6.850  0.0547 -0.1198  0.4765
  137OSM    H3F14942   1.711   1.001   6.918  0.4822 -0.4040 -0.0191
  137OSM    H3G14943   1.578   1.077   6.843 -0.1683 -0.8552  3.4416
  137OSM    C4F14944   1.751   1.204   6.923 -0.7683 -0.5949 -0.0225
  137OSM    H4F14945   1.738   1.300   6.867  0.5942  1.2345  2.5944
  137OSM    H4G14946   1.861   1.194   6.923 -0.5107  1.6158  0.4917
  137OSM    C5F14947   1.695   1.211   7.060  0.1784  0.6659 -0.0325
  137OSM    H5F14948   1.710   1.114   7.111 -1.5183 -0.2976 -1.2248
  137OSM    H5G14949   1.584   1.213   7.054 -0.1045 -0.2847  3.1977
  137OSM    C6F14950   1.752   1.322   7.155 -0.1710  0.4313 -0.8556
  137OSM    H6F14951   1.677   1.320   7.238  0.8022  2.2451  0.1203
  137OSM    H6G14952   1.749   1.426   7.116 -3.4758  0.7039 -0.2033
  137OSM    C7F14953   1.885   1.277   7.222 -0.0130 -0.7660  0.1151
  137OSM    H7F14954   1.956   1.256   7.139 -1.7211 -1.3092 -1.2585
  137OSM    H7G14955   1.870   1.173   7.260  0.5396 -0.2670  1.8028
  137OSM    C8F14956   1.952   1.380   7.310  0.6182 -0.2259 -0.3688
  137OSM    H8F14957   1.995   1.468   7.259  0.6626  0.3430  0.6184
  137OSM    H8G14958   2.047   1.334   7.343  0.5566 -2.3013 -2.8238
  137OSM    C9F14959   1.863   1.415   7.430  0.1968  0.7819  0.6146
  137OSM    H9F14960   1.763   1.436   7.388  0.6475  2.9178  0.4688
  137OSM   C10F14961   1.880   1.399   7.562 -0.1828  0.1685  0.1555
  137OSM   H10F14962   1.805   1.434   7.634 -1.4782 -1.3495 -0.4057
  137OSM   C11F14963   2.015   1.370   7.629  0.1717 -0.2164 -0.0602
  137OSM   H11F14964   2.042   1.464   7.680 -2.7039  0.5039  0.2817
  137OSM   H11G14965   2.096   1.351   7.555  0.0176  1.1119 -0.6000
  137OSM   C12F14966   2.003   1.265   7.745 -0.4705 -0.1649  0.0889
  137OSM   H12F14967   2.108   1.245   7.775 -0.7215  1.5698  2.4658
  137OSM   H12G14968   1.953   1.174   7.706 -0.7486 -0.0726  0.2258
  137OSM   C13F14969   1.936   1.316   7.876 -0.0091  0.3364 -0.0260
  137OSM   H13F14970   1.829   1.343   7.870 -0.6210 -1.6252  1.2200
  137OSM   H13G14971   1.988   1.410   7.904 -0.9674  1.0787 -0.6597
  137OSM   C14F14972   1.956   1.214   7.993  0.5352 -1.1921 -0.2984
  137OSM   H14F14973   2.022   1.266   8.066  0.8417  0.6539 -1.7985
  137OSM   H14G14974   2.018   1.130   7.956  2.3157  0.0810 -0.3367
  137OSM   C15F14975   1.816   1.173   8.047 -0.1525 -0.3568  0.0687
  137OSM   H15F14976   1.754   1.264   8.065 -1.2221 -1.0362 -0.0983
  137OSM   H15G14977   1.835   1.119   8.143  0.4057 -0.9338 -0.3606
  137OSM   C16F14978   1.741   1.091   7.939  0.0058  0.4896  0.5749
  137OSM   H16F14979   1.820   1.033   7.886  0.1653  2.1458 -1.0866
  137OSM   H16G14980   1.687   1.140   7.855  1.0781 -1.0908 -1.1270
  137OSM   C17F14981   1.637   0.986   7.994  0.0777  0.3056  0.2780
  137OSM   H17F14982   1.589   0.922   7.917  0.8372 -3.0653  2.3834
  137OSM   H17G14983   1.556   1.038   8.050  1.5844  3.3171 -0.1302
  137OSM   C18F14984   1.706   0.882   8.080 -1.1944  0.2281  0.0002
  137OSM   H18F14985   1.729   0.917   8.183 -0.8112  0.4323 -0.1522
  137OSM   H18G14986   1.795   0.845   8.026 -0.8281  2.1899 -0.8324
  137OSM   H18H14987   1.637   0.796   8.092 -1.7600 -0.1804 -4.3239
  138OSM      N14988   3.461   3.182   5.794  0.2303  0.5497  0.2985
  138OSM    C1514989   3.595   3.226   5.736 -0.4145 -0.7598 -0.1048
  138OSM   H15A14990   3.671   3.177   5.796 -0.8709 -0.3146  0.8503
  138OSM   H15B14991   3.602   3.334   5.736  0.1804 -0.7858  1.3021
  138OSM   H15C14992   3.600   3.184   5.636  1.1399 -0.7839 -0.0447
  138OSM    C1414993   3.362   3.272   5.723 -0.2294  0.5076 -0.1369
  138OSM   H14A14994   3.260   3.273   5.759 -0.9017  1.3042 -1.9074
  138OSM   H14B14995   3.362   3.254   5.616  0.5731  0.7572 -0.1823
  138OSM   H14C14996   3.403   3.369   5.745  1.7944 -0.3945  0.2523
  138OSM    C1314997   3.438   3.034   5.764 -0.3967 -0.3371  0.0921
  138OSM   H13A14998   3.352   2.992   5.813  1.1936 -1.6843  1.8983
  138OSM   H13B14999   3.517   2.977   5.811 -0.2674 -0.2132  0.0288
  138OSM   H13C15000   3.448   3.012   5.659 -0.7958 -1.6742  0.3212
  138OSM    C1215001   3.459   3.216   5.943  0.4504  0.2016 -0.8075
  138OSM   H12A15002   3.357   3.199   5.974  0.5480  0.5378 -0.3041
  138OSM   H12B15003   3.489   3.318   5.959 -0.2681  0.2117  0.6497
  138OSM    C1115004   3.531   3.119   6.052  0.0344  0.5225 -0.2173
  138OSM   H11A15005   3.488   3.017   6.051  2.6200 -0.7298  2.2429
  138OSM   H11B15006   3.502   3.163   6.150 -0.4918 -2.9521  1.3329
  138OSM      P15007   3.758   2.980   6.024  0.0203 -0.1383  0.1822
  138OSM    O1315008   3.707   2.903   5.911 -0.4732 -0.1174  0.4816
  138OSM    O1415009   3.903   3.007   6.029 -0.1260  0.4933  0.2613
  138OSM    O1115010   3.709   2.903   6.156 -0.0947  0.2366  0.7466
  138OSM    O1215011   3.674   3.114   6.034 -0.7275  0.0623  0.0259
  138OSM    C1S15012   3.759   2.917   6.288 -0.3762 -0.3049 -1.1758
  138OSM    H1S15013   3.867   2.947   6.288 -0.4499 -0.0276 -0.4886
  138OSM    H1T15014   3.761   2.819   6.338  1.1254  0.0373 -0.4910
  138OSM     NF15015   3.789   3.054   6.487 -0.0230  0.0283  0.0733
  138OSM    HNF15016   3.785   2.992   6.565 -1.0493  0.0657  0.0661
  138OSM    C2S15017   3.692   3.028   6.376 -0.4012  0.7983  0.0974
  138OSM    H2S15018   3.670   3.117   6.313  0.9998  0.9418 -0.2124
  138OSM    C3S15019   3.565   2.974   6.424  0.2933 -0.6846  0.9255
  138OSM    H3S15020   3.564   2.888   6.495 -2.4894 -1.4129  0.1356
  138OSM     O315021   3.484   2.922   6.321  0.2778  0.9579  0.5989
  138OSM    HO315022   3.540   2.908   6.245 -0.4316 -0.9077  0.3728
  138OSM    C4S15023   3.488   3.084   6.496  0.2927 -0.4423 -0.8031
  138OSM    H4S15024   3.440   3.168   6.445 -0.9584 -1.0692 -0.6811
  138OSM    C5S15025   3.486   3.098   6.630  0.0332  0.2902 -0.0952
  138OSM    H5S15026   3.536   3.024   6.696  0.5809  0.9934  0.2997
  138OSM    C6S15027   3.432   3.220   6.696  0.8700  0.1433 -0.2196
  138OSM    H6S15028   3.367   3.201   6.785  0.1334  1.5772 -0.4354
  138OSM    H6T15029   3.360   3.270   6.629  0.9644 -0.6701 -0.9456
  138OSM    C7S15030   3.532   3.336   6.727 -0.1307 -0.2764 -0.5791
  138OSM    H7S15031   3.552   3.393   6.633 -0.7949  2.1990  0.6930
  138OSM    H7T15032   3.624   3.298   6.776 -2.8420 -2.9036  3.0416
  138OSM    C8S15033   3.476   3.448   6.830 -0.1724  0.5631  0.2106
  138OSM    H8S15034   3.372   3.469   6.799  0.3400  2.1586 -0.5580
  138OSM    H8T15035   3.541   3.537   6.816  0.1261  0.2576 -0.3934
  138OSM    C9S15036   3.480   3.411   6.980  0.1991  0.1391 -0.3326
  138OSM    H9S15037   3.488   3.301   6.993 -1.3210 -0.1149 -1.2325
  138OSM    H9T15038   3.389   3.441   7.036  0.8229 -0.6788  1.1765
  138OSM   C10S15039   3.602   3.473   7.052 -0.2850 -0.1102 -0.1489
  138OSM   H10S15040   3.609   3.583   7.040 -3.2404  0.1505 -0.3718
  138OSM   H10T15041   3.692   3.419   7.017 -0.1990 -1.3644  1.8669
  138OSM   C11S15042   3.588   3.464   7.204 -0.0493 -0.5169 -0.8522
  138OSM   H11S15043   3.559   3.361   7.235  1.7521 -0.8616 -0.1786
  138OSM   H11T15044   3.513   3.539   7.235  1.0462  0.6586 -0.9229
  138OSM   C12S15045   3.721   3.490   7.282 -0.6109 -0.5594  0.7649
  138OSM   H12S15046   3.769   3.586   7.252  1.5263 -1.3155  1.6209
  138OSM   H12T15047   3.786   3.406   7.252  0.6153  0.6325 -0.0351
  138OSM   C13S15048   3.691   3.489   7.433  0.2574 -0.0096 -0.1754
  138OSM   H13S15049   3.636   3.396   7.458  1.4829 -0.8269 -0.4019
  138OSM   H13T15050   3.625   3.574   7.461  0.1685  0.6670 -2.3006
  138OSM   C14S15051   3.815   3.508   7.518  0.6310 -0.6927  0.0111
  138OSM   H14S15052   3.876   3.594   7.482  0.0716 -0.3994 -0.2392
  138OSM   H14T15053   3.874   3.413   7.520  1.0237 -0.4735  2.4736
  138OSM   C15S15054   3.782   3.522   7.666 -0.0672 -0.2941 -0.0027
  138OSM   H15S15055   3.715   3.438   7.693 -1.5199  0.5996 -0.7026
  138OSM   H15T15056   3.718   3.611   7.686 -0.5302 -0.6320  0.0441
  138OSM   C16S15057   3.898   3.529   7.760 -0.2992 -0.0244  0.5334
  138OSM   H16S15058   3.986   3.577   7.713 -0.1146 -1.0724 -0.2441
  138OSM   H16T15059   3.925   3.422   7.774  0.0849 -0.0033  0.0107
  138OSM   C17S15060   3.871   3.585   7.896 -0.3556 -0.2609 -0.1255
  138OSM   H17S15061   3.787   3.528   7.940  1.2149 -2.6538 -0.0520
  138OSM   H17T15062   3.848   3.694   7.886  1.7573  0.2263 -0.0997
  138OSM   C18S15063   3.994   3.571   7.986 -0.2480 -0.1531  0.7527
  138OSM   H18S15064   4.086   3.595   7.929 -0.8313 -1.2716 -0.7099
  138OSM   H18T15065   3.987   3.470   8.033 -2.5231  0.1103  1.1273
  138OSM   H18U15066   3.977   3.644   8.068 -1.1842 -0.8077  1.1672
  138OSM    C1F15067   3.881   3.153   6.481 -0.0125  0.1983  0.7820
  138OSM     OF15068   3.887   3.219   6.377 -0.2430 -0.6223  0.5379
  138OSM    C2F15069   3.969   3.183   6.602  0.1804  0.3846  0.2021
  138OSM    H2F15070   4.078   3.183   6.581  0.3718 -0.2630  1.1193
  138OSM    H2G15071   3.939   3.103   6.673 -1.7714  1.1015  0.2535
  138OSM    C3F15072   3.940   3.317   6.668 -0.4366 -0.2401 -0.1519
  138OSM    H3F15073   3.830   3.331   6.661 -0.4828 -0.8209 -0.6275
  138OSM    H3G15074   3.991   3.393   6.606  1.5131 -2.4199 -1.3931
  138OSM    C4F15075   3.985   3.325   6.818 -0.7735 -0.2100 -0.4152
  138OSM    H4F15076   4.095   3.316   6.813 -0.2967  3.2651  0.9638
  138OSM    H4G15077   3.951   3.248   6.890  3.9280 -3.1849 -0.9348
  138OSM    C5F15078   3.959   3.460   6.879 -0.3459 -0.3101 -0.5783
  138OSM    H5F15079   3.853   3.492   6.873 -0.3780 -0.4306 -0.6641
  138OSM    H5G15080   3.997   3.547   6.820 -0.1234  0.8544  1.2174
  138OSM    C6F15081   4.023   3.472   7.017 -0.0153 -0.1623 -0.5321
  138OSM    H6F15082   4.128   3.438   7.007  0.1035 -0.5442  1.5867
  138OSM    H6G15083   3.970   3.398   7.082  0.9179 -0.9518 -0.6427
  138OSM    C7F15084   4.019   3.609   7.087 -0.7446  0.8576 -0.6400
  138OSM    H7F15085   3.911   3.637   7.090 -1.3464 -1.3714  0.9965
  138OSM    H7G15086   4.064   3.684   7.018 -0.3305  1.4641  0.2648
  138OSM    C8F15087   4.058   3.608   7.230  1.0372 -0.1817 -0.5020
  138OSM    H8F15088   3.999   3.532   7.286 -1.2763  1.7173 -0.1862
  138OSM    H8G15089   4.027   3.706   7.273 -1.3263 -0.8062 -0.6264
  138OSM    C9F15090   4.204   3.589   7.257 -0.1014  0.2395  0.4626
  138OSM    H9F15091   4.263   3.602   7.165  0.2305 -0.8061  0.5214
  138OSM   C10F15092   4.260   3.539   7.366  0.0099 -0.5685  0.0926
  138OSM   H10F15093   4.369   3.522   7.370  0.0597 -0.1369  1.0016
  138OSM   C11F15094   4.192   3.501   7.498 -0.1179  0.8335  0.3318
  138OSM   H11F15095   4.191   3.390   7.502  0.1124  0.8136 -0.1479
  138OSM   H11G15096   4.084   3.527   7.504 -1.4543 -3.3741 -1.3062
  138OSM   C12F15097   4.279   3.548   7.621  0.5417  0.6603  0.3873
  138OSM   H12F15098   4.382   3.505   7.625  0.9663  1.6953  1.0953
  138OSM   H12G15099   4.228   3.512   7.712 -1.4354 -1.2847 -1.3785
  138OSM   C13F15100   4.311   3.701   7.622 -0.1420  0.1450 -0.4373
  138OSM   H13F15101   4.357   3.734   7.527  0.0563 -0.2450 -0.4790
  138OSM   H13G15102   4.377   3.721   7.709 -1.9286  0.3238  0.9491
  138OSM   C14F15103   4.187   3.791   7.645  0.0366  0.2687  0.2002
  138OSM   H14F15104   4.151   3.753   7.743  2.6140 -0.4874  0.9453
  138OSM   H14G15105   4.116   3.774   7.562  0.4217 -0.4596  0.0132
  138OSM   C15F15106   4.224   3.940   7.643  0.0216 -0.4491 -0.3788
  138OSM   H15F15107   4.240   3.962   7.536 -0.1800 -1.5766 -0.6539
  138OSM   H15G15108   4.320   3.951   7.698 -0.4891 -0.4408  0.5380
  138OSM   C16F15109   4.116   4.038   7.695 -0.6694 -0.0153 -1.1623
  138OSM   H16F15110   4.024   4.022   7.636 -1.6824 -0.7112  0.5180
  138OSM   H16G15111   4.164   4.135   7.670  1.2986 -0.3934  0.8209
  138OSM   C17F15112   4.095   4.024   7.842  0.5777  0.6118 -0.1156
  138OSM   H17F15113   4.067   3.921   7.872 -0.5560  0.6077 -1.1022
  138OSM   H17G15114   4.004   4.083   7.865  0.9518  1.6389 -1.1483
  138OSM   C18F15115   4.209   4.062   7.931 -0.9730  0.3214 -0.2913
  138OSM   H18F15116   4.173   4.105   8.026  0.2013  2.7236 -0.8426
  138OSM   H18G15117   4.276   4.135   7.881 -0.3807  0.2751  0.4120
  138OSM   H18H15118   4.255   3.963   7.953 -1.0619  0.1188 -0.9897
  139OSM      N15119   0.747   3.383   6.103 -0.5432  0.7675  0.2388
  139OSM    C1515120   0.686   3.332   6.227  0.0411  0.2913 -0.7735
  139OSM   H15A15121   0.744   3.248   6.265  1.0683  1.8139  1.2398
  139OSM   H15B15122   0.588   3.292   6.207  0.4638  0.3582 -3.2458
  139OSM   H15C15123   0.684   3.411   6.301 -1.1674  0.3740 -0.8742
  139OSM    C1415124   0.692   3.293   5.990 -1.0829  0.0585  0.1634
  139OSM   H14A15125   0.586   3.279   6.001 -1.3185  1.6543  0.1769
  139OSM   H14B15126   0.737   3.196   6.003  0.9307  0.9783  0.4373
  139OSM   H14C15127   0.710   3.337   5.893 -1.4614  1.7678  0.8368
  139OSM    C1315128   0.700   3.524   6.083 -0.2838 -0.3462 -0.7722
  139OSM   H13A15129   0.731   3.558   5.985  0.6517  1.0700 -0.0113
  139OSM   H13B15130   0.748   3.584   6.159  1.1869 -1.9532 -0.3707
  139OSM   H13C15131   0.592   3.535   6.086 -0.7442 -3.8088 -0.2630
  139OSM    C1215132   0.900   3.377   6.112 -0.0898 -0.4550 -0.0677
  139OSM   H12A15133   0.934   3.431   6.025  0.6590 -0.2669  0.3362
  139OSM   H12B15134   0.921   3.272   6.103 -2.7544 -1.0098 -0.6472
  139OSM    C1115135   0.964   3.451   6.236  0.3182  0.8547 -0.2497
  139OSM   H11A15136   1.073   3.429   6.227 -0.0908 -0.8564 -1.4613
  139OSM   H11B15137   0.918   3.417   6.332  0.3894 -0.3181 -0.6154
  139OSM      P15138   1.023   3.690   6.124 -0.6935 -0.2168 -0.1354
  139OSM    O1315139   1.089   3.611   6.008  0.4778 -0.6718  0.2178
  139OSM    O1415140   0.926   3.792   6.084 -0.1107 -0.2139 -0.1185
  139OSM    O1115141   1.131   3.765   6.209 -0.3689 -0.4364  0.2489
  139OSM    O1215142   0.944   3.588   6.213  0.1724  0.2596  0.2025
  139OSM    C1S15143   1.122   3.780   6.348 -0.2023 -0.5587 -0.2490
  139OSM    H1S15144   1.016   3.775   6.380 -0.4792 -0.9908 -1.1868
  139OSM    H1T15145   1.159   3.879   6.382 -0.8797 -0.4145  0.0800
  139OSM     NF15146   1.169   3.710   6.575 -0.0075  0.4112 -0.4390
  139OSM    HNF15147   1.239   3.748   6.636 -0.6826  0.0780  0.5730
  139OSM    C2S15148   1.205   3.683   6.433 -0.9316  0.4823  0.7519
  139OSM    H2S15149   1.171   3.578   6.420 -0.6374  0.5800 -1.1185
  139OSM    C3S15150   1.362   3.693   6.404  0.6511 -0.7934  0.4178
  139OSM    H3S15151   1.395   3.794   6.435 -1.6063 -0.1426  0.9488
  139OSM     O315152   1.399   3.676   6.266 -0.0459  0.0798  0.4707
  139OSM    HO315153   1.314   3.691   6.225 -0.4067 -0.1466  1.1162
  139OSM    C4S15154   1.433   3.592   6.484  0.1066 -0.3312 -0.6588
  139OSM    H4S15155   1.473   3.635   6.577 -2.2199  0.5005  0.0307
  139OSM    C5S15156   1.467   3.470   6.447  0.2474  0.9688 -0.3395
  139OSM    H5S15157   1.454   3.448   6.340  1.4378  2.3361 -0.8020
  139OSM    C6S15158   1.557   3.375   6.522 -0.3778  0.4895 -0.2043
  139OSM    H6S15159   1.622   3.337   6.441  0.0666  1.9452 -0.5703
  139OSM    H6T15160   1.498   3.284   6.546  1.3396 -1.2220 -2.0562
  139OSM    C7S15161   1.634   3.414   6.651  0.4509  0.3283  1.0120
  139OSM    H7S15162   1.570   3.446   6.736  0.6979 -0.2827  1.4341
  139OSM    H7T15163   1.691   3.504   6.619 -1.3777  0.5767 -1.9396
  139OSM    C8S15164   1.723   3.303   6.701  0.0702 -0.1151 -0.1014
  139OSM    H8S15165   1.796   3.272   6.623  0.2822 -2.0212  0.7858
  139OSM    H8T15166   1.664   3.212   6.724  0.6742 -0.4337  0.2263
  139OSM    C9S15167   1.807   3.343   6.824  0.1492 -0.1512  0.7601
  139OSM    H9S15168   1.829   3.451   6.816  1.1677 -0.3428  0.9068
  139OSM    H9T15169   1.903   3.287   6.822 -0.1826 -0.7521  1.2454
  139OSM   C10S15170   1.735   3.306   6.959 -0.2024  0.5708  0.6133
  139OSM   H10S15171   1.693   3.203   6.955 -0.9129  0.8955 -2.3555
  139OSM   H10T15172   1.656   3.380   6.982 -0.0714  0.3768  1.7537
  139OSM   C11S15173   1.845   3.318   7.074  0.9890  1.0671  0.5936
  139OSM   H11S15174   1.889   3.420   7.080 -0.9093  1.9745  0.1175
  139OSM   H11T15175   1.924   3.248   7.040  1.3831  2.5783 -1.7637
  139OSM   C12S15176   1.787   3.284   7.209  1.0942  0.5806 -0.0785
  139OSM   H12S15177   1.717   3.198   7.204  0.1314  1.1280  2.5243
  139OSM   H12T15178   1.721   3.366   7.245  0.4816  0.2088 -0.3459
  139OSM   C13S15179   1.901   3.256   7.313  0.7332 -0.5383  0.5980
  139OSM   H13S15180   1.987   3.326   7.305 -0.1549  0.8745  2.4782
  139OSM   H13T15181   1.950   3.160   7.285 -1.9643 -1.7261 -0.3276
  139OSM   C14S15182   1.859   3.262   7.456  0.2290 -0.0399 -0.1675
  139OSM   H14S15183   1.771   3.195   7.468  0.2571 -0.7341 -2.9648
  139OSM   H14T15184   1.816   3.362   7.480  0.4735  0.3737 -1.3537
  139OSM   C15S15185   1.976   3.241   7.550  0.5237  0.7088 -0.0879
  139OSM   H15S15186   2.076   3.277   7.521  0.2420  0.9571 -0.7655
  139OSM   H15T15187   1.973   3.131   7.569 -0.2201  0.4159 -1.7483
  139OSM   C16S15188   1.959   3.316   7.685 -0.2795  0.0297 -0.4494
  139OSM   H16S15189   1.964   3.426   7.670 -1.9453  0.6298  2.5929
  139OSM   H16T15190   2.048   3.280   7.739 -0.8953 -0.5316  0.2119
  139OSM   C17S15191   1.834   3.269   7.765 -0.2784 -0.2003  0.0791
  139OSM   H17S15192   1.853   3.167   7.805  0.8021  0.8159  2.3512
  139OSM   H17T15193   1.752   3.238   7.696 -0.8605 -0.1020  0.7195
  139OSM   C18S15194   1.796   3.358   7.876 -0.5194  0.6998  0.2904
  139OSM   H18S15195   1.703   3.325   7.926 -0.6016  0.4692 -0.0143
  139OSM   H18T15196   1.772   3.456   7.829 -1.1271  0.9943  1.2003
  139OSM   H18U15197   1.872   3.359   7.957 -1.4689 -2.2139  1.3392
  139OSM    C1F15198   1.060   3.670   6.637  0.3408 -0.0463  1.1653
  139OSM     OF15199   0.962   3.641   6.567  0.0286 -0.1097  0.0042
  139OSM    C2F15200   1.048   3.664   6.787 -0.1174  0.2575  0.3627
  139OSM    H2F15201   1.042   3.770   6.821  1.3580  0.0813  1.2821
  139OSM    H2G15202   1.131   3.609   6.837  0.2562  0.8996  0.4688
  139OSM    C3F15203   0.916   3.588   6.832 -0.5542 -0.3207  0.2688
  139OSM    H3F15204   0.916   3.486   6.789  1.4183  0.2273 -1.1988
  139OSM    H3G15205   0.828   3.648   6.801 -0.4925 -1.3355 -2.0753
  139OSM    C4F15206   0.920   3.573   6.990  1.2441 -0.4218  0.2437
  139OSM    H4F15207   1.002   3.503   7.012  2.3998  0.1139 -2.0602
  139OSM    H4G15208   0.818   3.539   7.022  0.5781  1.2160 -0.0294
  139OSM    C5F15209   0.938   3.707   7.073 -0.1997  0.4905  0.2976
  139OSM    H5F15210   0.860   3.782   7.050 -0.7156  0.0854  0.6955
  139OSM    H5G15211   1.036   3.748   7.042 -0.1777  0.3486  0.1818
  139OSM    C6F15212   0.932   3.677   7.220  0.0069 -0.0410 -0.3004
  139OSM    H6F15213   1.018   3.618   7.259  1.6460  0.4701 -2.9139
  139OSM    H6G15214   0.840   3.620   7.246 -2.9804  2.8721 -3.4451
  139OSM    C7F15215   0.931   3.798   7.316 -0.0688 -0.2566  0.1054
  139OSM    H7F15216   0.838   3.855   7.294 -0.9150 -0.6910  2.3203
  139OSM    H7G15217   1.019   3.863   7.300 -1.4805  1.7329  0.0963
  139OSM    C8F15218   0.929   3.749   7.459 -0.3200 -0.4672 -0.1575
  139OSM    H8F15219   0.859   3.663   7.468 -0.1858 -0.5874 -0.2762
  139OSM    H8G15220   0.903   3.827   7.535  1.2552  0.0419 -0.1134
  139OSM    C9F15221   1.055   3.684   7.504  0.4671 -0.1020  0.1953
  139OSM    H9F15222   1.078   3.586   7.460 -1.7509 -0.7215  0.2805
  139OSM   C10F15223   1.142   3.739   7.584 -0.0129 -0.3534  0.4774
  139OSM   H10F15224   1.235   3.681   7.602  0.7708 -0.0537 -2.1769
  139OSM   C11F15225   1.140   3.874   7.644 -0.5369 -0.4151  0.0116
  139OSM   H11F15226   1.057   3.931   7.597 -0.8064  1.0268  2.1276
  139OSM   H11G15227   1.231   3.924   7.605  0.4190 -2.2761 -0.2954
  139OSM   C12F15228   1.142   3.890   7.798  0.5352  0.9567 -0.1006
  139OSM   H12F15229   1.231   3.840   7.841  0.0948  1.2058  1.1394
  139OSM   H12G15230   1.053   3.845   7.844 -0.6190  2.4809 -0.7323
  139OSM   C13F15231   1.133   4.036   7.837  0.2059  0.1721  0.0811
  139OSM   H13F15232   1.044   4.089   7.796 -0.1380  1.5954  2.4806
  139OSM   H13G15233   1.225   4.086   7.798 -0.4646  1.5067  0.1379
  139OSM   C14F15234   1.132   4.044   7.989 -0.1300  0.6552 -0.3029
  139OSM   H14F15235   1.229   3.997   8.016 -1.0205 -2.2321 -1.7329
  139OSM   H14G15236   1.044   3.990   8.031 -0.9216  3.0555  1.4098
  139OSM   C15F15237   1.142   4.190   8.045  0.2959  0.3500 -0.1475
  139OSM   H15F15238   1.046   4.241   8.022 -0.7407 -1.3489  0.2334
  139OSM   H15G15239   1.216   4.239   7.979  0.5501  0.0226 -0.1104
  139OSM   C16F15240   1.198   4.207   8.189  1.4493  0.5962 -0.4303
  139OSM   H16F15241   1.306   4.227   8.171  1.6211  0.1868  0.1171
  139OSM   H16G15242   1.175   4.114   8.244 -2.7338  1.9797  0.4669
  139OSM   C17F15243   1.151   4.330   8.266  0.1786 -0.7576 -0.2246
  139OSM   H17F15244   1.046   4.312   8.296 -0.1659  0.9028 -0.3427
  139OSM   H17G15245   1.148   4.424   8.208  0.6477 -0.7275 -0.2027
  139OSM   C18F15246   1.242   4.359   8.386 -0.0626 -0.2812  0.4662
  139OSM   H18F15247   1.341   4.407   8.366 -0.0248 -0.5524 -0.0035
  139OSM   H18G15248   1.260   4.263   8.440 -1.4362 -1.1222 -0.5159
  139OSM   H18H15249   1.191   4.423   8.461 -1.3043  0.1930 -0.7408
  140OSM      N15250   1.980   5.996   5.780 -0.2283  0.1674 -0.0428
  140OSM    C1515251   2.081   6.046   5.690 -0.3023  0.4756  0.4859
  140OSM   H15A15252   2.070   6.148   5.656 -1.5691  0.5484  1.0701
  140OSM   H15B15253   2.084   5.986   5.601 -1.9381  0.9975  0.0445
  140OSM   H15C15254   2.177   6.052   5.740 -0.1538 -0.6718  0.3609
  140OSM    C1415255   1.840   6.015   5.717  0.1049  0.0380  0.4462
  140OSM   H14A15256   1.824   6.121   5.705  2.4660  0.3334 -0.8754
  140OSM   H14B15257   1.759   5.962   5.764 -0.7184  0.7906 -0.0995
  140OSM   H14C15258   1.842   5.969   5.619 -0.8447 -2.1415  1.3734
  140OSM    C1315259   2.002   5.850   5.806  0.9274 -0.0319  0.2008
  140OSM   H13A15260   1.931   5.807   5.875  1.5031 -1.4910 -0.0749
  140OSM   H13B15261   2.105   5.837   5.836  2.6274  1.8692 -4.0761
  140OSM   H13C15262   1.985   5.779   5.726 -2.6299 -0.4672  1.1632
  140OSM    C1215263   1.985   6.079   5.913  0.5974  0.1379 -0.0588
  140OSM   H12A15264   1.893   6.055   5.964  0.5059 -0.0581 -0.3161
  140OSM   H12B15265   1.990   6.185   5.895  2.6647 -0.0615 -0.9321
  140OSM    C1115266   2.099   6.050   6.011  0.9017  0.4686  0.3797
  140OSM   H11A15267   2.094   5.950   6.061  2.0718 -0.7545 -1.7851
  140OSM   H11B15268   2.101   6.125   6.093 -0.8096  0.4613  0.4543
  140OSM      P15269   2.360   6.046   6.008  0.2743 -0.0166  0.1129
  140OSM    O1315270   2.446   5.959   5.925  0.1232 -0.2294  0.1119
  140OSM    O1415271   2.413   6.179   6.049 -0.6837  0.5910 -0.0118
  140OSM    O1115272   2.324   5.966   6.146 -0.0492 -0.0407  0.1702
  140OSM    O1215273   2.219   6.062   5.939  0.0963  0.1627 -0.0101
  140OSM    C1S15274   2.420   5.882   6.204  0.3777  0.4947  0.7792
  140OSM    H1S15275   2.520   5.930   6.214 -0.7583  3.6248 -1.2311
  140OSM    H1T15276   2.422   5.778   6.165  1.0880  0.8515 -0.1615
  140OSM     NF15277   2.476   5.794   6.428 -0.0096  0.3273 -0.0890
  140OSM    HNF15278   2.450   5.699   6.443  0.1838  0.4426  1.1217
  140OSM    C2S15279   2.370   5.860   6.351  0.1005  0.6265 -0.4416
  140OSM    H2S15280   2.362   5.965   6.387  0.2155  0.2324  0.7803
  140OSM    C3S15281   2.228   5.794   6.354 -0.5931  0.2951  0.2294
  140OSM    H3S15282   2.229   5.712   6.279 -0.2368  1.9201 -1.6283
  140OSM     O315283   2.134   5.880   6.299 -0.3449  0.1150  0.3571
  140OSM    HO315284   2.189   5.935   6.243 -2.4874 -0.3567 -2.3858
  140OSM    C4S15285   2.186   5.750   6.490  0.1785 -0.4290 -0.6855
  140OSM    H4S15286   2.193   5.640   6.494  2.0893 -0.3348  2.7481
  140OSM    C5S15287   2.134   5.821   6.591  0.2827 -0.1235 -0.1378
  140OSM    H5S15288   2.114   5.928   6.576 -1.9555 -0.6190 -1.1855
  140OSM    C6S15289   2.087   5.762   6.724 -1.0909  0.0638  0.3794
  140OSM    H6S15290   2.160   5.794   6.802  0.0783 -3.9625  1.1733
  140OSM    H6T15291   2.114   5.654   6.717  2.8239  0.7689  1.7996
  140OSM    C7S15292   1.953   5.806   6.783  0.4383 -0.3158 -0.3888
  140OSM    H7S15293   1.866   5.780   6.720  0.5520 -1.1650 -0.2065
  140OSM    H7T15294   1.954   5.916   6.800  1.9431 -0.6466  2.1597
  140OSM    C8S15295   1.931   5.758   6.931  0.7256 -0.6098 -0.3708
  140OSM    H8S15296   1.952   5.649   6.933  2.0669 -0.4032 -1.5811
  140OSM    H8T15297   1.826   5.777   6.964  0.9623  0.5379 -0.2427
  140OSM    C9S15298   2.016   5.833   7.043 -0.0248  0.2754  0.1123
  140OSM    H9S15299   2.004   5.942   7.027  1.3700  0.1781 -1.9019
  140OSM    H9T15300   2.123   5.810   7.020 -0.3399  0.7301 -2.0101
  140OSM   C10S15301   1.974   5.798   7.185  0.0122  0.6791  0.1190
  140OSM   H10S15302   1.979   5.690   7.211  0.6733  0.4175 -1.0102
  140OSM   H10T15303   1.868   5.830   7.191 -0.1236  0.1365  0.7076
  140OSM   C11S15304   2.050   5.884   7.287 -0.2908  0.3921  0.1271
  140OSM   H11S15305   2.026   5.989   7.259 -1.0586  0.5761  1.4106
  140OSM   H11T15306   2.161   5.883   7.284 -0.3092 -1.0625 -1.0860
  140OSM   C12S15307   2.007   5.859   7.430 -0.2461  0.5475 -0.7982
  140OSM   H12S15308   2.035   5.752   7.443  0.8430  0.8860 -0.2724
  140OSM   H12T15309   1.896   5.867   7.435 -0.3036 -0.6794  1.7413
  140OSM   C13S15310   2.069   5.959   7.534  0.1717 -0.2310 -0.3720
  140OSM   H13S15311   2.018   6.054   7.507  1.0647 -0.0961 -1.7056
  140OSM   H13T15312   2.179   5.968   7.521  0.1372 -0.2015 -0.6556
  140OSM   C14S15313   2.041   5.906   7.678 -0.2822  1.3769  0.0352
  140OSM   H14S15314   1.951   5.842   7.670  1.1415 -0.9322  1.3245
  140OSM   H14T15315   2.022   5.999   7.737 -0.4068  1.6438 -0.4222
  140OSM   C15S15316   2.156   5.825   7.745 -0.3743  0.0858 -0.1567
  140OSM   H15S15317   2.253   5.879   7.742  0.0200 -0.6010  0.1652
  140OSM   H15T15318   2.184   5.733   7.691  0.6594 -0.0286  0.5423
  140OSM   C16S15319   2.128   5.808   7.896  0.1322  0.8121 -0.0977
  140OSM   H16S15320   2.050   5.728   7.900  1.3916 -0.5541 -1.4984
  140OSM   H16T15321   2.089   5.905   7.934 -0.1243  1.0822 -1.0250
  140OSM   C17S15322   2.243   5.766   7.989  0.1932  0.2403  0.3529
  140OSM   H17S15323   2.208   5.781   8.093 -0.5583  2.4000 -0.1567
  140OSM   H17T15324   2.316   5.846   7.967 -0.0734 -0.3063 -3.2480
  140OSM   C18S15325   2.296   5.624   7.966  0.2429  0.6446 -0.5312
  140OSM   H18S15326   2.377   5.598   8.037  0.3804  0.7291 -0.6557
  140OSM   H18T15327   2.332   5.589   7.866 -0.6270  0.0545 -0.6512
  140OSM   H18U15328   2.220   5.551   8.002  0.7406  0.2389 -0.2796
  140OSM    C1F15329   2.589   5.849   6.470 -0.0926  0.2756  0.1881
  140OSM     OF15330   2.612   5.958   6.438 -0.5944 -0.4153  0.9830
  140OSM    C2F15331   2.672   5.767   6.553  0.3737  0.0809  0.4511
  140OSM    H2F15332   2.761   5.829   6.578  1.2071 -0.4831 -0.9582
  140OSM    H2G15333   2.711   5.689   6.484 -0.9414  1.0853 -1.5184
  140OSM    C3F15334   2.602   5.701   6.669  0.2793  0.1114  0.3349
  140OSM    H3F15335   2.684   5.643   6.715  1.3976 -0.4356 -2.1853
  140OSM    H3G15336   2.531   5.622   6.635 -2.1204  1.8381  1.0690
  140OSM    C4F15337   2.535   5.794   6.763 -0.3939  0.1954 -0.3462
  140OSM    H4F15338   2.456   5.855   6.716 -0.6051  1.4325  1.5000
  140OSM    H4G15339   2.601   5.878   6.795 -1.4379  0.3328  1.5956
  140OSM    C5F15340   2.449   5.727   6.878  0.0901  0.0906  0.1383
  140OSM    H5F15341   2.376   5.656   6.835  0.2366  0.1550 -0.2196
  140OSM    H5G15342   2.393   5.799   6.942  0.3482  1.1234 -0.7678
  140OSM    C6F15343   2.534   5.659   6.988 -0.0150  0.4309  0.2992
  140OSM    H6F15344   2.606   5.732   7.029 -0.5472  0.8492  0.5076
  140OSM    H6G15345   2.594   5.575   6.947 -2.3057 -2.0266  1.6490
  140OSM    C7F15346   2.443   5.603   7.098  0.4253 -0.1289 -0.8435
  140OSM    H7F15347   2.498   5.522   7.151 -1.1318  0.7452  2.3185
  140OSM    H7G15348   2.356   5.554   7.049  1.5773 -0.6823 -2.4242
  140OSM    C8F15349   2.388   5.697   7.201 -0.0467 -0.2057 -0.4473
  140OSM    H8F15350   2.306   5.758   7.158  0.2427  0.0825 -0.5938
  140OSM    H8G15351   2.472   5.763   7.231 -1.1572  1.7602 -1.4536
  140OSM    C9F15352   2.342   5.619   7.322  0.3636  0.3039 -0.0751
  140OSM    H9F15353   2.245   5.574   7.295  0.4320  1.6638 -3.0492
  140OSM   C10F15354   2.411   5.599   7.437  0.1698  0.0517 -0.2802
  140OSM   H10F15355   2.361   5.535   7.511 -0.5778  1.7063  0.7156
  140OSM   C11F15356   2.538   5.666   7.474  0.2354 -0.2933  0.6690
  140OSM   H11F15357   2.560   5.769   7.439 -0.0514 -0.8446 -1.2342
  140OSM   H11G15358   2.614   5.615   7.411 -0.9211  0.8383 -1.7935
  140OSM   C12F15359   2.577   5.653   7.625 -0.3882  0.4798  0.0421
  140OSM   H12F15360   2.536   5.554   7.654 -0.2099 -0.2556 -2.0607
  140OSM   H12G15361   2.525   5.728   7.688 -1.7548  1.2974 -1.9719
  140OSM   C13F15362   2.733   5.659   7.655 -0.3953  0.9641  0.8819
  140OSM   H13F15363   2.772   5.751   7.607  2.1320 -0.0396  0.8559
  140OSM   H13G15364   2.789   5.574   7.612  0.1201  2.0899 -0.7754
  140OSM   C14F15365   2.767   5.665   7.803 -0.0312  0.1546 -0.0280
  140OSM   H14F15366   2.735   5.569   7.849  1.7197 -0.7929 -0.6658
  140OSM   H14G15367   2.724   5.755   7.852  0.7173 -1.6481  4.4761
  140OSM   C15F15368   2.921   5.687   7.819 -0.1192  0.3383 -0.1504
  140OSM   H15F15369   2.952   5.775   7.760 -0.1349 -0.1430 -0.8882
  140OSM   H15G15370   2.973   5.597   7.779 -1.5749 -0.5588 -0.1211
  140OSM   C16F15371   2.966   5.706   7.957  0.2017 -0.7124 -0.1399
  140OSM   H16F15372   2.889   5.744   8.028  0.6816 -0.7835  0.4286
  140OSM   H16G15373   3.040   5.788   7.967  0.3328 -0.9301  0.8072
  140OSM   C17F15374   3.039   5.584   8.023 -0.1275  0.6286 -0.9576
  140OSM   H17F15375   3.121   5.547   7.959  1.4115  1.9457  0.1892
  140OSM   H17G15376   2.959   5.509   8.041 -0.2653  0.8483 -0.6504
  140OSM   C18F15377   3.109   5.616   8.150 -0.7818  0.1892 -0.5066
  140OSM   H18F15378   3.192   5.689   8.146 -0.9077  0.3243 -0.6952
  140OSM   H18G15379   3.154   5.523   8.192  0.3016  0.2021 -1.5935
  140OSM   H18H15380   3.046   5.656   8.233  1.0326  3.0183 -0.3848
  141OSM      N15381   0.960   0.435   6.046 -0.4439 -1.1020  0.1174
  141OSM    C1515382   0.988   0.375   5.912 -0.7168 -0.5394  0.1421
  141OSM   H15A15383   0.980   0.268   5.918  1.9400 -0.7199  2.7154
  141OSM   H15B15384   1.094   0.391   5.897 -0.6425  0.4100  1.4913
  141OSM   H15C15385   0.933   0.426   5.834 -0.1409  1.6836  1.1009
  141OSM    C1415386   1.087   0.423   6.127 -0.4193  0.4072  0.0855
  141OSM   H14A15387   1.158   0.498   6.095  0.3288 -0.2986  0.0611
  141OSM   H14B15388   1.130   0.325   6.111 -0.5319  0.3992 -0.1751
  141OSM   H14C15389   1.071   0.426   6.234 -0.0469 -0.0802  0.1578
  141OSM    C1315390   0.933   0.580   6.019 -0.8872  0.3298  0.5113
  141OSM   H13A15391   0.923   0.621   6.118 -0.9109 -1.1318  1.1417
  141OSM   H13B15392   0.849   0.599   5.954  0.7960 -0.0520 -1.8959
  141OSM   H13C15393   1.021   0.631   5.982 -0.0482 -0.4224  1.4206
  141OSM    C1215394   0.841   0.368   6.107 -0.7052  0.5058  0.7222
  141OSM   H12A15395   0.847   0.263   6.085  2.1875  0.9379 -0.9956
  141OSM   H12B15396   0.754   0.388   6.046 -0.4787 -1.6969 -0.4141
  141OSM    C1115397   0.801   0.394   6.251 -0.5118  0.8125 -0.8238
  141OSM   H11A15398   0.877   0.347   6.316 -1.4904  1.5515  0.9217
  141OSM   H11B15399   0.706   0.342   6.275 -1.0397  0.6972 -2.9391
  141OSM      P15400   0.652   0.616   6.280 -0.7029  0.1911  0.1159
  141OSM    O1315401   0.683   0.758   6.241 -0.1603 -0.5896 -0.1276
  141OSM    O1415402   0.552   0.540   6.215  0.0312 -0.7128  0.2672
  141OSM    O1115403   0.618   0.614   6.436 -0.2487  0.0444  0.0249
  141OSM    O1215404   0.791   0.536   6.280  0.1476 -0.0442 -0.4043
  141OSM    C1S15405   0.716   0.598   6.540  0.8995 -0.5179  1.0206
  141OSM    H1S15406   0.762   0.696   6.565  0.9562 -0.1710 -0.3779
  141OSM    H1T15407   0.795   0.526   6.511  0.2193 -1.9962  2.6330
  141OSM     NF15408   0.742   0.517   6.755  0.8216  0.0652  0.2062
  141OSM    HNF15409   0.770   0.421   6.752 -1.0705 -0.5412 -2.8556
  141OSM    C2S15410   0.642   0.537   6.659  0.2397 -0.0887 -0.5854
  141OSM    H2S15411   0.560   0.606   6.690 -0.8804 -1.7757  0.3341
  141OSM    C3S15412   0.568   0.402   6.633 -0.3646 -0.0505 -0.9847
  141OSM    H3S15413   0.650   0.333   6.603  1.4685  0.6253  2.0911
  141OSM     O315414   0.476   0.403   6.527  0.1099  0.7351  0.2979
  141OSM    HO315415   0.495   0.488   6.489  0.1820  1.1009  1.1305
  141OSM    C4S15416   0.508   0.355   6.762 -0.1740 -0.1765 -0.8860
  141OSM    H4S15417   0.568   0.287   6.823 -0.9958  1.2715  1.7121
  141OSM    C5S15418   0.389   0.388   6.810 -0.5189  0.9571  0.5554
  141OSM    H5S15419   0.345   0.470   6.753  1.6483  1.1343 -0.9911
  141OSM    C6S15420   0.318   0.339   6.934 -0.2723  0.2899 -0.4011
  141OSM    H6S15421   0.237   0.275   6.894  2.4138 -3.5911 -0.2167
  141OSM    H6T15422   0.269   0.422   6.989 -0.6260  0.3822 -0.8471
  141OSM    C7S15423   0.396   0.245   7.016  0.6294 -0.5885 -0.4142
  141OSM    H7S15424   0.489   0.293   7.055  0.2280 -1.5018  1.8168
  141OSM    H7T15425   0.427   0.156   6.957  1.4301 -1.8099  1.7140
  141OSM    C8S15426   0.316   0.202   7.141  0.1275 -0.0414  0.0791
  141OSM    H8S15427   0.220   0.152   7.117 -0.1191  1.1209 -1.5113
  141OSM    H8T15428   0.311   0.292   7.206 -0.7652  0.6400 -0.9061
  141OSM    C9S15429   0.405   0.104   7.227 -0.7755  0.6501 -1.0645
  141OSM    H9S15430   0.487   0.162   7.274  0.0199 -1.3358  0.1230
  141OSM    H9T15431   0.453   0.036   7.153 -0.2876 -0.5075  0.2709
  141OSM   C10S15432   0.330   0.036   7.344  0.0817  0.3881 -0.1835
  141OSM   H10S15433   0.257  -0.037   7.301 -1.4099  1.3316  0.6863
  141OSM   H10T15434   0.274   0.110   7.404  0.4550 -0.3121  1.0698
  141OSM   C11S15435   0.427  -0.034   7.444 -0.3428 -0.0751 -0.1397
  141OSM   H11S15436   0.511   0.039   7.454  0.0074 -0.1611 -2.0058
  141OSM   H11T15437   0.475  -0.125   7.402  3.4767  0.7796  1.8804
  141OSM   C12S15438   0.374  -0.095   7.569  0.3859 -0.7252 -0.1289
  141OSM   H12S15439   0.456  -0.162   7.603 -1.1751 -1.7790  1.7616
  141OSM   H12T15440   0.288  -0.159   7.540 -0.2970  0.2993 -0.3869
  141OSM   C13S15441   0.349   0.001   7.683 -0.2891 -0.1389  0.1067
  141OSM   H13S15442   0.257   0.061   7.669  0.1918  0.8688  1.0873
  141OSM   H13T15443   0.422   0.085   7.683 -1.6256  1.0895 -0.9448
  141OSM   C14S15444   0.336  -0.057   7.826  0.6098 -0.1728  0.4203
  141OSM   H14S15445   0.257  -0.133   7.842  1.2393 -0.4286  2.6021
  141OSM   H14T15446   0.308   0.025   7.895 -1.0285 -1.0564  0.8456
  141OSM   C15S15447   0.470  -0.121   7.873 -0.1991  0.7762 -0.0218
  141OSM   H15S15448   0.548  -0.043   7.884  1.3187 -0.5197 -1.2276
  141OSM   H15T15449   0.501  -0.183   7.786 -0.4408 -0.6127  0.8506
  141OSM   C16S15450   0.453  -0.218   7.998  0.1373 -0.3240  0.3527
  141OSM   H16S15451   0.546  -0.279   7.992 -0.9711 -1.9279 -1.9784
  141OSM   H16T15452   0.368  -0.289   7.989  0.5198 -0.8048  0.5091
  141OSM   C17S15453   0.419  -0.141   8.126 -0.2483  0.2082 -0.4489
  141OSM   H17S15454   0.414  -0.226   8.197 -0.6102  1.5413  1.1810
  141OSM   H17T15455   0.315  -0.101   8.118  0.3024  1.7740 -0.2195
  141OSM   C18S15456   0.518  -0.032   8.166  0.4036  0.2877  0.4191
  141OSM   H18S15457   0.487   0.016   8.262 -0.0633  1.3864 -0.2613
  141OSM   H18T15458   0.524   0.049   8.090 -2.2593  0.0646 -0.1070
  141OSM   H18U15459   0.620  -0.072   8.185  0.2387 -0.6521 -0.6229
  141OSM    C1F15460   0.805   0.622   6.825 -0.4060  0.3491  0.2493
  141OSM     OF15461   0.741   0.723   6.848  0.0724  0.2802 -0.0824
  141OSM    C2F15462   0.948   0.610   6.864  0.2432  0.0961  0.6765
  141OSM    H2F15463   1.007   0.607   6.770  2.2464 -1.3638  1.8903
  141OSM    H2G15464   0.971   0.517   6.920  2.3243  0.5993  0.7420
  141OSM    C3F15465   1.003   0.721   6.949  0.0479 -0.4001  0.1757
  141OSM    H3F15466   0.989   0.818   6.896 -0.6026  0.7294  2.2812
  141OSM    H3G15467   1.113   0.719   6.967 -0.0752  1.0131  1.2763
  141OSM    C4F15468   0.940   0.734   7.085 -0.8207 -0.2707 -0.3993
  141OSM    H4F15469   0.944   0.632   7.130 -1.9562 -0.3330 -0.4033
  141OSM    H4G15470   0.832   0.758   7.075 -1.1493 -1.6960 -0.5392
  141OSM    C5F15471   1.011   0.819   7.189  0.3016  0.3865  0.7097
  141OSM    H5F15472   1.002   0.925   7.156 -1.8737 -0.7963 -3.2214
  141OSM    H5G15473   1.117   0.787   7.189  0.1484 -0.1464  1.6038
  141OSM    C6F15474   0.962   0.781   7.323  0.3369  0.2697 -0.4974
  141OSM    H6F15475   0.944   0.671   7.324  1.7224 -0.0203 -2.3018
  141OSM    H6G15476   0.857   0.817   7.328  0.5390  0.7077  0.9727
  141OSM    C7F15477   1.031   0.825   7.451 -0.1729  0.7580  0.0980
  141OSM    H7F15478   1.014   0.934   7.462 -0.7247  0.6524  0.2825
  141OSM    H7G15479   1.137   0.803   7.427 -1.1268 -1.1255 -3.0074
  141OSM    C8F15480   0.981   0.750   7.580 -0.3402  0.1246 -0.4410
  141OSM    H8F15481   1.039   0.765   7.673 -0.3036 -0.4462 -0.3650
  141OSM    H8G15482   0.991   0.639   7.577 -1.9415 -0.0173 -1.5117
  141OSM    C9F15483   0.838   0.779   7.605 -0.1479  0.0402 -0.0593
  141OSM    H9F15484   0.764   0.751   7.528  1.6588  0.4628 -2.0467
  141OSM   C10F15485   0.785   0.824   7.719  0.5339  0.2430  0.3630
  141OSM   H10F15486   0.676   0.824   7.723  0.2979  0.1875 -3.0455
  141OSM   C11F15487   0.856   0.883   7.838 -0.3248 -0.6621 -0.1630
  141OSM   H11F15488   0.807   0.981   7.859  0.5720 -0.6803  2.3427
  141OSM   H11G15489   0.963   0.904   7.817 -0.8351  0.9803 -1.3120
  141OSM   C12F15490   0.834   0.803   7.973  0.5043 -0.1289 -0.3956
  141OSM   H12F15491   0.724   0.792   7.980  0.0597  1.8804 -2.6483
  141OSM   H12G15492   0.880   0.867   8.052 -0.3690  1.2516 -0.9631
  141OSM   C13F15493   0.905   0.667   7.984  0.8166 -0.4779  0.4083
  141OSM   H13F15494   1.014   0.686   7.994  0.7374 -0.2138  0.7947
  141OSM   H13G15495   0.894   0.604   7.893 -0.1973 -0.0781  0.2374
  141OSM   C14F15496   0.849   0.572   8.092 -0.3416 -0.4245 -0.1444
  141OSM   H14F15497   0.740   0.572   8.071 -1.2324 -0.6544  3.7218
  141OSM   H14G15498   0.866   0.623   8.189  2.5177  4.8602 -2.9586
  141OSM   C15F15499   0.922   0.434   8.083 -0.2304  0.0574 -0.1642
  141OSM   H15F15500   1.029   0.463   8.085  0.1412 -1.2681 -0.1660
  141OSM   H15G15501   0.911   0.397   7.978 -0.2318  3.1227 -1.3453
  141OSM   C16F15502   0.876   0.335   8.196 -0.4041 -0.3500  0.1314
  141OSM   H16F15503   0.771   0.303   8.177 -0.7770  1.5478 -1.2956
  141OSM   H16G15504   0.867   0.397   8.287 -0.9503 -0.8429  0.4264
  141OSM   C17F15505   0.967   0.222   8.246  0.1455 -0.0391  0.7860
  141OSM   H17F15506   1.076   0.243   8.244  0.1871  0.0617 -2.7347
  141OSM   H17G15507   0.945   0.132   8.184  0.6921 -0.5327  1.2959
  141OSM   C18F15508   0.923   0.189   8.384  0.1401 -0.5607  0.0514
  141OSM   H18F15509   0.823   0.142   8.381 -0.6033  0.7562  2.3371
  141OSM   H18G15510   0.938   0.271   8.458  0.9516  0.2813 -1.0136
  141OSM   H18H15511   0.989   0.105   8.416  0.1078  0.0244  1.7391
  142OSM      N15512   2.264   1.224   5.963  0.1556  0.2758  0.2094
  142OSM    C1515513   2.131   1.156   6.005 -0.0339 -0.2757  0.2131
  142OSM   H15A15514   2.060   1.228   6.042  0.1089 -0.3040  0.5546
  142OSM   H15B15515   2.143   1.098   6.096 -0.2857 -0.8042 -0.0896
  142OSM   H15C15516   2.093   1.093   5.926 -2.8480 -1.3371  2.2459
  142OSM    C1415517   2.336   1.117   5.885 -0.3529 -0.3617  0.0894
  142OSM   H14A15518   2.436   1.150   5.859  0.1686 -0.5006  1.7449
  142OSM   H14B15519   2.286   1.089   5.794 -1.9643 -0.3011  0.9099
  142OSM   H14C15520   2.346   1.024   5.940  1.3037  0.4086  1.1686
  142OSM    C1315521   2.230   1.342   5.879  0.4311 -1.1662  0.0293
  142OSM   H13A15522   2.318   1.397   5.849 -0.0926 -0.9673 -1.2124
  142OSM   H13B15523   2.170   1.407   5.940 -1.2414 -1.3585 -1.3276
  142OSM   H13C15524   2.177   1.317   5.788  0.8572 -0.0648 -0.5465
  142OSM    C1215525   2.346   1.263   6.085  0.1680  0.3066  0.2342
  142OSM   H12A15526   2.431   1.317   6.048  0.0883  0.8082  0.7732
  142OSM   H12B15527   2.376   1.173   6.137 -0.3352  0.2163  0.3835
  142OSM    C1115528   2.289   1.357   6.189  0.2042 -0.3241 -0.4482
  142OSM   H11A15529   2.356   1.360   6.278  0.6578 -0.0269 -0.8005
  142OSM   H11B15530   2.196   1.316   6.234  0.8424 -0.3675  0.8871
  142OSM      P15531   2.404   1.574   6.116 -0.0266  0.0283 -0.3235
  142OSM    O1315532   2.515   1.493   6.061 -0.1894 -0.1760 -0.3371
  142OSM    O1415533   2.384   1.705   6.055 -0.7639  0.1381  0.1559
  142OSM    O1115534   2.443   1.595   6.265  0.3350  0.3129 -0.0820
  142OSM    O1215535   2.270   1.493   6.131  0.6248  0.5038 -0.4519
  142OSM    C1S15536   2.575   1.634   6.305  0.2160  0.6785  0.3219
  142OSM    H1S15537   2.596   1.730   6.254  0.7790  0.8645  0.8870
  142OSM    H1T15538   2.654   1.562   6.278 -0.9338 -0.7589  0.6416
  142OSM     NF15539   2.711   1.703   6.485  0.2511  0.1680  0.8040
  142OSM    HNF15540   2.772   1.630   6.512  1.1402  1.3210  2.0703
  142OSM    C2S15541   2.577   1.658   6.453  0.7396 -0.6953  0.2683
  142OSM    H2S15542   2.498   1.734   6.467 -0.8726 -1.8521 -1.8676
  142OSM    C3S15543   2.542   1.522   6.521  0.2363 -0.5195 -0.2754
  142OSM    H3S15544   2.620   1.452   6.484  1.1964 -0.3970  1.4221
  142OSM     O315545   2.417   1.467   6.485 -0.0444  0.4637 -0.3956
  142OSM    HO315546   2.384   1.530   6.420 -1.0294  2.0191  1.5100
  142OSM    C4S15547   2.561   1.513   6.670  0.3884  0.0739 -0.4502
  142OSM    H4S15548   2.511   1.599   6.717  0.4954  0.6329 -1.3184
  142OSM    C5S15549   2.643   1.425   6.734  0.5872 -0.1410  1.0353
  142OSM    H5S15550   2.687   1.347   6.670  0.2114  1.2635 -1.0620
  142OSM    C6S15551   2.658   1.421   6.883 -0.0181  0.0316 -0.8260
  142OSM    H6S15552   2.764   1.438   6.912 -0.7637  1.9970  1.1408
  142OSM    H6T15553   2.631   1.316   6.908 -1.0806 -0.1258 -2.4660
  142OSM    C7S15554   2.566   1.497   6.980 -0.6947 -0.0118  0.1708
  142OSM    H7S15555   2.462   1.471   6.951 -1.0945 -0.8924  2.2370
  142OSM    H7T15556   2.586   1.606   6.973 -0.3935  0.0714  1.7849
  142OSM    C8S15557   2.582   1.469   7.128 -0.0159  0.3293 -0.1814
  142OSM    H8S15558   2.689   1.489   7.150  0.4139  0.0013 -1.8283
  142OSM    H8T15559   2.558   1.362   7.149 -0.4403  0.1796 -1.3677
  142OSM    C9S15560   2.497   1.558   7.207  0.0949 -0.2194  0.2511
  142OSM    H9S15561   2.396   1.531   7.170 -0.1178 -1.3902  1.6050
  142OSM    H9T15562   2.524   1.662   7.176  2.7096 -0.3828  1.6902
  142OSM   C10S15563   2.494   1.527   7.360 -0.3731  0.1890 -1.0743
  142OSM   H10S15564   2.599   1.522   7.396 -0.8921 -1.4847  0.3346
  142OSM   H10T15565   2.454   1.425   7.376  1.8447 -0.4745  0.7921
  142OSM   C11S15566   2.421   1.633   7.450 -0.4787  0.2518  0.1032
  142OSM   H11S15567   2.323   1.656   7.405 -0.6792  0.7677  0.7779
  142OSM   H11T15568   2.495   1.717   7.455 -0.1123 -0.0301 -0.5036
  142OSM   C12S15569   2.373   1.588   7.583 -0.1027 -0.3024 -0.5046
  142OSM   H12S15570   2.288   1.518   7.573 -0.9944  0.3222  2.0283
  142OSM   H12T15571   2.340   1.679   7.638  3.1272  0.9336 -0.3782
  142OSM   C13S15572   2.478   1.514   7.676  0.2517 -0.2384  0.1833
  142OSM   H13S15573   2.563   1.582   7.698 -0.8221  1.4322 -0.6089
  142OSM   H13T15574   2.510   1.418   7.633 -1.7121 -0.6374 -0.5035
  142OSM   C14S15575   2.408   1.491   7.810  0.5016  0.3833  0.1207
  142OSM   H14S15576   2.325   1.420   7.791 -1.0472  2.1050  0.2032
  142OSM   H14T15577   2.367   1.583   7.856  1.8974  1.5980 -0.9708
  142OSM   C15S15578   2.513   1.428   7.903  0.2678  0.6311  0.3025
  142OSM   H15S15579   2.609   1.482   7.895  0.0167  0.9629 -0.6240
  142OSM   H15T15580   2.544   1.329   7.862  1.0565  0.9870  0.0179
  142OSM   C16S15581   2.454   1.409   8.044 -0.3296  0.4404  0.5382
  142OSM   H16S15582   2.357   1.356   8.033  0.2926 -0.2377 -2.6958
  142OSM   H16T15583   2.432   1.506   8.092  0.1521  0.9287 -0.1967
  142OSM   C17S15584   2.556   1.325   8.127  0.3507 -0.3937 -0.1656
  142OSM   H17S15585   2.590   1.251   8.052  0.4755 -1.2231  0.7043
  142OSM   H17T15586   2.499   1.267   8.202  0.6684 -0.0952  0.3069
  142OSM   C18S15587   2.672   1.399   8.185 -0.0641  0.2509 -0.1641
  142OSM   H18S15588   2.750   1.336   8.232  0.1741  0.1765 -0.6521
  142OSM   H18T15589   2.638   1.476   8.256 -0.7329 -0.8509  0.7426
  142OSM   H18U15590   2.719   1.449   8.097 -0.5364  0.8404 -0.0893
  142OSM    C1F15591   2.752   1.829   6.462 -0.5341  0.2825  0.4853
  142OSM     OF15592   2.674   1.915   6.422  0.8308 -0.0713 -0.0639
  142OSM    C2F15593   2.898   1.850   6.499  0.4645  0.0015 -0.1880
  142OSM    H2F15594   2.952   1.860   6.402  0.2049  0.9788 -0.2403
  142OSM    H2G15595   2.935   1.763   6.557 -0.0910  0.3852  0.7595
  142OSM    C3F15596   2.908   1.988   6.565  0.0138  0.5771 -1.0680
  142OSM    H3F15597   2.874   2.062   6.489 -1.0929  1.2646  0.0540
  142OSM    H3G15598   3.013   2.013   6.590 -0.4408  0.0049  1.7146
  142OSM    C4F15599   2.822   1.988   6.691 -0.2690 -0.1886 -0.8129
  142OSM    H4F15600   2.714   1.962   6.684 -1.1228  2.4572  1.1580
  142OSM    H4G15601   2.831   2.088   6.738  1.1872 -0.2621 -0.8803
  142OSM    C5F15602   2.876   1.879   6.788  0.4165 -0.0794 -0.5000
  142OSM    H5F15603   2.987   1.873   6.779  0.5472  1.0566  0.2316
  142OSM    H5G15604   2.833   1.782   6.754  0.5204 -1.0524  1.9800
  142OSM    C6F15605   2.827   1.893   6.930  0.0366  0.1656 -0.1264
  142OSM    H6F15606   2.717   1.908   6.935 -0.2106 -1.6569  0.7223
  142OSM    H6G15607   2.875   1.984   6.973  1.6367  0.1290 -1.7563
  142OSM    C7F15608   2.846   1.768   7.016 -0.6253  0.1196  0.2980
  142OSM    H7F15609   2.949   1.728   7.018 -0.8372 -0.8145 -2.5968
  142OSM    H7G15610   2.783   1.692   6.966 -2.3187  0.7497  1.3650
  142OSM    C8F15611   2.795   1.776   7.158 -0.3513 -0.2133 -0.4078
  142OSM    H8F15612   2.788   1.668   7.185 -0.8137 -0.1684 -0.3460
  142OSM    H8G15613   2.691   1.812   7.174 -0.2784  1.1532 -2.6787
  142OSM    C9F15614   2.895   1.855   7.245 -0.8001  0.4679 -0.2790
  142OSM    H9F15615   2.962   1.924   7.192  0.2760 -1.1857 -1.1406
  142OSM   C10F15616   2.916   1.821   7.378 -0.2163 -0.3847 -0.2045
  142OSM   H10F15617   2.989   1.875   7.440 -0.5596 -0.4972  0.2952
  142OSM   C11F15618   2.844   1.701   7.442  0.4564 -0.1447 -0.4209
  142OSM   H11F15619   2.876   1.605   7.397 -0.7711 -0.8034  0.0690
  142OSM   H11G15620   2.736   1.721   7.423  0.5318 -0.3511 -1.1104
  142OSM   C12F15621   2.854   1.696   7.594  0.3432  0.5545  0.3618
  142OSM   H12F15622   2.958   1.685   7.632  0.4647 -0.6030 -0.2737
  142OSM   H12G15623   2.811   1.599   7.629  0.1968  0.3711 -0.3107
  142OSM   C13F15624   2.786   1.812   7.663  0.0286  0.9315  0.0313
  142OSM   H13F15625   2.681   1.819   7.626 -0.0320  2.8748  0.4523
  142OSM   H13G15626   2.831   1.909   7.635 -1.0763  1.7213  0.8965
  142OSM   C14F15627   2.781   1.785   7.816  0.6301 -0.7367 -0.2890
  142OSM   H14F15628   2.755   1.678   7.832 -2.0453 -0.0143  0.7878
  142OSM   H14G15629   2.703   1.838   7.875  1.3088 -0.6902  0.5784
  142OSM   C15F15630   2.909   1.843   7.881 -0.4691 -0.1314 -0.6081
  142OSM   H15F15631   2.914   1.954   7.885 -0.2093 -0.1442 -0.5608
  142OSM   H15G15632   2.990   1.806   7.813  1.4543  0.7205  1.1054
  142OSM   C16F15633   2.950   1.796   8.021  0.6411  1.1538  0.2381
  142OSM   H16F15634   2.870   1.843   8.081  0.6897  0.9515  0.4619
  142OSM   H16G15635   3.045   1.848   8.049  1.5952 -0.8482  0.9051
  142OSM   C17F15636   2.965   1.644   8.047  0.1740  0.6553  0.1314
  142OSM   H17F15637   2.880   1.585   8.005  1.6115 -1.6862  0.3350
  142OSM   H17G15638   2.962   1.634   8.158 -0.6825 -1.0349 -0.0098
  142OSM   C18F15639   3.087   1.579   7.982 -0.0696 -0.0049  0.2468
  142OSM   H18F15640   3.084   1.469   7.975  1.4546 -0.1772  1.5415
  142OSM   H18G15641   3.184   1.616   8.024 -0.0440  1.1698 -0.8054
  142OSM   H18H15642   3.078   1.609   7.876 -0.7429  1.3574  0.6658
  143OSM      N15643   2.973   5.558   5.771  0.1302 -0.1217 -0.1910
  143OSM    C1515644   3.081   5.607   5.684 -0.9015  0.7747  0.0892
  143OSM   H15A15645   3.036   5.683   5.621 -0.6503  2.8813  2.3227
  143OSM   H15B15646   3.121   5.529   5.621 -0.6452 -1.2694  2.6309
  143OSM   H15C15647   3.160   5.644   5.747  2.0149 -0.9494 -2.2934
  143OSM    C1415648   2.916   5.661   5.859  0.0436  0.1039 -0.0800
  143OSM   H14A15649   2.986   5.680   5.939  2.5787 -1.6311 -1.7400
  143OSM   H14B15650   2.817   5.632   5.892 -0.8470  0.9136 -1.8976
  143OSM   H14C15651   2.900   5.751   5.803  2.9843  0.3354 -0.7143
  143OSM    C1315652   2.863   5.505   5.689  0.9739  0.7333  0.1416
  143OSM   H13A15653   2.771   5.491   5.744  0.0067 -1.9309 -1.9709
  143OSM   H13B15654   2.891   5.408   5.651  0.1646 -0.4636  2.4484
  143OSM   H13C15655   2.839   5.557   5.597 -1.5419 -1.9927 -0.8721
  143OSM    C1215656   3.043   5.452   5.860 -0.3877  0.2939 -0.0797
  143OSM   H12A15657   2.968   5.393   5.912  0.3835 -1.9659 -1.3994
  143OSM   H12B15658   3.094   5.502   5.941 -0.0666 -1.1940  0.6710
  143OSM    C1115659   3.134   5.344   5.797  0.2363 -0.7070 -0.3370
  143OSM   H11A15660   3.195   5.296   5.876 -2.0495 -0.7722  1.5121
  143OSM   H11B15661   3.199   5.396   5.723 -1.6324  1.3272 -0.6726
  143OSM      P15662   2.945   5.160   5.804  0.0241  0.1956  0.5107
  143OSM    O1315663   2.807   5.198   5.760 -0.7810  0.1337  0.2121
  143OSM    O1415664   2.981   5.017   5.787  0.2782  0.3284  0.0842
  143OSM    O1115665   2.961   5.207   5.947 -0.3877 -0.1052 -0.5224
  143OSM    O1215666   3.062   5.237   5.725 -0.3252  0.6186 -0.2628
  143OSM    C1S15667   3.024   5.126   6.040 -0.5294  0.3504 -0.0734
  143OSM    H1S15668   3.131   5.126   6.012 -0.2476  1.1982  0.9240
  143OSM    H1T15669   2.983   5.023   6.047  0.6970 -0.1239  0.4046
  143OSM     NF15670   3.101   5.154   6.275  0.4008  0.5932  0.0147
  143OSM    HNF15671   3.065   5.105   6.354  2.1537 -3.4221 -1.4439
  143OSM    C2S15672   3.002   5.187   6.177  0.5028  0.3053  0.2272
  143OSM    H2S15673   3.002   5.297   6.164 -1.4637  0.1132 -2.1613
  143OSM    C3S15674   2.861   5.155   6.220  0.7147 -0.6691  0.0005
  143OSM    H3S15675   2.850   5.044   6.228 -0.3013 -0.4839  1.7710
  143OSM     O315676   2.758   5.182   6.119  0.0549 -0.3367  0.2113
  143OSM    HO315677   2.808   5.204   6.040 -1.3454 -1.7412 -1.1550
  143OSM    C4S15678   2.815   5.212   6.357 -0.4447  0.6094 -0.1767
  143OSM    H4S15679   2.850   5.148   6.440  0.5433 -0.6515 -1.5023
  143OSM    C5S15680   2.750   5.332   6.389 -0.1130  0.7661  0.9622
  143OSM    H5S15681   2.720   5.397   6.305 -0.0101  1.8166  1.7292
  143OSM    C6S15682   2.721   5.377   6.531  0.1120  0.0376  0.2003
  143OSM    H6S15683   2.612   5.393   6.543  0.3138  0.9586  0.9421
  143OSM    H6T15684   2.772   5.476   6.538  1.2220 -0.4890 -0.1031
  143OSM    C7S15685   2.754   5.296   6.653 -0.3963  0.3724 -0.6782
  143OSM    H7S15686   2.864   5.277   6.657 -0.4745 -0.0068 -0.3235
  143OSM    H7T15687   2.707   5.196   6.645  0.1500 -0.1467  1.6909
  143OSM    C8S15688   2.708   5.349   6.791  0.2829 -0.3011 -0.2521
  143OSM    H8S15689   2.597   5.349   6.784  0.0427 -0.4978  2.5205
  143OSM    H8T15690   2.754   5.450   6.798  0.5109 -0.3301 -1.1588
  143OSM    C9S15691   2.747   5.252   6.897 -0.0290 -0.2341  0.1289
  143OSM    H9S15692   2.857   5.236   6.897 -0.0434 -0.3737 -0.4836
  143OSM    H9T15693   2.707   5.155   6.860 -1.2027  0.4266 -0.3938
  143OSM   C10S15694   2.707   5.291   7.039 -0.0472  0.3254  0.4846
  143OSM   H10S15695   2.596   5.283   7.048 -0.0479  2.0937  2.8390
  143OSM   H10T15696   2.730   5.398   7.054 -3.2332  0.9379  1.9548
  143OSM   C11S15697   2.782   5.198   7.140 -1.2103 -0.1548 -0.0861
  143OSM   H11S15698   2.891   5.217   7.124 -1.3575 -1.6469 -3.6761
  143OSM   H11T15699   2.773   5.088   7.130  0.8636 -0.3130 -0.8392
  143OSM   C12S15700   2.758   5.240   7.283 -0.3712 -0.6192  0.8467
  143OSM   H12S15701   2.653   5.212   7.303 -1.0030  1.5651  0.8840
  143OSM   H12T15702   2.773   5.349   7.300 -1.7114 -0.2663 -0.0662
  143OSM   C13S15703   2.850   5.165   7.384 -0.2018  0.0725 -0.6075
  143OSM   H13S15704   2.956   5.188   7.361  0.3368 -1.1540  0.5386
  143OSM   H13T15705   2.841   5.057   7.359  0.4138 -0.0911 -0.1242
  143OSM   C14S15706   2.806   5.206   7.528  0.1843 -1.0137 -0.1207
  143OSM   H14S15707   2.697   5.220   7.546  0.1727  0.3655 -1.1034
  143OSM   H14T15708   2.846   5.308   7.543  0.5728 -1.0632 -0.8018
  143OSM   C15S15709   2.856   5.113   7.634 -0.0383 -0.2075 -0.3003
  143OSM   H15S15710   2.967   5.118   7.622 -0.2253  1.2877 -1.8207
  143OSM   H15T15711   2.818   5.010   7.615 -1.9264  0.4525 -0.2873
  143OSM   C16S15712   2.812   5.148   7.775 -0.3327  0.4915  0.1070
  143OSM   H16S15713   2.810   5.257   7.796  0.5509  0.9853 -2.1262
  143OSM   H16T15714   2.879   5.099   7.849 -0.1853 -0.3548 -0.5761
  143OSM   C17S15715   2.667   5.096   7.795 -0.3523 -0.1632  0.9569
  143OSM   H17S15716   2.648   4.996   7.751  0.5338  0.2203 -0.3719
  143OSM   H17T15717   2.602   5.153   7.725  0.2906 -1.1753 -0.5447
  143OSM   C18S15718   2.617   5.107   7.936  0.2651 -0.1193  0.0286
  143OSM   H18S15719   2.686   5.050   8.001 -0.9918  0.6179  2.1085
  143OSM   H18T15720   2.508   5.087   7.943  0.2246 -1.5905 -3.0615
  143OSM   H18U15721   2.625   5.212   7.970 -3.1795 -0.4665  2.4546
  143OSM    C1F15722   3.232   5.193   6.275 -0.7372 -0.2955  0.8125
  143OSM     OF15723   3.275   5.271   6.193  0.1736  0.1986  0.3747
  143OSM    C2F15724   3.318   5.138   6.381  0.3357  0.4907  0.2403
  143OSM    H2F15725   3.311   5.028   6.366 -0.4498  0.1151  2.8978
  143OSM    H2G15726   3.268   5.161   6.477 -1.0102 -0.4105 -0.2029
  143OSM    C3F15727   3.461   5.192   6.377 -1.0118  0.3177  0.1658
  143OSM    H3F15728   3.468   5.302   6.388  0.5603  0.1436  1.2542
  143OSM    H3G15729   3.507   5.149   6.285  1.8122  0.2280  1.5197
  143OSM    C4F15730   3.551   5.141   6.495  0.6792  0.2341  0.6891
  143OSM    H4F15731   3.658   5.160   6.469  0.5240 -1.0082 -1.0265
  143OSM    H4G15732   3.549   5.031   6.503 -1.3352  0.2873  1.3494
  143OSM    C5F15733   3.521   5.201   6.632  0.4671  0.0746 -0.6191
  143OSM    H5F15734   3.413   5.192   6.656  0.7641 -2.3461  0.0445
  143OSM    H5G15735   3.533   5.311   6.616  3.0097  0.2480  1.7683
  143OSM    C6F15736   3.613   5.152   6.750 -0.1910 -0.4883 -0.3641
  143OSM    H6F15737   3.716   5.153   6.708  0.9558  3.6475  1.9938
  143OSM    H6G15738   3.581   5.053   6.789  0.3117 -0.9022 -0.9803
  143OSM    C7F15739   3.612   5.257   6.860 -0.4696  0.0164  0.2132
  143OSM    H7F15740   3.509   5.259   6.902 -0.6945 -0.8043 -0.2795
  143OSM    H7G15741   3.622   5.352   6.803 -2.5020 -0.9640 -1.9786
  143OSM    C8F15742   3.716   5.242   6.968  0.3211  0.6500 -0.9433
  143OSM    H8F15743   3.818   5.236   6.923  0.2801 -3.1462 -0.8509
  143OSM    H8G15744   3.692   5.149   7.023 -0.8091  1.0074 -0.8122
  143OSM    C9F15745   3.701   5.355   7.071 -0.7210  0.0208 -0.1064
  143OSM    H9F15746   3.775   5.435   7.057  0.1505 -0.8165 -0.4069
  143OSM   C10F15747   3.623   5.352   7.179  0.4462 -0.3161  0.4159
  143OSM   H10F15748   3.622   5.438   7.246 -0.9450  1.6120 -1.9015
  143OSM   C11F15749   3.531   5.239   7.209  0.5184 -0.2119 -0.3080
  143OSM   H11F15750   3.492   5.181   7.123 -1.6276 -0.0841  0.5274
  143OSM   H11G15751   3.438   5.266   7.262  0.2096 -1.0699 -0.3995
  143OSM   C12F15752   3.600   5.135   7.294  1.0425 -0.3698 -0.0239
  143OSM   H12F15753   3.699   5.097   7.259  0.5985 -0.6294 -1.0394
  143OSM   H12G15754   3.533   5.047   7.302 -0.6136  0.9673  1.4502
  143OSM   C13F15755   3.623   5.181   7.440  0.2627  0.3703 -0.4240
  143OSM   H13F15756   3.533   5.228   7.484  0.1616  2.0993 -2.3149
  143OSM   H13G15757   3.689   5.270   7.434 -1.4906  1.7233 -0.6478
  143OSM   C14F15758   3.691   5.086   7.547  0.3395  0.4880 -0.1346
  143OSM   H14F15759   3.799   5.065   7.534  0.7855  0.7180  2.6944
  143OSM   H14G15760   3.640   4.988   7.541  0.1486  0.4402  1.7787
  143OSM   C15F15761   3.674   5.129   7.687 -0.4842  0.0192  0.9194
  143OSM   H15F15762   3.692   5.040   7.750  1.8793  1.1435  1.9839
  143OSM   H15G15763   3.577   5.179   7.707  0.5170  2.8638 -0.7730
  143OSM   C16F15764   3.775   5.233   7.739 -0.1525 -0.0733 -1.0159
  143OSM   H16F15765   3.772   5.330   7.684 -1.1175  0.5049  0.0217
  143OSM   H16G15766   3.877   5.188   7.735  1.0814  2.5074 -0.8853
  143OSM   C17F15767   3.741   5.285   7.880  0.3369  0.4242 -0.5120
  143OSM   H17F15768   3.719   5.196   7.943  2.5079 -0.4150 -0.8551
  143OSM   H17G15769   3.642   5.332   7.862  0.2124  0.5943  0.5966
  143OSM   C18F15770   3.848   5.375   7.933 -0.0040  0.1707 -0.8750
  143OSM   H18F15771   3.940   5.314   7.952 -1.9884 -2.3508  1.5468
  143OSM   H18G15772   3.830   5.406   8.038  0.2232 -2.2499 -0.0473
  143OSM   H18H15773   3.865   5.459   7.863  1.2704 -0.4077 -1.3041
  144OSM      N15774   2.167   5.376   5.589 -0.6321  0.1796  1.2567
  144OSM    C1515775   2.107   5.278   5.491 -0.2721  0.7600  0.0065
  144OSM   H15A15776   2.162   5.185   5.489  0.3561  1.1208  0.2085
  144OSM   H15B15777   2.109   5.318   5.391 -3.9167  0.9433 -0.1612
  144OSM   H15C15778   2.005   5.251   5.514  0.2311 -1.8617 -0.5799
  144OSM    C1415779   2.307   5.406   5.552 -0.8459 -0.2073 -0.1266
  144OSM   H14A15780   2.376   5.323   5.562  0.5214  1.0450  1.2278
  144OSM   H14B15781   2.348   5.492   5.602 -1.4553  1.8053 -2.8687
  144OSM   H14C15782   2.305   5.425   5.445 -1.6295  0.0604 -0.0698
  144OSM    C1315783   2.094   5.504   5.605  0.3945  0.1844 -0.0906
  144OSM   H13A15784   2.151   5.582   5.653  0.2045  0.3452 -0.1258
  144OSM   H13B15785   2.006   5.493   5.666 -0.4316 -1.8205 -1.5267
  144OSM   H13C15786   2.041   5.533   5.516 -0.2053 -1.5514 -0.3231
  144OSM    C1215787   2.159   5.301   5.720 -0.1519  0.1655  0.2432
  144OSM   H12A15788   2.223   5.214   5.710  0.5245  0.7608 -0.7212
  144OSM   H12B15789   2.055   5.274   5.729 -0.4298  1.1965  0.2683
  144OSM    C1115790   2.209   5.367   5.843  0.2168 -0.7747 -0.7755
  144OSM   H11A15791   2.309   5.414   5.836  0.1291 -0.5547 -0.5929
  144OSM   H11B15792   2.232   5.287   5.917  0.4319  0.0692  0.0884
  144OSM      P15793   2.112   5.538   6.022  0.3459 -0.0305 -0.3003
  144OSM    O1315794   2.244   5.597   6.049 -0.3726 -0.2654  0.1192
  144OSM    O1415795   1.991   5.624   6.027  0.2864  0.3997  0.3038
  144OSM    O1115796   2.070   5.418   6.117 -0.5853 -0.5457  0.7816
  144OSM    O1215797   2.112   5.470   5.881 -0.1107 -0.0442 -0.4300
  144OSM    C1S15798   2.131   5.391   6.246 -0.1577  0.0969 -1.1789
  144OSM    H1S15799   2.099   5.461   6.326 -1.2940 -0.0730 -1.4713
  144OSM    H1T15800   2.241   5.403   6.237 -0.4392  2.5734 -2.3712
  144OSM     NF15801   2.204   5.219   6.410 -0.1281 -0.7683 -0.3673
  144OSM    HNF15802   2.274   5.151   6.390  1.1602 -0.0429  1.3333
  144OSM    C2S15803   2.108   5.252   6.300 -0.0342  0.0009  0.0748
  144OSM    H2S15804   2.010   5.249   6.352 -1.2011 -0.9055 -2.0392
  144OSM    C3S15805   2.111   5.148   6.185  0.2235 -0.0874 -1.1031
  144OSM    H3S15806   2.209   5.162   6.135 -0.3017  0.0138 -2.1338
  144OSM     O315807   2.014   5.167   6.075 -0.5203  0.6365 -0.0996
  144OSM    HO315808   1.975   5.253   6.092  2.3030  1.6699  1.8850
  144OSM    C4S15809   2.100   5.011   6.243  0.0763 -0.1991 -0.2959
  144OSM    H4S15810   2.196   4.970   6.279 -0.5962  0.2772  2.2474
  144OSM    C5S15811   1.984   4.942   6.267  0.4265  0.4234 -0.2033
  144OSM    H5S15812   1.884   4.987   6.257 -0.2763 -1.1463 -0.5549
  144OSM    C6S15813   1.989   4.799   6.320 -0.0476  0.1754 -0.5359
  144OSM    H6S15814   1.998   4.730   6.234 -0.1329  1.3031 -1.4770
  144OSM    H6T15815   1.892   4.760   6.358  0.9228 -1.9653 -0.1182
  144OSM    C7S15816   2.099   4.750   6.416 -0.0049 -0.9530  0.2896
  144OSM    H7S15817   2.196   4.776   6.369  0.0282 -1.9482 -0.2231
  144OSM    H7T15818   2.093   4.639   6.414 -1.0858 -0.9075  0.4481
  144OSM    C8S15819   2.089   4.797   6.561 -0.1377  0.8182 -0.1603
  144OSM    H8S15820   1.983   4.783   6.591  0.6480  0.9732  3.0056
  144OSM    H8T15821   2.121   4.903   6.565 -1.0988  1.2822 -2.7699
  144OSM    C9S15822   2.175   4.715   6.647  0.1875 -1.2083 -0.0548
  144OSM    H9S15823   2.166   4.764   6.746 -0.5287 -0.2648 -0.5701
  144OSM    H9T15824   2.282   4.729   6.621  0.0621 -0.6751 -0.2979
  144OSM   C10S15825   2.134   4.571   6.666 -0.6055  0.7975 -0.0169
  144OSM   H10S15826   2.175   4.515   6.580 -1.7028 -1.6011  0.9402
  144OSM   H10T15827   2.023   4.564   6.667 -0.6232  1.1124  0.6160
  144OSM   C11S15828   2.190   4.509   6.797 -0.3936 -0.0439  0.6428
  144OSM   H11S15829   2.293   4.548   6.807  0.3265 -1.5902 -0.3964
  144OSM   H11T15830   2.191   4.400   6.773 -1.2851 -0.5229  2.5445
  144OSM   C12S15831   2.099   4.545   6.914 -0.4852  0.0884 -0.2625
  144OSM   H12S15832   1.996   4.523   6.880 -0.9749  1.6055  0.1671
  144OSM   H12T15833   2.099   4.653   6.940 -0.2289 -0.1422  0.7488
  144OSM   C13S15834   2.135   4.464   7.034 -0.2781  0.1475 -0.1349
  144OSM   H13S15835   2.245   4.470   7.052 -0.6140 -0.9480  2.8388
  144OSM   H13T15836   2.109   4.357   7.015 -2.4155  0.9200 -1.8828
  144OSM   C14S15837   2.074   4.517   7.157 -0.5246 -0.1298 -0.4249
  144OSM   H14S15838   1.965   4.494   7.159 -0.4505 -1.1046 -2.9773
  144OSM   H14T15839   2.088   4.626   7.172 -1.8272 -0.1228  1.0599
  144OSM   C15S15840   2.150   4.453   7.275  0.3901 -0.4901  0.0011
  144OSM   H15S15841   2.255   4.487   7.278  0.8235 -1.5175 -2.1775
  144OSM   H15T15842   2.138   4.344   7.262  0.4072 -0.5724  0.6222
  144OSM   C16S15843   2.072   4.495   7.404 -0.6007 -0.5222 -0.0389
  144OSM   H16S15844   1.963   4.487   7.380 -0.8195  1.3748  0.1658
  144OSM   H16T15845   2.098   4.601   7.420  0.7706 -0.6018 -1.4746
  144OSM   C17S15846   2.112   4.423   7.532 -0.3793 -0.2892  0.6079
  144OSM   H17S15847   2.217   4.443   7.559 -0.0171 -0.8742 -0.2942
  144OSM   H17T15848   2.107   4.316   7.502 -0.8846  0.5916 -2.9169
  144OSM   C18S15849   2.026   4.452   7.655  0.0380  0.1035 -0.0554
  144OSM   H18S15850   2.069   4.398   7.741 -1.9627 -2.4012 -0.5107
  144OSM   H18T15851   1.919   4.422   7.648  0.5666 -1.8119 -0.4265
  144OSM   H18U15852   2.025   4.561   7.676 -0.8439  1.4439 -5.4631
  144OSM    C1F15853   2.206   5.276   6.532  0.7186 -0.0798 -0.3965
  144OSM     OF15854   2.141   5.376   6.552 -0.8137  0.2577 -0.3761
  144OSM    C2F15855   2.279   5.208   6.648  0.1229 -0.3698  0.3952
  144OSM    H2F15856   2.376   5.254   6.677 -1.4126  0.5892  4.8626
  144OSM    H2G15857   2.294   5.107   6.605 -2.6420 -1.5078  1.8318
  144OSM    C3F15858   2.206   5.206   6.780  1.0003 -0.2820  0.8270
  144OSM    H3F15859   2.253   5.126   6.841  0.2975 -0.5265  1.0528
  144OSM    H3G15860   2.101   5.174   6.766  0.0179  1.7735  2.8982
  144OSM    C4F15861   2.222   5.335   6.848 -0.0874 -0.0291 -0.2889
  144OSM    H4F15862   2.192   5.409   6.770 -0.3181 -0.9553 -1.0941
  144OSM    H4G15863   2.325   5.362   6.880  1.0762  0.1425 -3.7655
  144OSM    C5F15864   2.131   5.348   6.971  0.0035 -0.1526  0.1924
  144OSM    H5F15865   2.038   5.291   6.947  0.2819 -0.1368 -0.9726
  144OSM    H5G15866   2.105   5.454   6.988  0.4690  0.2117 -1.2154
  144OSM    C6F15867   2.188   5.283   7.098  0.9901 -0.0703 -0.0062
  144OSM    H6F15868   2.290   5.321   7.122  1.6699 -2.6786  1.7856
  144OSM    H6G15869   2.213   5.177   7.073  1.5926 -0.9372  3.6279
  144OSM    C7F15870   2.084   5.294   7.213 -0.0389 -0.5231  0.6044
  144OSM    H7F15871   1.978   5.290   7.178  0.2834  0.6534 -0.5582
  144OSM    H7G15872   2.098   5.394   7.259  0.0433 -0.1394 -0.2395
  144OSM    C8F15873   2.101   5.193   7.330  0.3723  0.4589 -0.4932
  144OSM    H8F15874   2.088   5.086   7.303 -2.0551  0.7318 -0.5781
  144OSM    H8G15875   2.015   5.225   7.393 -0.5456  0.0109 -1.4902
  144OSM    C9F15876   2.239   5.212   7.397  0.1910 -0.1911  0.6120
  144OSM    H9F15877   2.331   5.188   7.341  0.5584 -1.4881  1.7350
  144OSM   C10F15878   2.256   5.266   7.520 -0.7568 -0.4886  0.7578
  144OSM   H10F15879   2.360   5.274   7.557 -0.0240 -1.9404 -0.8719
  144OSM   C11F15880   2.148   5.307   7.616  0.2618  0.9890 -0.5608
  144OSM   H11F15881   2.048   5.289   7.573  1.2857 -0.2438 -2.5599
  144OSM   H11G15882   2.139   5.417   7.631 -1.2459  0.6798  1.2566
  144OSM   C12F15883   2.144   5.242   7.757 -0.3747  0.1434 -0.5000
  144OSM   H12F15884   2.232   5.274   7.817  0.1805  1.6027 -1.9854
  144OSM   H12G15885   2.133   5.133   7.741 -1.1319  0.1467 -0.0189
  144OSM   C13F15886   2.015   5.299   7.838  0.4328 -0.3582 -0.0267
  144OSM   H13F15887   1.918   5.276   7.788 -0.4880 -0.3695  1.6904
  144OSM   H13G15888   2.034   5.407   7.852  0.8248 -0.5166  0.6914
  144OSM   C14F15889   1.999   5.248   7.985  0.0335 -0.1686  0.2639
  144OSM   H14F15890   1.955   5.146   7.990  0.1745 -0.2297  0.2620
  144OSM   H14G15891   1.937   5.315   8.048 -0.0617  0.1672 -0.1900
  144OSM   C15F15892   2.143   5.248   8.049 -0.6309  0.5715 -0.0192
  144OSM   H15F15893   2.202   5.342   8.054  2.3362 -1.2134  4.5350
  144OSM   H15G15894   2.209   5.171   8.003  0.1740  0.8727  0.5953
  144OSM   C16F15895   2.130   5.200   8.195 -0.0287  0.1089 -0.1544
  144OSM   H16F15896   2.075   5.104   8.180 -1.0158  1.0026 -2.9322
  144OSM   H16G15897   2.068   5.272   8.252 -0.5647  1.0288 -1.8315
  144OSM   C17F15898   2.259   5.167   8.270 -0.5055  0.2211 -0.1607
  144OSM   H17F15899   2.314   5.086   8.217  0.2070  0.4674  0.1889
  144OSM   H17G15900   2.233   5.118   8.366  0.2177 -1.8328 -0.9666
  144OSM   C18F15901   2.359   5.282   8.301  0.7554 -0.3823 -0.1923
  144OSM   H18F15902   2.463   5.242   8.294  1.5878  1.3994  1.3461
  144OSM   H18G15903   2.348   5.329   8.401  0.2087  1.2013 -0.9656
  144OSM   H18H15904   2.346   5.366   8.229  0.3251  0.1764  0.5297
  145SAPE     N15905   5.334   3.832  10.588  0.4457  0.6552  0.0867
  145SAPE   HN115906   5.258   3.879  10.640 -0.2962 -1.0953  0.6652
  145SAPE   HN215907   5.307   3.834  10.487  1.2325 -0.9865 -0.1972
  145SAPE   HN315908   5.335   3.732  10.615 -1.2406  0.6630  0.2694
  145SAPE   C1215909   5.466   3.902  10.618 -1.2281  0.0599  0.6124
  145SAPE  H12A15910   5.446   4.006  10.651 -2.3810  0.7982 -2.2022
  145SAPE  H12B15911   5.516   3.906  10.519 -2.8969  1.3217 -0.2237
  145SAPE   C1115912   5.537   3.837  10.732 -0.0371  0.0132  0.6327
  145SAPE  H11A15913   5.485   3.855  10.829 -1.9917 -2.6979  0.1964
  145SAPE  H11B15914   5.635   3.890  10.737 -0.0224 -0.0403  0.9539
  145SAPE     P15915   5.687   3.633  10.674 -0.0016 -0.1648 -0.3168
  145SAPE   O1315916   5.791   3.705  10.748  0.2595  0.2673 -0.5105
  145SAPE   O1415917   5.684   3.485  10.686  0.2523  0.2109  0.1367
  145SAPE   O1215918   5.547   3.693  10.719 -0.1246 -0.0892  1.0485
  145SAPE   O1115919   5.694   3.656  10.520  0.0086 -0.1689 -0.5771
  145SAPE    C115920   5.825   3.706  10.466  0.0167 -0.0131 -0.0334
  145SAPE    HA15921   5.840   3.814  10.486 -1.1188  0.4521 -1.5103
  145SAPE    HB15922   5.900   3.648  10.525  0.2496  1.6991  1.4594
  145SAPE    C215923   5.840   3.678  10.304  0.1327  0.2783  0.2345
  145SAPE    HS15924   5.944   3.705  10.275  0.4427  0.2780  1.2821
  145SAPE   O2115925   5.749   3.746  10.219  0.7200 -0.1667 -0.4487
  145SAPE   C2115926   5.759   3.883  10.228 -0.1052  0.3129 -0.1405
  145SAPE   O2215927   5.835   3.943  10.300 -0.5488  0.4721 -0.3857
  145SAPE   C2215928   5.655   3.935  10.124  0.4921 -0.1683 -0.4039
  145SAPE   H2R15929   5.632   3.856  10.050 -3.3443 -0.7734  1.2334
  145SAPE   H2S15930   5.566   3.975  10.176 -0.9898 -1.0960 -2.1153
  145SAPE    C315931   5.832   3.526  10.282  0.0387  0.2084  0.3498
  145SAPE    HX15932   5.765   3.481  10.358 -0.6625 -0.4039 -0.6059
  145SAPE    HY15933   5.923   3.470  10.312 -1.1543 -2.9888 -1.4832
  145SAPE   O3115934   5.794   3.488  10.147  0.6756  0.0013 -0.2700
  145SAPE   C3115935   5.884   3.482  10.050 -0.0268 -0.3624 -0.0096
  145SAPE   O3215936   5.998   3.519  10.073  0.5086  0.3526  0.6719
  145SAPE   C3215937   5.823   3.437   9.920 -0.0301  0.1979 -0.4417
  145SAPE   H2X15938   5.735   3.503   9.905  0.2954  0.5355 -0.9353
  145SAPE   H2Y15939   5.795   3.330   9.935  1.1371  0.0058  0.5342
  145SAPE   C2315940   5.717   4.055  10.053  0.0029 -0.5654  0.1096
  145SAPE   H3R15941   5.754   4.119  10.137  1.0358 -0.1747 -0.6134
  145SAPE   H3S15942   5.633   4.095   9.994  1.5990  0.8630 -1.3198
  145SAPE   C2415943   5.840   4.039   9.969 -0.4250 -0.5675  0.3848
  145SAPE   H4R15944   5.929   4.006  10.026 -1.2829 -3.0982  0.3970
  145SAPE   H4S15945   5.864   4.142   9.935  2.7868 -1.5533 -0.7732
  145SAPE   C2515946   5.816   3.942   9.855  0.2562 -0.6301 -0.6746
  145SAPE   H5R15947   5.806   3.841   9.896  3.2514 -0.5723  0.4307
  145SAPE   C2615948   5.797   3.977   9.726 -0.2620 -0.7225 -0.3455
  145SAPE   H6R15949   5.783   3.897   9.653  0.0744 -1.8033  0.7489
  145SAPE   C2715950   5.774   4.118   9.670  0.3483  0.8698 -0.2344
  145SAPE   H7R15951   5.868   4.146   9.617  0.4409  0.3535 -0.3576
  145SAPE   H7S15952   5.754   4.188   9.753 -3.0250 -0.0171 -0.1650
  145SAPE   C2815953   5.660   4.126   9.570  0.5635  0.5548 -0.5287
  145SAPE   H8R15954   5.570   4.186   9.593  1.1301  0.4114  2.4017
  145SAPE   C2915955   5.657   4.074   9.447  0.0575  0.2620  0.7084
  145SAPE   H9R15956   5.557   4.064   9.401  0.5047  0.8980 -0.4590
  145SAPE  C21015957   5.764   4.007   9.372  0.3699  0.1420 -0.1988
  145SAPE  H10R15958   5.737   3.900   9.363 -2.2977  0.6747  0.6462
  145SAPE  H10S15959   5.859   4.010   9.430  0.2376  0.6154  0.0038
  145SAPE  C21115960   5.786   4.061   9.235  0.1956 -0.2565  0.6086
  145SAPE  H11R15961   5.841   4.156   9.229  1.1499 -0.8545 -0.2538
  145SAPE  C21215962   5.759   3.999   9.116  0.7069 -0.0900  0.5096
  145SAPE  H12R15963   5.793   4.054   9.026 -0.0108  1.6756  1.2591
  145SAPE  C21315964   5.697   3.870   9.069  0.0703 -0.5146  0.3712
  145SAPE  H13R15965   5.618   3.894   8.994 -0.5808 -2.2551  0.4590
  145SAPE  H13S15966   5.656   3.809   9.152 -0.1582 -2.4138 -1.0709
  145SAPE  C21415967   5.801   3.779   9.009  0.1052  0.2773  0.2553
  145SAPE  H14R15968   5.887   3.760   9.075 -0.4855 -2.0076  0.4583
  145SAPE  C21515969   5.792   3.707   8.897 -0.5576  0.1964 -0.6338
  145SAPE  H15R15970   5.880   3.650   8.863 -0.3594 -0.0932  0.3272
  145SAPE  C21615971   5.670   3.687   8.806 -0.6535 -0.6337 -0.4150
  145SAPE  H16R15972   5.625   3.785   8.782 -2.1725 -1.5249 -1.4053
  145SAPE  H16S15973   5.592   3.635   8.866  0.3468  1.0766  2.5583
  145SAPE  C21715974   5.705   3.599   8.688  0.3343 -0.3120  0.8331
  145SAPE  H17R15975   5.696   3.491   8.715 -2.5795 -0.4801 -0.4949
  145SAPE  H17S15976   5.805   3.627   8.647 -0.4132  1.3679  0.1047
  145SAPE  C21815977   5.620   3.622   8.569 -0.2987  0.2653 -0.5647
  145SAPE  H18R15978   5.642   3.725   8.533 -0.3114  0.0719 -1.1377
  145SAPE  H18S15979   5.517   3.621   8.610  0.3124 -0.8999  1.0368
  145SAPE  C21915980   5.645   3.522   8.450 -0.3779 -0.7237  0.3014
  145SAPE  H19R15981   5.752   3.532   8.419 -0.5003  1.7635  0.5024
  145SAPE  H19S15982   5.587   3.557   8.363  1.1165  1.8215  0.2074
  145SAPE  C22015983   5.593   3.381   8.490  0.5415  0.0032 -0.5464
  145SAPE  H20R15984   5.672   3.306   8.512  0.5784 -1.1849 -4.0516
  145SAPE  H20S15985   5.552   3.334   8.398  1.8395 -0.0354 -1.1205
  145SAPE  H20T15986   5.509   3.392   8.562  0.2810 -0.3416 -0.7945
  145SAPE   C3315987   5.907   3.447   9.788 -0.2353 -0.4783 -0.2995
  145SAPE   H3X15988   5.990   3.374   9.801 -1.2649 -1.2951  2.6237
  145SAPE   H3Y15989   5.966   3.541   9.792  1.2637 -1.4211  1.0504
  145SAPE   C3415990   5.824   3.442   9.665 -0.3926  0.0110  0.4322
  145SAPE   H4X15991   5.750   3.524   9.662 -2.2094 -1.4834  1.8990
  145SAPE   H4Y15992   5.767   3.347   9.657 -0.9235  0.3262  0.4256
  145SAPE   C3515993   5.912   3.437   9.538  0.5202  0.4949 -0.4314
  145SAPE   H5X15994   5.834   3.425   9.459  1.1017  1.9187 -1.2586
  145SAPE   H5Y15995   5.966   3.341   9.544  0.4000  0.4950  0.8088
  145SAPE   C3615996   6.003   3.553   9.503 -0.4244 -0.0477 -0.8510
  145SAPE   H6X15997   6.075   3.563   9.586 -0.0343 -0.7758 -1.0905
  145SAPE   H6Y15998   5.948   3.649   9.493  1.4033  1.5203  2.5801
  145SAPE   C3715999   6.104   3.535   9.382 -0.0445  0.8890 -0.1925
  145SAPE   H7X16000   6.178   3.457   9.410 -2.2671 -1.5341 -0.6837
  145SAPE   H7Y16001   6.156   3.632   9.367  1.7531  0.1124  0.7080
  145SAPE   C3816002   6.041   3.497   9.250  0.7835  0.4338  0.8399
  145SAPE   H8X16003   5.945   3.550   9.232  1.1861  0.7480 -0.4809
  145SAPE   H8Y16004   6.018   3.389   9.258  1.9509  0.2402  1.7586
  145SAPE   C3916005   6.141   3.509   9.124 -0.2739  0.3006 -0.2840
  145SAPE   H9X16006   6.243   3.475   9.152 -0.1715 -2.2065 -3.2363
  145SAPE   H9Y16007   6.156   3.618   9.110 -0.0762  0.1628 -1.1598
  145SAPE  C31016008   6.098   3.449   8.986 -0.3993 -0.5035  0.0343
  145SAPE  H10X16009   5.991   3.477   8.983 -0.1169  0.9818  1.8135
  145SAPE  H10Y16010   6.116   3.340   8.999  0.1179 -0.2397  1.7627
  145SAPE  C31116011   6.197   3.502   8.880  0.7831 -0.4697  0.7650
  145SAPE  H11X16012   6.299   3.487   8.921  1.2806  1.0720  0.1713
  145SAPE  H11Y16013   6.181   3.609   8.853  0.3133 -0.7152  0.0608
  145SAPE  C31216014   6.165   3.441   8.745 -0.4570  0.4856 -0.2120
  145SAPE  H12X16015   6.068   3.484   8.713 -1.0406  0.6105  1.5877
  145SAPE  H12Y16016   6.148   3.333   8.766 -0.1793  0.7360  1.4589
  145SAPE  C31316017   6.278   3.438   8.643  0.5075  0.0517  0.4019
  145SAPE  H13X16018   6.363   3.388   8.692 -1.0901 -0.8279  2.4224
  145SAPE  H13Y16019   6.294   3.545   8.615 -1.3515  0.6594  1.4604
  145SAPE  C31416020   6.232   3.370   8.512  0.4945  0.2983 -0.1814
  145SAPE  H14X16021   6.163   3.284   8.531  1.5981 -0.8692 -1.3195
  145SAPE  H14Y16022   6.319   3.340   8.451  1.4940 -0.5371  1.5715
  145SAPE  C31516023   6.149   3.476   8.437  0.4523  0.1023  0.5969
  145SAPE  H15X16024   6.210   3.568   8.425 -0.5449  0.6964 -0.0624
  145SAPE  H15Y16025   6.055   3.498   8.491  0.0425 -2.4527  1.0593
  145SAPE  C31616026   6.113   3.447   8.283  0.2774 -0.1143 -0.4490
  145SAPE  H16X16027   6.211   3.444   8.230 -0.6408  0.2708 -2.2349
  145SAPE  H16Y16028   6.054   3.523   8.228 -1.5747 -1.1443  0.0550
  145SAPE  C31716029   6.049   3.307   8.261  0.6111  0.0272 -0.1847
  145SAPE  H17X16030   6.103   3.229   8.318 -1.4282 -0.3033  1.4078
  145SAPE  H17Y16031   6.058   3.279   8.154 -0.1342 -1.8644  0.2058
  145SAPE  C31816032   5.904   3.289   8.283  0.4937 -0.1593 -0.3971
  145SAPE  H18X16033   5.870   3.281   8.388  0.8498  0.9069 -0.1945
  145SAPE  H18Y16034   5.885   3.184   8.251  2.3682 -0.7897  0.4572
  145SAPE  H18Z16035   5.838   3.365   8.236  0.6262 -0.2966 -0.8070
  146SAPE     N16036   5.783   5.680  10.795  0.5939  0.2602 -0.3212
  146SAPE   HN116037   5.743   5.776  10.795  1.4545  0.6318  0.1032
  146SAPE   HN216038   5.721   5.605  10.759  0.3247  0.4209 -0.2054
  146SAPE   HN316039   5.798   5.659  10.896  0.2070 -0.5593 -0.4312
  146SAPE   C1216040   5.907   5.672  10.715 -0.5311  0.7501 -0.0980
  146SAPE  H12A16041   5.934   5.564  10.719  0.0822  0.8696 -0.9167
  146SAPE  H12B16042   5.993   5.716  10.770 -0.5073  0.6782 -0.0763
  146SAPE   C1116043   5.871   5.729  10.574 -0.2465 -0.2585  0.1622
  146SAPE  H11A16044   5.783   5.680  10.527 -0.5506 -1.2626  1.7019
  146SAPE  H11B16045   5.955   5.708  10.504 -2.6783 -0.5780 -2.8543
  146SAPE     P16046   5.935   5.990  10.544 -0.0270  0.3529 -0.3077
  146SAPE   O1316047   5.920   6.090  10.648  0.0645 -0.0275 -0.3970
  146SAPE   O1416048   6.074   5.943  10.510  0.1860 -0.4325  0.1917
  146SAPE   O1216049   5.834   5.869  10.572  0.2717  0.1379 -0.1498
  146SAPE   O1116050   5.878   6.053  10.410  0.3763 -0.0077  0.1692
  146SAPE    C116051   5.757   6.003  10.341  0.1570 -0.2650  0.6802
  146SAPE    HA16052   5.688   5.946  10.407  0.1117  1.4352  2.1819
  146SAPE    HB16053   5.704   6.091  10.298  0.3156 -1.2622 -1.7363
  146SAPE    C216054   5.788   5.911  10.219 -0.2880 -0.3723 -0.0016
  146SAPE    HS16055   5.812   5.810  10.259 -0.3801 -0.2506  0.3604
  146SAPE   O2116056   5.901   5.967  10.146  0.2612 -0.0293  0.7476
  146SAPE   C2116057   5.976   5.886  10.079 -0.0181  0.6166  0.0497
  146SAPE   O2216058   5.969   5.764  10.085  0.1858 -0.0779 -0.0684
  146SAPE   C2216059   6.067   5.965   9.988  0.1392  0.2994 -0.3744
  146SAPE   H2R16060   6.046   6.072  10.012  1.1523  0.5390 -0.4870
  146SAPE   H2S16061   6.170   5.930  10.011  0.6271 -1.2878 -4.2413
  146SAPE    C316062   5.665   5.905  10.123  0.2891  0.1132  0.0198
  146SAPE    HX16063   5.646   6.012  10.104 -1.2259 -0.1621 -0.1155
  146SAPE    HY16064   5.579   5.870  10.185  1.0779 -0.0141  1.0765
  146SAPE   O3116065   5.690   5.826  10.007 -0.1594 -0.1723  0.1174
  146SAPE   C3116066   5.671   5.693  10.016 -0.4522 -0.1380  0.0695
  146SAPE   O3216067   5.648   5.632  10.114  0.2474  0.1643 -0.8075
  146SAPE   C3216068   5.678   5.639   9.871 -0.3070 -1.1105  0.9994
  146SAPE   H2X16069   5.784   5.629   9.839 -0.4063  1.0963 -0.2535
  146SAPE   H2Y16070   5.642   5.711   9.795  1.5455  0.7149  1.7437
  146SAPE   C2316071   6.033   5.935   9.837 -0.1766  0.3734 -0.7918
  146SAPE   H3R16072   5.936   5.974   9.800  0.9821  2.1370 -2.1245
  146SAPE   H3S16073   6.016   5.825   9.836 -2.1289  0.6516 -1.0657
  146SAPE   C2416074   6.146   5.958   9.728  0.0934  0.7666 -0.6593
  146SAPE   H4R16075   6.116   5.895   9.641 -2.4225 -0.9275  1.2961
  146SAPE   H4S16076   6.242   5.927   9.775 -0.1640 -0.2365 -0.7626
  146SAPE   C2516077   6.151   6.105   9.699  0.3016  0.6320 -0.6677
  146SAPE   H5R16078   6.164   6.169   9.787 -2.7642  1.2412 -0.5684
  146SAPE   C2616079   6.163   6.159   9.578  0.0336 -0.5542  0.3196
  146SAPE   H6R16080   6.173   6.269   9.577 -3.4824  0.0613  4.3982
  146SAPE   C2716081   6.152   6.103   9.436  0.0347 -0.9362 -0.5859
  146SAPE   H7R16082   6.044   6.087   9.416 -0.0805  1.1685 -2.0784
  146SAPE   H7S16083   6.208   6.008   9.423  0.4823 -0.8841  0.7957
  146SAPE   C2816084   6.199   6.194   9.330 -0.9079 -0.3741  0.1002
  146SAPE   H8R16085   6.296   6.240   9.353  0.0139  0.0783 -3.9702
  146SAPE   C2916086   6.145   6.230   9.212 -0.0561  0.6723  0.0935
  146SAPE   H9R16087   6.198   6.305   9.152  2.2934  0.2015  1.4580
  146SAPE  C21016088   6.016   6.168   9.173  0.2207  0.2106  1.3483
  146SAPE  H10R16089   5.927   6.193   9.235 -0.6629  1.5518 -0.3561
  146SAPE  H10S16090   6.025   6.058   9.163 -1.6460 -0.1992  3.5067
  146SAPE  C21116091   5.970   6.234   9.044 -0.1215 -0.8641  0.3452
  146SAPE  H11R16092   5.964   6.342   9.062 -1.0890 -0.4871 -1.8858
  146SAPE  C21216093   5.924   6.189   8.928  0.0511  0.6309  0.3374
  146SAPE  H12R16094   5.883   6.259   8.854 -1.2555  0.6889  1.0744
  146SAPE  C21316095   5.920   6.041   8.882  0.1670 -0.7978 -0.6886
  146SAPE  H13R16096   5.821   6.004   8.847  0.8939 -2.8042 -0.7311
  146SAPE  H13S16097   5.948   5.974   8.966  2.1498  1.5962  0.6694
  146SAPE  C21416098   6.025   6.012   8.785 -0.4680 -0.2300  0.1661
  146SAPE  H14R16099   6.127   6.034   8.819  0.2394 -0.3909 -1.7118
  146SAPE  C21516100   6.010   5.958   8.666  0.1843  0.6987  0.6352
  146SAPE  H15R16101   6.100   5.946   8.603 -0.0756 -0.8642  0.5316
  146SAPE  C21616102   5.878   5.937   8.593  0.3724 -0.1772 -0.9556
  146SAPE  H16R16103   5.877   5.982   8.492 -0.2797  0.0068 -0.8738
  146SAPE  H16S16104   5.796   5.974   8.659  1.7346 -0.4602  0.9909
  146SAPE  C21716105   5.852   5.780   8.577 -0.2332 -0.2157  0.6063
  146SAPE  H17R16106   5.937   5.739   8.518  1.2010 -0.2022  2.5641
  146SAPE  H17S16107   5.759   5.764   8.518 -1.2027 -1.2376  2.3250
  146SAPE  C21816108   5.822   5.699   8.706 -0.4600 -0.0327  0.3492
  146SAPE  H18R16109   5.739   5.747   8.763 -0.7148 -0.8626  0.6892
  146SAPE  H18S16110   5.919   5.697   8.759  0.5650  1.5285 -1.3284
  146SAPE  C21916111   5.769   5.555   8.669 -0.5100 -0.5522 -0.7397
  146SAPE  H19R16112   5.672   5.566   8.617 -0.1640  1.4999 -1.0335
  146SAPE  H19S16113   5.747   5.511   8.768  0.4689  1.3836  0.4164
  146SAPE  C22016114   5.862   5.471   8.582  0.2830 -0.2809 -0.1617
  146SAPE  H20R16115   5.812   5.379   8.544  0.8841 -0.0486 -1.5505
  146SAPE  H20S16116   5.953   5.440   8.638  1.3186 -1.3169 -2.3071
  146SAPE  H20T16117   5.889   5.535   8.496 -0.3290  0.1884 -0.0090
  146SAPE   C3316118   5.620   5.497   9.873  0.0868 -0.6492 -0.2407
  146SAPE   H3X16119   5.513   5.490   9.901  0.4360  1.3933  1.8677
  146SAPE   H3Y16120   5.672   5.427   9.940  0.6749 -0.7182 -0.7632
  146SAPE   C3416121   5.641   5.436   9.737 -0.5084 -0.8821  0.1348
  146SAPE   H4X16122   5.748   5.405   9.731  0.1007  1.1923 -0.6074
  146SAPE   H4Y16123   5.615   5.508   9.656 -1.5142  1.8163  2.6935
  146SAPE   C3516124   5.563   5.302   9.721  0.2700 -0.3118  0.1029
  146SAPE   H5X16125   5.458   5.314   9.754  0.3869  1.7450 -0.1366
  146SAPE   H5Y16126   5.588   5.225   9.797 -0.8564 -0.9802 -0.1756
  146SAPE   C3616127   5.577   5.245   9.579  0.1677 -0.3416 -0.2829
  146SAPE   H6X16128   5.505   5.161   9.567  3.4808 -3.2406 -1.6291
  146SAPE   H6Y16129   5.680   5.205   9.578 -0.3535 -1.8072  0.9143
  146SAPE   C3716130   5.560   5.344   9.460 -0.5219  0.1246  0.1219
  146SAPE   H7X16131   5.591   5.288   9.370 -0.2570  1.1035 -0.4117
  146SAPE   H7Y16132   5.630   5.430   9.465 -1.3420  0.7625  0.8976
  146SAPE   C3816133   5.416   5.406   9.462  0.4736  1.2281  0.3396
  146SAPE   H8X16134   5.409   5.488   9.387  0.2474  0.5427 -0.4033
  146SAPE   H8Y16135   5.398   5.458   9.559 -0.5888  3.0425 -0.7732
  146SAPE   C3916136   5.309   5.302   9.427 -0.0708 -0.3628 -0.2240
  146SAPE   H9X16137   5.295   5.216   9.497 -2.0573 -0.0812 -0.2232
  146SAPE   H9Y16138   5.358   5.261   9.336  0.4707 -0.4255  0.0915
  146SAPE  C31016139   5.167   5.339   9.378  0.2830 -0.7905 -0.5739
  146SAPE  H10X16140   5.160   5.440   9.331 -1.6013 -1.0326 -0.9059
  146SAPE  H10Y16141   5.108   5.350   9.472  1.0521  3.7869 -0.3890
  146SAPE  C31116142   5.103   5.244   9.282  0.5828  0.8296  0.0611
  146SAPE  H11X16143   5.180   5.203   9.213  1.6802 -1.2780  2.3588
  146SAPE  H11Y16144   5.024   5.301   9.229  0.3823  1.1408  0.6886
  146SAPE  C31216145   5.037   5.123   9.357  0.3621 -0.6184  0.0280
  146SAPE  H12X16146   5.107   5.052   9.406  2.1748  0.2079 -1.2767
  146SAPE  H12Y16147   4.996   5.063   9.274 -1.6873  0.0787  0.4659
  146SAPE  C31316148   4.917   5.163   9.454 -0.3116  0.4443 -0.1505
  146SAPE  H13X16149   4.839   5.207   9.389 -0.8884  3.2181  2.2113
  146SAPE  H13Y16150   4.933   5.244   9.528  1.3633 -0.7473  0.8794
  146SAPE  C31416151   4.871   5.035   9.512  0.3443 -0.2063 -0.4577
  146SAPE  H14X16152   4.949   4.971   9.558 -1.2257 -2.4586 -0.7564
  146SAPE  H14Y16153   4.832   4.980   9.423  1.9666 -0.9944 -0.7145
  146SAPE  C31516154   4.750   5.044   9.608 -1.0077  0.1751 -0.0720
  146SAPE  H15X16155   4.665   5.084   9.549  1.0178  3.6811 -0.8564
  146SAPE  H15Y16156   4.776   5.113   9.691  1.3405  0.2103 -0.7784
  146SAPE  C31616157   4.708   4.914   9.670  0.4338 -0.4734  0.1179
  146SAPE  H16X16158   4.785   4.842   9.703 -0.5492 -1.7976 -0.3692
  146SAPE  H16Y16159   4.648   4.859   9.594 -0.0949 -0.7611  0.7365
  146SAPE  C31716160   4.601   4.933   9.782 -0.8052 -0.6257 -0.0189
  146SAPE  H17X16161   4.543   5.025   9.760 -0.5556 -0.0391  1.6429
  146SAPE  H17Y16162   4.671   4.968   9.860 -0.4835  0.7975 -0.8989
  146SAPE  C31816163   4.515   4.814   9.827  0.1262  0.0305  0.5571
  146SAPE  H18X16164   4.419   4.860   9.858  0.1865 -0.0936  0.9310
  146SAPE  H18Y16165   4.546   4.769   9.924 -1.5751 -1.0747  0.6268
  146SAPE  H18Z16166   4.511   4.736   9.747  0.4153  1.0364 -0.4686
  147SAPE     N16167   6.540   6.606  10.569  0.5267  0.3829 -0.3134
  147SAPE   HN116168   6.566   6.538  10.494  2.9813  0.9677 -0.0900
  147SAPE   HN216169   6.587   6.587  10.659 -0.1338 -0.4154 -0.1309
  147SAPE   HN316170   6.440   6.588  10.589  0.8919 -1.0964  0.3308
  147SAPE   C1216171   6.562   6.749  10.525 -0.4196 -0.2635  0.0818
  147SAPE  H12A16172   6.519   6.816  10.602  0.7100 -1.7789  2.1437
  147SAPE  H12B16173   6.510   6.766  10.429  0.3436  1.4194 -0.0629
  147SAPE   C1116174   6.708   6.790  10.524  0.4557  0.3535  0.0629
  147SAPE  H11A16175   6.700   6.898  10.499 -1.4641  0.3832  0.6704
  147SAPE  H11B16176   6.760   6.732  10.444  0.9065 -2.7628  2.4061
  147SAPE     P16177   6.914   6.707  10.654  0.3306  0.2260 -0.0985
  147SAPE   O1316178   6.976   6.735  10.786  0.0879 -0.3419  0.2060
  147SAPE   O1416179   6.908   6.565  10.614 -0.1130  0.2533 -0.3647
  147SAPE   O1216180   6.768   6.767  10.651  0.1015 -0.3247  0.0776
  147SAPE   O1116181   6.997   6.792  10.544 -0.2382  1.1541  0.7965
  147SAPE    C116182   7.119   6.745  10.481 -0.0289  1.0210 -0.2709
  147SAPE    HA16183   7.209   6.806  10.501  0.5079  0.5567 -1.1685
  147SAPE    HB16184   7.147   6.638  10.498 -0.4967  0.6424 -1.6987
  147SAPE    C216185   7.101   6.749  10.323 -0.2118 -0.6685  0.8775
  147SAPE    HS16186   7.203   6.748  10.280 -0.4835  2.6647 -0.2000
  147SAPE   O2116187   7.043   6.872  10.281 -0.8248  0.2561  0.3906
  147SAPE   C2116188   7.124   6.977  10.286  0.3436 -0.3038  0.3230
  147SAPE   O2216189   7.246   6.975  10.305 -0.5052 -0.2962  0.0390
  147SAPE   C2216190   7.038   7.093  10.247 -0.1245  0.0188 -0.1460
  147SAPE   H2R16191   6.933   7.059  10.243  0.4065 -1.6462 -0.5759
  147SAPE   H2S16192   7.032   7.161  10.335  2.8387 -0.5652  0.6227
  147SAPE    C316193   7.018   6.630  10.265 -0.0505  0.9729 -0.4578
  147SAPE    HX16194   6.927   6.633  10.329  2.0243  0.8470  2.6876
  147SAPE    HY16195   7.054   6.529  10.291 -2.1222  0.5662  1.1204
  147SAPE   O3116196   6.981   6.646  10.128 -0.1724  0.0973  0.4930
  147SAPE   C3116197   7.080   6.656  10.031 -0.1834 -0.2806  0.1988
  147SAPE   O3216198   7.200   6.640  10.052 -0.5279 -0.4995 -0.7080
  147SAPE   C3216199   7.013   6.681   9.895 -0.0643 -0.6042  0.2471
  147SAPE   H2X16200   6.950   6.771   9.909  1.7239  0.7677 -0.1753
  147SAPE   H2Y16201   6.950   6.595   9.865 -1.4695 -0.1339  1.7242
  147SAPE   C2316202   7.072   7.171  10.118  0.4972 -0.0600  0.2977
  147SAPE   H3R16203   7.073   7.096  10.037  0.1180 -1.4234  1.5179
  147SAPE   H3S16204   7.174   7.216  10.120  0.3368  0.3931  3.2774
  147SAPE   C2416205   6.978   7.292  10.089  0.2125  0.5524  0.1475
  147SAPE   H4R16206   6.956   7.348  10.182 -0.2586  0.3444  0.1676
  147SAPE   H4S16207   6.873   7.258  10.074 -0.6510  2.7684  0.7794
  147SAPE   C2516208   7.034   7.370   9.972 -0.6006  0.4140 -0.7304
  147SAPE   H5R16209   7.132   7.412   9.998 -0.5190 -1.3741  2.3453
  147SAPE   C2616210   6.972   7.393   9.855 -0.2689  0.2437  0.5325
  147SAPE   H6R16211   7.028   7.449   9.778  2.0591 -0.0294  1.9204
  147SAPE   C2716212   6.834   7.345   9.811 -0.0498 -0.3180 -0.7177
  147SAPE   H7R16213   6.761   7.427   9.828 -1.0168 -1.2115 -0.4006
  147SAPE   H7S16214   6.788   7.260   9.866  1.8693 -0.6431  0.4659
  147SAPE   C2816215   6.836   7.288   9.666  0.1539  0.3213 -0.0169
  147SAPE   H8R16216   6.847   7.178   9.665 -2.6678 -0.0125 -0.5841
  147SAPE   C2916217   6.834   7.354   9.549  0.4623 -0.0611  0.5032
  147SAPE   H9R16218   6.840   7.290   9.459  0.6720  1.9679 -1.0155
  147SAPE  C21016219   6.819   7.507   9.541 -0.0393  0.9366  0.2881
  147SAPE  H10R16220   6.783   7.556   9.634  2.7067  1.6098  1.0936
  147SAPE  H10S16221   6.738   7.533   9.469 -1.6338 -0.7121  1.4135
  147SAPE  C21116222   6.949   7.574   9.486  0.3653  0.0713 -0.0078
  147SAPE  H11R16223   7.032   7.572   9.559  0.7129  1.4419 -0.3329
  147SAPE  C21216224   6.968   7.631   9.370  0.0397  0.2372  0.5178
  147SAPE  H12R16225   7.071   7.662   9.346  0.6767 -0.5371  2.1170
  147SAPE  C21316226   6.866   7.665   9.261  0.1685  0.4643 -0.3937
  147SAPE  H13R16227   6.878   7.771   9.231 -2.8751  0.4037 -2.3025
  147SAPE  H13S16228   6.767   7.669   9.312 -0.1158 -3.0736 -0.4083
  147SAPE  C21416229   6.890   7.556   9.161  0.1875  1.0268  0.5398
  147SAPE  H14R16230   6.928   7.461   9.201  0.2155  0.7936 -0.0323
  147SAPE  C21516231   6.882   7.567   9.026  0.1691 -0.1533 -0.0882
  147SAPE  H15R16232   6.910   7.483   8.961 -0.1777 -0.9416  0.7546
  147SAPE  C21616233   6.840   7.694   8.954  0.3747  0.3909 -0.1662
  147SAPE  H16R16234   6.788   7.773   9.012  1.1374  0.7261  0.0861
  147SAPE  H16S16235   6.772   7.669   8.871  2.0664 -1.6397 -1.0455
  147SAPE  C21716236   6.965   7.745   8.895 -0.6315 -0.3943  0.0052
  147SAPE  H17R16237   7.050   7.678   8.873 -0.6759 -0.4768  0.0836
  147SAPE  H17S16238   7.004   7.817   8.971  0.8966 -1.0432 -0.1405
  147SAPE  C21816239   6.952   7.822   8.759  0.5519  0.9241  0.1056
  147SAPE  H18R16240   7.045   7.878   8.737  1.0257  0.1982  0.2293
  147SAPE  H18S16241   6.866   7.892   8.765 -0.2842 -0.0597 -0.2485
  147SAPE  C21916242   6.939   7.725   8.647  0.1403  0.0399  0.0698
  147SAPE  H19R16243   6.930   7.772   8.546  0.7472 -2.4755 -1.2397
  147SAPE  H19S16244   6.845   7.671   8.669 -0.7517  1.5747  0.1439
  147SAPE  C22016245   7.051   7.625   8.615  1.2132 -0.4484 -0.0482
  147SAPE  H20R16246   7.033   7.569   8.521 -0.7597 -0.2807  0.1821
  147SAPE  H20S16247   7.076   7.551   8.694 -0.0573 -0.2626  0.5544
  147SAPE  H20T16248   7.144   7.682   8.593  0.4131  0.6585 -0.7046
  147SAPE   C3316249   7.125   6.700   9.788 -0.2086  1.0189 -0.1142
  147SAPE   H3X16250   7.209   6.629   9.796  1.5000  2.9665 -0.0481
  147SAPE   H3Y16251   7.167   6.801   9.806  2.4920 -0.2075  1.0334
  147SAPE   C3416252   7.077   6.698   9.643 -0.3723 -0.3740 -0.7007
  147SAPE   H4X16253   6.995   6.772   9.629 -0.4599 -0.7413 -2.4040
  147SAPE   H4Y16254   7.031   6.598   9.627 -2.0669  0.4128 -0.9857
  147SAPE   C3516255   7.178   6.722   9.542 -0.0003  0.2616 -0.0369
  147SAPE   H5X16256   7.247   6.635   9.540  1.3682  1.3330 -2.2887
  147SAPE   H5Y16257   7.254   6.803   9.547  0.1283  0.3556 -2.4240
  147SAPE   C3616258   7.113   6.736   9.404 -0.0819 -0.6275  0.0891
  147SAPE   H6X16259   7.062   6.835   9.402 -0.6934 -0.9486 -2.2582
  147SAPE   H6Y16260   7.043   6.656   9.374 -2.2280  0.1903  2.5481
  147SAPE   C3716261   7.220   6.753   9.295  0.2292  0.4011 -0.0866
  147SAPE   H7X16262   7.287   6.665   9.287  3.0018  2.4630 -1.5286
  147SAPE   H7Y16263   7.295   6.831   9.324  0.8202 -1.0043  2.4748
  147SAPE   C3816264   7.156   6.790   9.168  0.0772 -0.4466  0.2123
  147SAPE   H8X16265   7.242   6.821   9.106 -1.5099 -1.5392 -2.7246
  147SAPE   H8Y16266   7.091   6.878   9.184  0.5234 -0.4573  2.3758
  147SAPE   C3916267   7.094   6.678   9.095 -0.4682 -0.6307 -0.2717
  147SAPE   H9X16268   6.993   6.669   9.140 -0.8682  2.6842 -0.3012
  147SAPE   H9Y16269   7.152   6.587   9.123  2.1907  0.2003 -2.7045
  147SAPE  C31016270   7.073   6.717   8.948 -0.3568 -0.2455  0.0582
  147SAPE  H10X16271   7.172   6.749   8.909  0.0059 -0.0582  1.0936
  147SAPE  H10Y16272   7.021   6.815   8.941  1.4842  0.8677  1.2333
  147SAPE  C31116273   7.012   6.606   8.857  0.0959 -0.0115 -0.3339
  147SAPE  H11X16274   7.014   6.640   8.751 -0.5063 -0.0367 -0.3594
  147SAPE  H11Y16275   6.902   6.597   8.873 -0.0305 -0.0115 -1.1641
  147SAPE  C31216276   7.087   6.470   8.851  0.3865  0.4578  0.4258
  147SAPE  H12X16277   7.098   6.435   8.956  0.5934  1.0817  0.6230
  147SAPE  H12Y16278   7.192   6.490   8.821  1.4190 -0.6629  2.9509
  147SAPE  C31316279   6.997   6.369   8.775  0.0444  0.2581  0.3485
  147SAPE  H13X16280   6.988   6.397   8.668  0.5393 -1.8981 -0.3135
  147SAPE  H13Y16281   6.896   6.379   8.821 -1.0802  2.7665 -2.3883
  147SAPE  C31416282   7.061   6.235   8.772  0.3568 -0.0463  0.5204
  147SAPE  H14X16283   7.097   6.203   8.872  0.7695 -0.1992  0.3216
  147SAPE  H14Y16284   7.155   6.238   8.713  1.9874 -2.2276  2.7636
  147SAPE  C31516285   6.971   6.115   8.736  0.0577 -0.0738 -0.8143
  147SAPE  H15X16286   6.880   6.122   8.799 -0.0705 -3.0368 -0.5301
  147SAPE  H15Y16287   7.024   6.021   8.764  1.5327  1.3729  1.5827
  147SAPE  C31616288   6.937   6.134   8.590 -0.3280  0.2403  0.1533
  147SAPE  H16X16289   7.031   6.115   8.534  0.9032  1.1434  1.8103
  147SAPE  H16Y16290   6.888   6.231   8.568 -0.5685  0.2774  0.8499
  147SAPE  C31716291   6.830   6.036   8.544  0.4553  1.0983  0.1413
  147SAPE  H17X16292   6.736   6.074   8.588 -0.1949 -0.0152 -0.2489
  147SAPE  H17Y16293   6.860   5.941   8.594  1.9563  1.9876  1.0138
  147SAPE  C31816294   6.816   6.019   8.394  0.1961 -0.3062 -0.2484
  147SAPE  H18X16295   6.729   5.952   8.374  0.2731 -1.1473  1.9454
  147SAPE  H18Y16296   6.910   5.968   8.363  0.5489 -0.2650  0.7001
  147SAPE  H18Z16297   6.821   6.111   8.333  1.5272 -0.8872 -1.0505
  148SAPE     N16298   0.737   3.983  10.796  0.0288 -0.6370 -0.0154
  148SAPE   HN116299   0.827   4.024  10.762 -0.2561  0.6344  0.6808
  148SAPE   HN216300   0.678   4.062  10.830  1.2659 -0.6920  2.4821
  148SAPE   HN316301   0.752   3.916  10.874 -2.1234 -0.6719  0.4216
  148SAPE   C1216302   0.677   3.926  10.667 -0.2444 -0.5121  0.5224
  148SAPE  H12A16303   0.685   3.991  10.578  1.0187 -2.9592 -1.2556
  148SAPE  H12B16304   0.570   3.927  10.698 -0.1104 -2.4723  1.1874
  148SAPE   C1116305   0.732   3.791  10.619 -0.5709  0.4173 -0.5072
  148SAPE  H11A16306   0.649   3.746  10.559 -0.3212 -1.1813  0.2872
  148SAPE  H11B16307   0.751   3.719  10.701 -1.3276  1.0669  0.2486
  148SAPE     P16308   0.844   3.818  10.379  0.2909 -0.1256 -0.1532
  148SAPE   O1316309   0.799   3.952  10.338 -0.4424 -0.4107 -0.6092
  148SAPE   O1416310   0.979   3.770  10.336  0.5852 -0.2212 -0.1464
  148SAPE   O1216311   0.842   3.814  10.541  0.1770 -0.3640  0.3925
  148SAPE   O1116312   0.737   3.710  10.336 -0.2471  0.4094  0.2260
  148SAPE    C116313   0.740   3.571  10.379  0.0142 -1.0873  0.5314
  148SAPE    HA16314   0.789   3.560  10.478 -0.3287  0.6551  0.9246
  148SAPE    HB16315   0.635   3.537  10.392 -0.6434  0.5911 -0.0977
  148SAPE    C216316   0.807   3.471  10.274  0.6583  0.3755 -0.2813
  148SAPE    HS16317   0.905   3.515  10.246  1.4537 -0.5366  0.9418
  148SAPE   O2116318   0.711   3.468  10.166 -0.0279 -0.0499 -0.4370
  148SAPE   C2116319   0.766   3.471  10.045  1.0750 -0.6183 -0.7539
  148SAPE   O2216320   0.881   3.472  10.014 -0.3521 -0.1316 -0.6943
  148SAPE   C2216321   0.646   3.474   9.948  0.2109 -0.3124 -0.4111
  148SAPE   H2R16322   0.555   3.455  10.008 -0.1530  1.7276 -0.2249
  148SAPE   H2S16323   0.641   3.581   9.916 -1.0770 -0.8391 -2.1204
  148SAPE    C316324   0.837   3.331  10.337 -0.0338 -0.7153 -0.3777
  148SAPE    HX16325   0.744   3.287  10.380 -0.5128  2.6364  2.4995
  148SAPE    HY16326   0.898   3.350  10.428 -0.2235  0.4317 -0.4799
  148SAPE   O3116327   0.887   3.229  10.250 -0.2733 -0.0630 -0.1284
  148SAPE   C3116328   1.019   3.258  10.222 -0.0557  0.1747  0.1853
  148SAPE   O3216329   1.081   3.344  10.271 -0.1415 -0.2841  0.2496
  148SAPE   C3216330   1.070   3.152  10.134  0.3151  0.5921 -0.4383
  148SAPE   H2X16331   1.032   3.056  10.175 -1.3716  1.8738  1.1937
  148SAPE   H2Y16332   1.181   3.162  10.139  0.5005  0.7787 -3.2570
  148SAPE   C2316333   0.669   3.385   9.829 -0.0579  0.4396 -0.1388
  148SAPE   H3R16334   0.699   3.287   9.874  1.3171  0.6435 -0.5772
  148SAPE   H3S16335   0.752   3.422   9.765 -0.3959 -0.3541 -1.0544
  148SAPE   C2416336   0.538   3.357   9.757  0.3299  0.7458  0.0816
  148SAPE   H4R16337   0.508   3.456   9.716  1.6579  0.8359 -0.7180
  148SAPE   H4S16338   0.455   3.324   9.823 -2.0038  3.4967 -1.2287
  148SAPE   C2516339   0.555   3.243   9.657  0.4814 -0.6897 -0.0702
  148SAPE   H5R16340   0.549   3.143   9.704 -2.2785  0.3298  1.9982
  148SAPE   C2616341   0.564   3.244   9.525  0.1034 -0.0278  0.6537
  148SAPE   H6R16342   0.603   3.155   9.473 -0.2146 -1.0582  2.0804
  148SAPE   C2716343   0.567   3.370   9.446 -0.6438 -0.1406  0.0122
  148SAPE   H7R16344   0.656   3.367   9.380 -0.8048 -0.8590 -0.1833
  148SAPE   H7S16345   0.573   3.464   9.504 -0.5293 -0.4551  0.5209
  148SAPE   C2816346   0.451   3.382   9.359 -0.1054  0.0225  0.0397
  148SAPE   H8R16347   0.363   3.370   9.424  1.6623  0.1112  2.5534
  148SAPE   C2916348   0.440   3.396   9.227  0.7085  0.7266  0.0740
  148SAPE   H9R16349   0.337   3.398   9.187  0.9475  0.6170 -0.5506
  148SAPE  C21016350   0.564   3.410   9.136 -0.3226 -0.5703  0.2044
  148SAPE  H10R16351   0.640   3.464   9.195 -1.1084 -0.7237  1.3853
  148SAPE  H10S16352   0.550   3.480   9.050  1.4435  1.6260  1.5955
  148SAPE  C21116353   0.611   3.273   9.090 -0.4016 -0.8436  0.2295
  148SAPE  H11R16354   0.666   3.221   9.170 -0.0297 -0.1018  0.4678
  148SAPE  C21216355   0.599   3.216   8.969  0.0498  0.2548  0.1874
  148SAPE  H12R16356   0.649   3.125   8.933 -0.3467  1.5005 -4.1345
  148SAPE  C21316357   0.528   3.271   8.842  0.2626  0.0982  0.4983
  148SAPE  H13R16358   0.602   3.328   8.782  0.8543  0.7398  1.7843
  148SAPE  H13S16359   0.453   3.349   8.866 -2.2323 -1.2228 -2.3906
  148SAPE  C21416360   0.471   3.164   8.756  0.0173 -0.6605 -0.8024
  148SAPE  H14R16361   0.443   3.073   8.810 -3.4681  1.7413  1.8939
  148SAPE  C21516362   0.432   3.187   8.628  0.8666 -1.0052 -0.5275
  148SAPE  H15R16363   0.373   3.113   8.572  1.3520 -0.3230 -1.9842
  148SAPE  C21616364   0.452   3.318   8.557  0.2825 -0.3407  0.2976
  148SAPE  H16R16365   0.458   3.401   8.632 -2.9121 -0.9292  1.3566
  148SAPE  H16S16366   0.358   3.343   8.503  0.4245 -0.4468  0.0046
  148SAPE  C21716367   0.571   3.318   8.465  0.3698  0.0830 -0.2734
  148SAPE  H17R16368   0.667   3.314   8.522 -0.1345  0.6068  0.6399
  148SAPE  H17S16369   0.578   3.414   8.409  0.9051  1.5649  2.1580
  148SAPE  C21816370   0.572   3.192   8.373 -0.3198 -0.1247 -0.2652
  148SAPE  H18R16371   0.467   3.161   8.358 -0.2667 -0.9183  0.8388
  148SAPE  H18S16372   0.607   3.102   8.429 -3.7173 -2.2276 -1.2293
  148SAPE  C21916373   0.639   3.216   8.239 -0.2923 -0.3044  0.4057
  148SAPE  H19R16374   0.738   3.264   8.259  0.3059  0.2175 -3.2028
  148SAPE  H19S16375   0.579   3.276   8.168 -0.3557 -0.3438  0.4270
  148SAPE  C22016376   0.679   3.089   8.155  0.0297 -0.3741  0.4486
  148SAPE  H20R16377   0.727   3.013   8.221 -0.2876  1.2789  2.7142
  148SAPE  H20S16378   0.745   3.121   8.072  0.4461 -0.1160  0.8699
  148SAPE  H20T16379   0.585   3.039   8.123  1.2081 -3.2404  1.1342
  148SAPE   C3316380   1.012   3.168   9.995  0.1781 -0.6669 -0.4782
  148SAPE   H3X16381   1.036   3.265   9.948 -1.4919  0.2147  0.4082
  148SAPE   H3Y16382   0.902   3.149   9.991 -0.4125  2.2327 -0.1235
  148SAPE   C3416383   1.075   3.060   9.902  0.1758 -0.1237  0.0270
  148SAPE   H4X16384   1.038   2.961   9.933  1.1850 -0.5047  0.0416
  148SAPE   H4Y16385   1.184   3.053   9.923  0.0281 -1.4723  0.4225
  148SAPE   C3516386   1.060   3.085   9.755  0.3447  0.7795 -0.2102
  148SAPE   H5X16387   0.951   3.104   9.742  0.3899 -0.2894 -2.5452
  148SAPE   H5Y16388   1.091   2.993   9.703 -2.6728 -0.0163 -0.8148
  148SAPE   C3616389   1.137   3.202   9.693 -0.7228  0.2566  0.1007
  148SAPE   H6X16390   1.245   3.199   9.717 -0.7416 -0.3282  0.1081
  148SAPE   H6Y16391   1.103   3.303   9.728 -1.4966  0.2201 -0.5144
  148SAPE   C3716392   1.105   3.206   9.535 -0.1822 -0.3335 -0.4306
  148SAPE   H7X16393   1.148   3.115   9.488  0.5771  0.3310 -1.0664
  148SAPE   H7Y16394   1.163   3.293   9.496  0.1954 -0.8775 -1.0972
  148SAPE   C3816395   0.961   3.226   9.489 -0.2357  0.0503  0.3357
  148SAPE   H8X16396   0.932   3.332   9.506  0.6872  0.4390 -0.4346
  148SAPE   H8Y16397   0.897   3.165   9.557  1.5508 -0.7466  1.3793
  148SAPE   C3916398   0.956   3.177   9.340 -0.3900  0.2381  0.1827
  148SAPE   H9X16399   0.852   3.150   9.312 -0.1746 -0.3249 -0.0912
  148SAPE   H9Y16400   1.006   3.077   9.337 -1.0089 -0.0469 -1.0944
  148SAPE  C31016401   1.026   3.284   9.253  0.0982 -0.3819  0.0834
  148SAPE  H10X16402   1.134   3.268   9.275  0.1384  0.3164  0.4382
  148SAPE  H10Y16403   0.996   3.385   9.288 -1.7551 -1.3401  1.4599
  148SAPE  C31116404   1.020   3.285   9.103  0.2467 -0.0651  0.6899
  148SAPE  H11X16405   0.920   3.314   9.065  1.4089  1.4575 -1.4797
  148SAPE  H11Y16406   1.040   3.185   9.058  2.4822  1.0063 -0.9601
  148SAPE  C31216407   1.114   3.386   9.031  0.7694 -0.1099  0.7570
  148SAPE  H12X16408   1.216   3.342   9.035  0.2464 -1.3434  1.1479
  148SAPE  H12Y16409   1.113   3.475   9.097 -0.4346 -0.6793  1.5416
  148SAPE  C31316410   1.066   3.432   8.887 -0.5650 -0.6512  0.0252
  148SAPE  H13X16411   1.148   3.495   8.846 -1.6222  1.5000  1.0363
  148SAPE  H13Y16412   0.982   3.504   8.896  1.4999  2.0841 -1.2507
  148SAPE  C31416413   1.035   3.312   8.796 -0.2464  0.3785 -0.2305
  148SAPE  H14X16414   0.946   3.264   8.843  0.5340  0.0377  0.9322
  148SAPE  H14Y16415   1.116   3.236   8.798  1.7312  2.4189  1.3331
  148SAPE  C31516416   1.017   3.354   8.649  0.4603 -0.7836 -0.6969
  148SAPE  H15X16417   1.089   3.434   8.624 -0.6673  0.6296  0.4105
  148SAPE  H15Y16418   0.913   3.394   8.643  0.8870  1.8395  4.4495
  148SAPE  C31616419   1.039   3.242   8.550  0.3110 -0.4995  0.4323
  148SAPE  H16X16420   0.963   3.166   8.577  0.2962  0.2111  2.6270
  148SAPE  H16Y16421   1.138   3.192   8.556  1.9722  2.5117  0.3951
  148SAPE  C31716422   1.020   3.304   8.406  0.6639 -0.6107 -0.3706
  148SAPE  H17X16423   1.101   3.379   8.393 -1.2188  1.1628 -3.0867
  148SAPE  H17Y16424   0.925   3.361   8.405  2.2884  2.2763 -0.6878
  148SAPE  C31816425   1.036   3.201   8.297 -0.1415  0.2660 -0.2226
  148SAPE  H18X16426   1.130   3.144   8.312  0.1916  1.1542  1.2637
  148SAPE  H18Y16427   1.034   3.259   8.203  1.2948 -1.0926 -1.1477
  148SAPE  H18Z16428   0.947   3.135   8.294  1.0041 -1.3514  0.1077
  149SAPE     N16429   3.572   4.494  10.449 -0.7072 -0.0297  0.0835
  149SAPE   HN116430   3.469   4.502  10.457 -0.7427  0.7210 -0.8779
  149SAPE   HN216431   3.619   4.579  10.487  1.1740 -0.4600 -1.1493
  149SAPE   HN316432   3.604   4.498  10.350 -0.4148 -0.0582  0.1761
  149SAPE   C1216433   3.622   4.378  10.527 -0.5539 -0.6369  0.1925
  149SAPE  H12A16434   3.568   4.374  10.624 -1.9054 -0.0854 -0.5049
  149SAPE  H12B16435   3.730   4.397  10.545 -0.8743  2.0945 -0.2818
  149SAPE   C1116436   3.594   4.239  10.465  0.8514  0.1552 -0.6549
  149SAPE  H11A16437   3.640   4.222  10.365 -1.3578 -0.3480 -1.6456
  149SAPE  H11B16438   3.488   4.230  10.435  0.9253  0.0948 -0.9027
  149SAPE     P16439   3.741   4.050  10.562 -0.1425  0.0943  0.1858
  149SAPE   O1316440   3.846   4.133  10.624  0.1441  0.1277  0.1086
  149SAPE   O1416441   3.718   3.916  10.617  0.5628  0.2004 -0.3436
  149SAPE   O1216442   3.609   4.136  10.562  0.1657  0.2314 -0.4800
  149SAPE   O1116443   3.782   4.027  10.408 -0.3168 -0.2847 -0.1030
  149SAPE    C116444   3.699   3.946  10.317 -0.1513  0.2893 -0.2257
  149SAPE    HA16445   3.712   3.840  10.349  2.6942  0.6811  0.1377
  149SAPE    HB16446   3.593   3.972  10.340  0.0529  0.0091  1.1484
  149SAPE    C216447   3.732   3.958  10.165 -0.8097  0.2028 -0.7987
  149SAPE    HS16448   3.817   3.890  10.143 -0.8667 -0.1822  0.1046
  149SAPE   O2116449   3.750   4.098  10.133  0.1811 -0.8073 -0.3468
  149SAPE   C2116450   3.866   4.128  10.077  0.1882  0.2333 -0.2454
  149SAPE   O2216451   3.969   4.061  10.080 -0.1340  0.5321 -0.1979
  149SAPE   C2216452   3.861   4.254   9.996 -0.1605 -0.0194  0.2829
  149SAPE   H2R16453   3.846   4.233   9.888  0.5018  1.2394 -0.0751
  149SAPE   H2S16454   3.777   4.317  10.031  0.6598  0.2142  1.9013
  149SAPE    C316455   3.620   3.903  10.078  0.7148 -0.1108 -0.5811
  149SAPE    HX16456   3.539   3.978  10.087  1.8939  1.0498  1.1358
  149SAPE    HY16457   3.586   3.815  10.137  2.8285 -0.2793  0.4796
  149SAPE   O3116458   3.642   3.872   9.941  0.0565 -0.1357  0.2878
  149SAPE   C3116459   3.534   3.874   9.859  0.8893  0.6236 -0.5178
  149SAPE   O3216460   3.424   3.917   9.893 -0.3917 -0.5402 -0.2204
  149SAPE   C3216461   3.559   3.813   9.730  0.7242 -0.7054  0.2824
  149SAPE   H2X16462   3.492   3.726   9.717  0.9000 -0.5528 -2.0746
  149SAPE   H2Y16463   3.664   3.779   9.740  0.4649 -1.2935  1.1350
  149SAPE   C2316464   3.987   4.340  10.015 -0.4634  0.1414  0.1537
  149SAPE   H3R16465   4.077   4.284   9.982 -1.3578 -0.5937 -1.1232
  149SAPE   H3S16466   3.997   4.366  10.123  2.6062  0.3109 -0.0933
  149SAPE   C2416467   3.989   4.476   9.931  0.3092  0.2969  0.6771
  149SAPE   H4R16468   3.894   4.528   9.954 -0.1158 -0.9783  1.9767
  149SAPE   H4S16469   3.975   4.465   9.821 -0.2539  1.9169  0.5637
  149SAPE   C2516470   4.109   4.557   9.968 -0.0136  1.1055 -0.1786
  149SAPE   H5R16471   4.121   4.550  10.077 -0.7540 -3.5167 -0.2149
  149SAPE   C2616472   4.185   4.631   9.886  0.6644  0.0825 -0.3081
  149SAPE   H6R16473   4.275   4.686   9.918  0.9460 -0.3429 -0.3617
  149SAPE   C2716474   4.163   4.644   9.735  0.6545 -0.2427  0.3162
  149SAPE   H7R16475   4.175   4.754   9.719 -0.0877  0.4376  3.6731
  149SAPE   H7S16476   4.057   4.623   9.710  0.5948 -1.2206  1.3269
  149SAPE   C2816477   4.268   4.571   9.652  0.1427  0.6535  0.1802
  149SAPE   H8R16478   4.366   4.583   9.699 -0.9030 -0.7916  3.0151
  149SAPE   C2916479   4.245   4.493   9.548  0.0913 -0.0703  0.2686
  149SAPE   H9R16480   4.330   4.442   9.501 -0.0204  1.6322 -1.9165
  149SAPE  C21016481   4.102   4.463   9.489 -0.3723 -0.3186 -0.0251
  149SAPE  H10R16482   4.051   4.561   9.496  0.0515  0.2325 -3.1273
  149SAPE  H10S16483   4.051   4.382   9.545 -0.7845  1.1799  1.8689
  149SAPE  C21116484   4.097   4.433   9.339  0.6707 -0.2069 -0.6652
  149SAPE  H11R16485   4.063   4.330   9.317 -0.4528  0.2020 -0.9179
  149SAPE  C21216486   4.146   4.505   9.242 -0.4911 -0.3698  0.4755
  149SAPE  H12R16487   4.160   4.466   9.140  1.1898  2.7275 -0.6107
  149SAPE  C21316488   4.218   4.637   9.252  0.2481 -0.5114  0.4652
  149SAPE  H13R16489   4.238   4.667   9.357  0.7180  0.1462  0.1922
  149SAPE  H13S16490   4.155   4.719   9.212  0.5327  0.0153  1.0828
  149SAPE  C21416491   4.349   4.638   9.175  0.0271  0.5650 -0.3948
  149SAPE  H14R16492   4.438   4.614   9.235  0.0845  0.6926 -0.4292
  149SAPE  C21516493   4.363   4.675   9.047  1.0851  0.0271  0.0353
  149SAPE  H15R16494   4.463   4.701   9.010  0.8977 -0.4716 -0.8443
  149SAPE  C21616495   4.256   4.716   8.945  0.0180 -0.2504 -0.8284
  149SAPE  H16R16496   4.165   4.734   9.006  0.7636 -2.3726  1.0601
  149SAPE  H16S16497   4.228   4.632   8.878  2.0531 -3.1382  1.6212
  149SAPE  C21716498   4.292   4.847   8.861  0.0069  0.8047 -1.0005
  149SAPE  H17R16499   4.301   4.945   8.912 -0.8428  0.8590 -0.9401
  149SAPE  H17S16500   4.207   4.849   8.790  0.6631 -0.2009 -1.8539
  149SAPE  C21816501   4.420   4.831   8.773  1.3202 -1.0337 -0.3702
  149SAPE  H18R16502   4.444   4.724   8.755  1.6800 -0.9123 -0.6347
  149SAPE  H18S16503   4.501   4.889   8.822 -0.9917  4.0746 -1.8483
  149SAPE  C21916504   4.419   4.911   8.643 -0.3687  0.0766 -0.4078
  149SAPE  H19R16505   4.423   5.020   8.663 -0.1552  0.0551 -0.3320
  149SAPE  H19S16506   4.327   4.887   8.586 -0.8627  0.3706  0.2519
  149SAPE  C22016507   4.546   4.869   8.562  0.3045 -0.1478 -0.0278
  149SAPE  H20R16508   4.523   4.778   8.501 -2.2151  0.7946 -0.6047
  149SAPE  H20S16509   4.630   4.850   8.632 -1.0246  0.2144  1.7347
  149SAPE  H20T16510   4.574   4.945   8.486  0.2121 -0.1671 -0.0820
  149SAPE   C3316511   3.536   3.914   9.614 -0.5356 -0.1583 -0.6282
  149SAPE   H3X16512   3.610   3.996   9.624  0.9788 -1.7105  2.6149
  149SAPE   H3Y16513   3.432   3.952   9.613 -0.2197  0.7262 -1.6102
  149SAPE   C3416514   3.569   3.858   9.475  0.3239 -0.0075 -0.1188
  149SAPE   H4X16515   3.493   3.779   9.453  0.1392  0.0894  0.1685
  149SAPE   H4Y16516   3.663   3.798   9.474  1.2427  1.3883  0.3000
  149SAPE   C3516517   3.576   3.961   9.367  0.4126  0.7019 -0.7410
  149SAPE   H5X16518   3.652   4.034   9.402  0.4352 -0.0129  0.7784
  149SAPE   H5Y16519   3.486   4.027   9.370 -0.2017 -0.1038  1.7446
  149SAPE   C3616520   3.610   3.911   9.225  0.3868 -0.0988 -0.8815
  149SAPE   H6X16521   3.540   3.826   9.208 -0.9676  0.6448  0.7521
  149SAPE   H6Y16522   3.716   3.877   9.224  1.0471  1.7455 -3.4829
  149SAPE   C3716523   3.603   4.021   9.123  1.3399 -0.0438 -0.2371
  149SAPE   H7X16524   3.676   4.103   9.143  1.3825  0.1819 -1.2748
  149SAPE   H7Y16525   3.498   4.056   9.111  1.7493  1.7406  1.0162
  149SAPE   C3816526   3.645   3.974   8.983  0.7567 -0.3364  0.7011
  149SAPE   H8X16527   3.586   3.889   8.944  3.1870 -1.2952 -1.1574
  149SAPE   H8Y16528   3.754   3.950   8.982  0.9799  0.4395 -1.9392
  149SAPE   C3916529   3.625   4.089   8.884  0.1918 -0.6231 -0.1616
  149SAPE   H9X16530   3.706   4.164   8.895 -0.3654 -0.0135 -0.1687
  149SAPE   H9Y16531   3.527   4.139   8.901 -0.0785 -0.2091 -2.6314
  149SAPE  C31016532   3.640   4.037   8.742  1.0694  0.2286  0.2593
  149SAPE  H10X16533   3.548   3.981   8.716  1.2990 -1.0119  1.9971
  149SAPE  H10Y16534   3.721   3.962   8.734 -0.4531 -1.3356 -1.5017
  149SAPE  C31116535   3.664   4.141   8.634 -0.0273  0.2913  1.1074
  149SAPE  H11X16536   3.773   4.151   8.620 -0.1121 -1.4691 -1.3675
  149SAPE  H11Y16537   3.629   4.240   8.671 -1.3231  0.3298 -0.1107
  149SAPE  C31216538   3.610   4.095   8.500 -0.6650  0.3899  0.3798
  149SAPE  H12X16539   3.502   4.073   8.518 -0.6193 -1.2901 -1.1023
  149SAPE  H12Y16540   3.664   4.000   8.480  1.9785  1.4196  2.0817
  149SAPE  C31316541   3.629   4.184   8.377 -0.0661 -0.3829  0.2673
  149SAPE  H13X16542   3.573   4.144   8.290 -1.7221  0.1370  1.0453
  149SAPE  H13Y16543   3.737   4.192   8.355  0.1417  0.0633  1.4140
  149SAPE  C31416544   3.598   4.333   8.397 -1.0327  0.6158  0.2874
  149SAPE  H14X16545   3.654   4.371   8.486  1.9408  0.7318 -1.4734
  149SAPE  H14Y16546   3.490   4.341   8.422 -1.0400 -0.6771  0.7294
  149SAPE  C31516547   3.622   4.408   8.268  0.8702 -0.3337 -0.0462
  149SAPE  H15X16548   3.570   4.356   8.185 -2.6651 -0.6136  2.1212
  149SAPE  H15Y16549   3.730   4.419   8.245  0.2779 -0.0054 -3.0392
  149SAPE  C31616550   3.558   4.549   8.269  0.1194 -0.0679  0.4764
  149SAPE  H16X16551   3.636   4.606   8.324  0.6385 -0.0087 -0.3125
  149SAPE  H16Y16552   3.464   4.548   8.329 -0.4587 -2.9771 -0.3225
  149SAPE  C31716553   3.518   4.591   8.128 -0.3373 -0.2136 -0.2801
  149SAPE  H17X16554   3.435   4.523   8.100 -0.1722 -0.6591  0.3116
  149SAPE  H17Y16555   3.592   4.562   8.050  0.2198 -1.2719  0.6299
  149SAPE  C31816556   3.473   4.735   8.102  0.5269 -0.4849 -0.9044
  149SAPE  H18X16557   3.452   4.752   7.994 -0.8059 -2.5100 -1.0298
  149SAPE  H18Y16558   3.562   4.793   8.133  0.2729 -1.2442  1.4063
  149SAPE  H18Z16559   3.389   4.765   8.168  1.3486 -0.1024 -0.0096
  150SAPE     N16560   5.151   5.751  10.174 -0.0162 -0.8521  0.4291
  150SAPE   HN116561   5.163   5.656  10.215  1.1167 -1.1781 -0.6107
  150SAPE   HN216562   5.182   5.831  10.233 -0.9962  0.6165 -0.9404
  150SAPE   HN316563   5.048   5.762  10.161 -0.0157  1.7413  1.9103
  150SAPE   C1216564   5.215   5.764  10.037 -0.1359  0.0627 -0.1442
  150SAPE  H12A16565   5.305   5.829  10.047 -0.2959  0.6289 -1.9871
  150SAPE  H12B16566   5.147   5.801   9.958  0.1151  0.5851 -0.1179
  150SAPE   C1116567   5.257   5.620   9.988  0.1347 -0.2438  0.8700
  150SAPE  H11A16568   5.305   5.635   9.888 -1.2177 -0.0827  0.2217
  150SAPE  H11B16569   5.166   5.561   9.963  0.2723  1.3463 -4.7444
  150SAPE     P16570   5.287   5.447  10.186  0.0195  0.1021 -0.1243
  150SAPE   O1316571   5.401   5.370  10.240  0.0809  0.9647  0.0109
  150SAPE   O1416572   5.206   5.515  10.284  0.1830 -0.1575 -0.0619
  150SAPE   O1216573   5.340   5.563  10.083  0.2183 -0.0159 -0.3810
  150SAPE   O1116574   5.192   5.358  10.104 -0.1709 -0.4156 -0.0479
  150SAPE    C116575   5.272   5.287  10.005 -0.3109  0.4665 -0.1566
  150SAPE    HA16576   5.327   5.350   9.932  2.2372  1.0021  2.0611
  150SAPE    HB16577   5.346   5.221  10.054 -1.2025  0.1639  0.8054
  150SAPE    C216578   5.178   5.203   9.918  0.2871  0.8882  0.1055
  150SAPE    HS16579   5.132   5.130   9.989  1.2805 -0.0548 -0.1946
  150SAPE   O2116580   5.247   5.136   9.815 -0.2024  0.3102  0.5340
  150SAPE   C2116581   5.319   5.030   9.852 -0.3685 -0.1107 -0.7303
  150SAPE   O2216582   5.346   4.996   9.965  0.1071 -0.3477  0.2858
  150SAPE   C2216583   5.357   4.945   9.733  1.1908  0.3357  0.1806
  150SAPE   H2R16584   5.440   4.998   9.682  1.8350  0.7090  1.5675
  150SAPE   H2S16585   5.396   4.848   9.769 -2.3074 -2.0609 -1.8884
  150SAPE    C316586   5.061   5.293   9.856  0.8460 -0.0661 -0.3115
  150SAPE    HX16587   5.006   5.339   9.941 -1.1678 -1.4967 -0.7768
  150SAPE    HY16588   4.997   5.222   9.799 -0.7700  0.2658  0.9940
  150SAPE   O3116589   5.116   5.400   9.774  0.2075  0.0598 -0.0370
  150SAPE   C3116590   5.035   5.478   9.711  0.4942  0.6572  0.1026
  150SAPE   O3216591   4.914   5.469   9.701  0.0778  0.2079  0.0127
  150SAPE   C3216592   5.109   5.600   9.655 -0.0904 -0.2567 -0.1128
  150SAPE   H2X16593   5.200   5.566   9.601  0.0254  2.3903 -1.7826
  150SAPE   H2Y16594   5.139   5.669   9.737 -1.7966  0.6553 -0.2033
  150SAPE   C2316595   5.245   4.920   9.637 -0.0231  0.0843 -0.2694
  150SAPE   H3R16596   5.206   5.020   9.608 -0.0807 -0.2916 -1.5245
  150SAPE   H3S16597   5.159   4.870   9.687 -0.5648  0.2885 -0.9802
  150SAPE   C2416598   5.299   4.847   9.517  0.6159  0.1140  0.1241
  150SAPE   H4R16599   5.360   4.902   9.442 -0.5988 -0.5713 -1.4527
  150SAPE   H4S16600   5.210   4.822   9.454  0.5059  0.3133  0.2019
  150SAPE   C2516601   5.363   4.707   9.546 -0.3425 -0.2349 -0.4161
  150SAPE   H5R16602   5.280   4.638   9.570  1.2675 -1.8303  0.8427
  150SAPE   C2616603   5.491   4.672   9.570 -0.1559  0.6546 -0.3178
  150SAPE   H6R16604   5.516   4.571   9.605 -3.5348  1.2177  4.7537
  150SAPE   C2716605   5.603   4.769   9.544  0.0306  1.1318  0.0006
  150SAPE   H7R16606   5.573   4.874   9.567  0.3771  1.7217 -2.0168
  150SAPE   H7S16607   5.629   4.759   9.436  1.2224  2.2865  0.1587
  150SAPE   C2816608   5.718   4.737   9.634  0.5108  0.7247 -0.8228
  150SAPE   H8R16609   5.701   4.771   9.737 -0.1166  0.9484 -0.9938
  150SAPE   C2916610   5.829   4.666   9.616 -0.1171  0.6667  0.0893
  150SAPE   H9R16611   5.882   4.643   9.710  0.3558 -0.0378 -0.3300
  150SAPE  C21016612   5.878   4.611   9.484 -1.0255  0.4236 -0.1243
  150SAPE  H10R16613   5.976   4.662   9.470 -0.6116 -0.5109 -0.7232
  150SAPE  H10S16614   5.814   4.645   9.400  1.2905  3.3872 -0.8589
  150SAPE  C21116615   5.896   4.460   9.482 -0.2935  0.0669  0.6449
  150SAPE  H11R16616   5.885   4.407   9.578 -2.7449  1.3843  1.1559
  150SAPE  C21216617   5.948   4.391   9.385  0.2813  0.3377 -0.5790
  150SAPE  H12R16618   5.953   4.284   9.409 -0.2056  0.8832  2.2913
  150SAPE  C21316619   5.982   4.437   9.245  0.2010 -0.2664 -0.6265
  150SAPE  H13R16620   6.082   4.406   9.208  0.7482 -2.0872  2.1028
  150SAPE  H13S16621   5.992   4.548   9.243  0.8307 -0.2667  1.0249
  150SAPE  C21416622   5.875   4.417   9.143  0.5090 -0.4429 -1.1045
  150SAPE  H14R16623   5.775   4.430   9.186  0.2011 -1.3170 -1.5473
  150SAPE  C21516624   5.896   4.394   9.015  0.4992 -0.2042  0.2495
  150SAPE  H15R16625   5.813   4.387   8.944  0.1880  2.4240  0.2443
  150SAPE  C21616626   6.031   4.399   8.949 -0.3738 -0.5091 -0.6727
  150SAPE  H16R16627   6.079   4.302   8.976 -2.6397 -1.2515  0.9614
  150SAPE  H16S16628   6.098   4.480   8.984  0.1524 -0.8117 -0.9638
  150SAPE  C21716629   6.016   4.410   8.796 -0.2892 -0.5447 -0.7398
  150SAPE  H17R16630   5.940   4.349   8.742  0.0161 -1.4180 -0.1926
  150SAPE  H17S16631   6.107   4.374   8.743  0.6722 -0.6782  0.9560
  150SAPE  C21816632   6.017   4.557   8.738 -0.0316 -0.0136  0.4097
  150SAPE  H18R16633   6.115   4.600   8.769  0.1367 -0.4017  0.4258
  150SAPE  H18S16634   5.938   4.612   8.793  0.6005 -0.5270  1.8971
  150SAPE  C21916635   6.005   4.582   8.586 -0.3276  0.2654  0.2852
  150SAPE  H19R16636   6.095   4.535   8.540 -0.9988 -1.0425  0.2591
  150SAPE  H19S16637   6.016   4.690   8.566  5.2094  0.0401  0.4381
  150SAPE  C22016638   5.879   4.527   8.519  0.3970 -0.3718  0.7678
  150SAPE  H20R16639   5.868   4.549   8.411 -1.6045 -0.6813  0.8715
  150SAPE  H20S16640   5.784   4.577   8.548  0.0096 -0.2116 -0.6922
  150SAPE  H20T16641   5.867   4.418   8.541  1.5349 -0.5909  0.3889
  150SAPE   C3316642   5.013   5.691   9.566 -0.3261  0.2018  0.4010
  150SAPE   H3X16643   4.940   5.735   9.637  0.9182  2.0754  0.5838
  150SAPE   H3Y16644   4.954   5.640   9.487 -2.0487  0.9409  1.1683
  150SAPE   C3416645   5.091   5.817   9.516  0.0103  0.1382 -0.4517
  150SAPE   H4X16646   5.150   5.846   9.605  1.2030 -0.8482 -0.9012
  150SAPE   H4Y16647   5.024   5.900   9.486  0.2935 -0.0497 -1.6658
  150SAPE   C3516648   5.184   5.781   9.398  0.1600 -0.2140 -0.0981
  150SAPE   H5X16649   5.242   5.688   9.415 -2.3891 -1.8810  0.0826
  150SAPE   H5Y16650   5.261   5.860   9.388  0.1299 -0.2596 -0.7889
  150SAPE   C3616651   5.106   5.756   9.264 -0.1628  0.3967 -0.2940
  150SAPE   H6X16652   5.058   5.852   9.236  0.1642  0.4613 -0.6383
  150SAPE   H6Y16653   5.024   5.684   9.286  0.5907 -0.3016  0.2773
  150SAPE   C3716654   5.208   5.727   9.154 -0.8327 -0.3345  0.1365
  150SAPE   H7X16655   5.272   5.647   9.197  0.3926 -1.3440 -3.2479
  150SAPE   H7Y16656   5.263   5.820   9.129  0.6725 -0.9880  0.8938
  150SAPE   C3816657   5.140   5.688   9.016 -0.2664 -0.4154  0.0548
  150SAPE   H8X16658   5.081   5.779   8.989 -0.6838 -1.3686 -2.5686
  150SAPE   H8Y16659   5.080   5.597   9.039  0.8607 -0.8335  1.4508
  150SAPE   C3916660   5.236   5.666   8.893 -0.1521 -0.4861 -0.7353
  150SAPE   H9X16661   5.332   5.621   8.929  1.0613  2.5868  0.2352
  150SAPE   H9Y16662   5.263   5.762   8.843  0.0054 -0.7285 -1.1149
  150SAPE  C31016663   5.171   5.564   8.799  0.6653  0.3243  0.6086
  150SAPE  H10X16664   5.086   5.611   8.746  0.7266 -0.6298 -0.3723
  150SAPE  H10Y16665   5.132   5.485   8.865  1.6485  0.8363  1.8535
  150SAPE  C31116666   5.268   5.505   8.686  0.9087 -0.0373  0.2473
  150SAPE  H11X16667   5.209   5.435   8.624  1.1282 -0.2535  0.2762
  150SAPE  H11Y16668   5.330   5.422   8.728 -1.5090 -2.5291 -0.7930
  150SAPE  C31216669   5.352   5.599   8.613 -0.1668 -0.1171 -0.3161
  150SAPE  H12X16670   5.424   5.547   8.546 -0.8056  0.3260 -1.3672
  150SAPE  H12Y16671   5.406   5.667   8.682  0.7858  0.1829 -1.3227
  150SAPE  C31316672   5.274   5.673   8.493 -0.0174  0.3507  0.4450
  150SAPE  H13X16673   5.195   5.742   8.530 -2.0223 -0.4312 -2.0093
  150SAPE  H13Y16674   5.209   5.604   8.434  0.7904  0.9846 -1.2429
  150SAPE  C31416675   5.369   5.764   8.417  0.2033 -0.7132 -0.2611
  150SAPE  H14X16676   5.465   5.723   8.381 -0.9702 -2.5248 -1.4904
  150SAPE  H14Y16677   5.407   5.850   8.477  4.8867 -1.6940 -1.4433
  150SAPE  C31516678   5.306   5.817   8.294  0.0253 -0.5287  0.4649
  150SAPE  H15X16679   5.200   5.849   8.307 -0.0742 -1.2057  1.4294
  150SAPE  H15Y16680   5.282   5.726   8.234 -1.0564  1.3925 -2.2318
  150SAPE  C31616681   5.395   5.917   8.211 -0.5281 -0.1106 -0.2180
  150SAPE  H16X16682   5.491   5.862   8.197  0.9428  1.6542  2.0785
  150SAPE  H16Y16683   5.431   6.001   8.274  3.0638 -2.2679  0.8952
  150SAPE  C31716684   5.345   5.960   8.069  0.0332  1.0485 -0.0279
  150SAPE  H17X16685   5.402   6.042   8.020 -0.2892  0.7181 -0.9758
  150SAPE  H17Y16686   5.240   5.993   8.081 -1.1913 -2.5680  0.2878
  150SAPE  C31816687   5.347   5.843   7.972 -0.1315  0.6494 -0.0015
  150SAPE  H18X16688   5.444   5.788   7.977  0.5688  1.9006  0.8393
  150SAPE  H18Y16689   5.319   5.871   7.869 -2.1896  0.9406  0.5977
  150SAPE  H18Z16690   5.262   5.776   7.996  0.2720  0.1816  0.1561
  151SAPE     N16691   4.076   0.889  11.074  0.2623 -0.2530 -0.2452
  151SAPE   HN116692   4.059   0.839  11.164 -0.2133  0.1579 -0.1065
  151SAPE   HN216693   4.132   0.976  11.085  0.7987 -0.6955  0.6848
  151SAPE   HN316694   3.985   0.913  11.031  0.5364 -0.1593 -0.7864
  151SAPE   C1216695   4.154   0.793  10.982 -0.1216 -0.6961 -0.3343
  151SAPE  H12A16696   4.088   0.725  10.925  0.0979  0.5596 -2.1574
  151SAPE  H12B16697   4.210   0.725  11.050 -0.9814 -0.8080  0.2754
  151SAPE   C1116698   4.244   0.873  10.877 -0.6265 -0.6105 -0.3516
  151SAPE  H11A16699   4.176   0.951  10.837  0.9024  1.8559  1.5553
  151SAPE  H11B16700   4.275   0.798  10.801  0.1670 -0.0665 -0.5763
  151SAPE     P16701   4.367   1.073  11.004  0.3723  0.2693 -0.0908
  151SAPE   O1316702   4.240   1.101  11.074 -0.1933 -0.7078 -0.8867
  151SAPE   O1416703   4.493   1.090  11.083 -0.1372 -0.1993 -0.0563
  151SAPE   O1216704   4.365   0.929  10.941  0.2237 -0.3456  0.4073
  151SAPE   O1116705   4.375   1.168  10.885 -0.5039 -0.3462  0.3914
  151SAPE    C116706   4.495   1.172  10.801 -0.3754  0.6475  0.0448
  151SAPE    HA16707   4.565   1.244  10.848 -0.1463  0.3596  0.1425
  151SAPE    HB16708   4.545   1.075  10.779 -2.7819 -0.5342 -0.6342
  151SAPE    C216709   4.463   1.215  10.649  0.7467 -0.0415  0.4185
  151SAPE    HS16710   4.555   1.219  10.586  1.3618  2.2632  1.3684
  151SAPE   O2116711   4.381   1.338  10.643 -0.2131  0.4513 -0.5535
  151SAPE   C2116712   4.421   1.433  10.553 -0.5564  0.1303  0.4553
  151SAPE   O2216713   4.526   1.439  10.490  0.0505  0.1970  0.1001
  151SAPE   C2216714   4.306   1.531  10.542  0.0557 -0.4141  0.1824
  151SAPE   H2R16715   4.211   1.477  10.521  0.5755 -1.4758  0.4859
  151SAPE   H2S16716   4.284   1.569  10.644 -3.2669 -1.6453  0.0663
  151SAPE    C316717   4.374   1.110  10.574  0.2770  0.3622  0.7953
  151SAPE    HX16718   4.294   1.084  10.647  0.5964  0.0013  1.0129
  151SAPE    HY16719   4.436   1.021  10.553 -1.0926 -0.3776 -0.3153
  151SAPE   O3116720   4.312   1.158  10.453  1.3221  0.1443 -0.0460
  151SAPE   C3116721   4.373   1.161  10.343  0.5168  0.1946  0.6203
  151SAPE   O3216722   4.488   1.120  10.319 -0.3934  0.1726  0.4854
  151SAPE   C3216723   4.279   1.245  10.248 -0.1345  0.6241  0.7042
  151SAPE   H2X16724   4.286   1.354  10.266 -2.7928  0.8068  0.9613
  151SAPE   H2Y16725   4.175   1.216  10.275 -0.3362  2.4734  2.0916
  151SAPE   C2316726   4.334   1.647  10.441 -0.7653  0.3231 -0.2401
  151SAPE   H3R16727   4.384   1.603  10.352 -0.3701 -2.4081  1.2021
  151SAPE   H3S16728   4.402   1.720  10.490 -2.2448  0.2958  1.9818
  151SAPE   C2416729   4.211   1.720  10.393 -0.3613 -0.2748  0.3776
  151SAPE   H4R16730   4.245   1.819  10.357  0.4774  0.0371  1.9683
  151SAPE   H4S16731   4.156   1.727  10.489 -0.6782 -2.3664  0.3934
  151SAPE   C2516732   4.135   1.642  10.286  0.4290  0.1105  0.2653
  151SAPE   H5R16733   4.044   1.588  10.315  0.9411 -0.7160  0.3538
  151SAPE   C2616734   4.158   1.651  10.158 -0.4199  0.0447 -0.4375
  151SAPE   H6R16735   4.086   1.602  10.091 -1.5790  1.0283  0.0487
  151SAPE   C2716736   4.271   1.725  10.088 -0.3170 -0.2995 -0.0771
  151SAPE   H7R16737   4.322   1.795  10.157 -0.6118 -0.3771  0.2222
  151SAPE   H7S16738   4.231   1.795  10.011 -0.0790 -2.1534 -2.0004
  151SAPE   C2816739   4.366   1.615  10.024  0.2306 -0.1680 -0.1111
  151SAPE   H8R16740   4.316   1.555   9.947  2.1092 -0.2864 -1.2971
  151SAPE   C2916741   4.498   1.592  10.045  0.5235 -0.8846 -0.0772
  151SAPE   H9R16742   4.542   1.504   9.995  0.9110 -1.0212  0.4992
  151SAPE  C21016743   4.574   1.665  10.154 -0.7743  1.2969 -0.1496
  151SAPE  H10R16744   4.526   1.708  10.245  0.4977  1.2835  0.5597
  151SAPE  H10S16745   4.628   1.743  10.096  0.4573  0.0920 -0.6749
  151SAPE  C21116746   4.679   1.569  10.204  0.0630 -0.5686  0.2208
  151SAPE  H11R16747   4.653   1.529  10.303 -2.2607 -2.2069 -0.9762
  151SAPE  C21216748   4.781   1.502  10.145  0.1958  0.1835  0.1749
  151SAPE  H12R16749   4.849   1.445  10.209  2.2573  2.0256 -0.2625
  151SAPE  C21316750   4.834   1.516  10.002  0.6078 -0.2084 -0.0037
  151SAPE  H13R16751   4.945   1.517  10.007  0.6411  0.8045 -0.6997
  151SAPE  H13S16752   4.798   1.613   9.961  0.8094  0.0093  0.3299
  151SAPE  C21416753   4.784   1.404   9.914 -0.3945 -0.9363 -0.5101
  151SAPE  H14R16754   4.734   1.318   9.963 -0.2669  0.0575  1.4601
  151SAPE  C21516755   4.782   1.415   9.781 -0.2553  0.9091 -0.3945
  151SAPE  H15R16756   4.737   1.329   9.730 -0.5325  1.2159 -0.6740
  151SAPE  C21616757   4.827   1.526   9.700  0.8552  0.1774  0.4891
  151SAPE  H16R16758   4.922   1.506   9.647  0.0011 -0.8343 -0.7248
  151SAPE  H16S16759   4.836   1.622   9.755  0.1688  0.2271  0.5300
  151SAPE  C21716760   4.719   1.556   9.586 -0.3342  0.1597 -0.5295
  151SAPE  H17R16761   4.719   1.460   9.531  1.9240 -0.4437  0.4121
  151SAPE  H17S16762   4.754   1.636   9.518  1.9317 -0.2295  0.0909
  151SAPE  C21816763   4.588   1.596   9.651 -0.1868 -0.8572 -0.4196
  151SAPE  H18R16764   4.601   1.686   9.714  0.0358 -1.4233  0.3710
  151SAPE  H18S16765   4.547   1.516   9.717 -2.3371 -0.5974 -1.3666
  151SAPE  C21916766   4.473   1.609   9.549  0.8921 -0.4383  0.2971
  151SAPE  H19R16767   4.456   1.511   9.500 -0.9585  0.2186 -0.4607
  151SAPE  H19S16768   4.490   1.682   9.467  1.0908 -1.4549 -0.5945
  151SAPE  C22016769   4.336   1.656   9.617 -0.6450  0.3861  0.0433
  151SAPE  H20R16770   4.236   1.641   9.569 -0.0547  1.9879 -1.8084
  151SAPE  H20S16771   4.346   1.766   9.627 -1.2121  0.4387  0.0860
  151SAPE  H20T16772   4.321   1.615   9.719 -0.4361  1.8307  0.6791
  151SAPE   C3316773   4.312   1.219  10.096 -0.4401 -0.2546 -0.3222
  151SAPE   H3X16774   4.313   1.109  10.085 -0.4462 -0.4751  1.5909
  151SAPE   H3Y16775   4.416   1.256  10.083 -0.2504 -0.2449  1.1133
  151SAPE   C3416776   4.227   1.286   9.989  0.0471  0.2764  0.0464
  151SAPE   H4X16777   4.291   1.298   9.899  0.6327 -1.7139  0.1316
  151SAPE   H4Y16778   4.186   1.384  10.020  0.6790  0.0958  1.5727
  151SAPE   C3516779   4.112   1.202   9.931 -0.6148 -0.2442 -0.5322
  151SAPE   H5X16780   4.022   1.223   9.992  1.2084  3.1189  1.3228
  151SAPE   H5Y16781   4.133   1.093   9.926 -3.3391 -0.8676  0.2554
  151SAPE   C3616782   4.095   1.250   9.783  0.4775 -0.0055  0.1436
  151SAPE   H6X16783   4.184   1.215   9.728  0.2183 -1.1117  0.4181
  151SAPE   H6Y16784   4.095   1.361   9.786  1.6969 -0.0030  0.4125
  151SAPE   C3716785   3.954   1.205   9.729 -0.1595  0.3993  0.1704
  151SAPE   H7X16786   3.912   1.288   9.668 -2.7910 -0.3693  0.8024
  151SAPE   H7Y16787   3.882   1.193   9.813 -0.6321  2.7981  0.1555
  151SAPE   C3816788   3.971   1.074   9.642 -0.2988 -0.8147 -0.4026
  151SAPE   H8X16789   3.872   1.035   9.611 -2.0955  1.5492  1.8895
  151SAPE   H8Y16790   4.031   0.997   9.694 -0.4455 -0.6113  0.0823
  151SAPE   C3916791   4.055   1.106   9.508 -0.4984  0.0646  0.3191
  151SAPE   H9X16792   4.154   1.149   9.536 -0.8542  1.1784 -0.0659
  151SAPE   H9Y16793   4.018   1.192   9.448 -1.1160  0.9202  1.8423
  151SAPE  C31016794   4.056   0.983   9.413 -0.8749 -0.2445  0.0964
  151SAPE  H10X16795   3.956   0.934   9.408 -0.1158 -1.9490  0.8535
  151SAPE  H10Y16796   4.128   0.908   9.454 -1.7644 -2.3061 -1.8956
  151SAPE  C31116797   4.092   1.015   9.266  0.4812 -0.1885 -0.5345
  151SAPE  H11X16798   4.200   1.035   9.255  1.1431 -2.9725  0.0339
  151SAPE  H11Y16799   4.041   1.106   9.228  1.8495  0.0181 -1.9856
  151SAPE  C31216800   4.051   0.895   9.174 -0.0161  0.6113  0.4411
  151SAPE  H12X16801   3.941   0.893   9.161  0.0344 -0.8662  0.0316
  151SAPE  H12Y16802   4.070   0.796   9.221 -1.5895  0.8360  1.6272
  151SAPE  C31316803   4.131   0.891   9.042 -0.3537  0.1849  0.4114
  151SAPE  H13X16804   4.241   0.897   9.060  0.0096 -0.2037 -1.4837
  151SAPE  H13Y16805   4.107   0.970   8.967  0.6630 -0.4187 -0.5937
  151SAPE  C31416806   4.108   0.759   8.963 -0.4547  0.6752 -0.4440
  151SAPE  H14X16807   3.999   0.747   8.949 -0.4198  0.9399 -0.9555
  151SAPE  H14Y16808   4.145   0.675   9.026  0.0969  0.2437 -1.3254
  151SAPE  C31516809   4.165   0.757   8.819  0.5381  1.5772 -0.0816
  151SAPE  H15X16810   4.275   0.741   8.813  0.1199 -1.5178 -1.2021
  151SAPE  H15Y16811   4.147   0.861   8.785 -0.0030  1.6040  0.2747
  151SAPE  C31616812   4.092   0.656   8.727  0.4719  0.0684  0.3580
  151SAPE  H16X16813   3.982   0.662   8.742  0.5992 -1.8782  2.6549
  151SAPE  H16Y16814   4.120   0.551   8.751 -0.8807 -1.0567 -2.4678
  151SAPE  C31716815   4.127   0.659   8.580  0.4042 -0.3046 -0.1053
  151SAPE  H17X16816   4.236   0.681   8.571  0.0627  1.1002 -1.1426
  151SAPE  H17Y16817   4.071   0.744   8.536  2.0631  0.7120 -0.3453
  151SAPE  C31816818   4.100   0.536   8.496  0.2910  0.6177 -0.1631
  151SAPE  H18X16819   3.991   0.519   8.502  0.4678 -1.0540 -0.9614
  151SAPE  H18Y16820   4.161   0.453   8.538  0.3903  0.9384  0.3325
  151SAPE  H18Z16821   4.124   0.558   8.390 -0.8680 -1.1649 -0.8466
  152SAPE     N16822   3.929   1.538  11.052  0.1130  0.7305 -0.0841
  152SAPE   HN116823   3.872   1.549  10.965  0.7982 -0.5817 -0.7268
  152SAPE   HN216824   3.974   1.631  11.066  1.8371 -0.1913  0.7051
  152SAPE   HN316825   3.999   1.467  11.023 -1.6413 -1.3754  0.5711
  152SAPE   C1216826   3.857   1.480  11.172 -0.0850  0.0574 -0.0964
  152SAPE  H12A16827   3.785   1.559  11.203  0.7684  0.3603  1.2017
  152SAPE  H12B16828   3.929   1.457  11.253 -0.1663  0.7125  0.1726
  152SAPE   C1116829   3.774   1.357  11.131  0.0611  0.6078  0.2094
  152SAPE  H11A16830   3.702   1.389  11.052  1.2155 -1.1498 -1.6711
  152SAPE  H11B16831   3.723   1.300  11.211 -0.5810  0.5062 -0.2609
  152SAPE     P16832   3.816   1.124  11.010 -0.4651 -0.2307 -0.2841
  152SAPE   O1316833   3.829   1.030  11.126 -0.5340  0.0649  0.7947
  152SAPE   O1416834   3.684   1.141  10.941  0.0493  0.2277 -0.5285
  152SAPE   O1216835   3.859   1.267  11.056  0.4658 -0.4234 -0.2709
  152SAPE   O1116836   3.927   1.085  10.906 -0.3696  0.3267 -0.2973
  152SAPE    C116837   3.974   1.169  10.802 -0.9915 -0.3230  0.3422
  152SAPE    HA16838   3.948   1.275  10.823  0.2570 -0.5492  3.5106
  152SAPE    HB16839   4.085   1.166  10.807 -1.0061  0.6100  1.6312
  152SAPE    C216840   3.917   1.148  10.653  0.4858 -0.2023 -0.0830
  152SAPE    HS16841   3.806   1.161  10.655  0.2116 -1.4243 -2.6776
  152SAPE   O2116842   3.956   1.013  10.609  0.1491 -0.2169  0.8427
  152SAPE   C2116843   3.863   0.965  10.517  0.4708  0.5197 -0.0868
  152SAPE   O2216844   3.750   1.013  10.501 -0.6151 -0.2346 -0.2574
  152SAPE   C2216845   3.923   0.854  10.423  0.0881 -0.5058 -0.4716
  152SAPE   H2R16846   3.998   0.795  10.481  0.1243  0.2930  0.3141
  152SAPE   H2S16847   3.836   0.791  10.394 -1.2805  0.3816  1.4041
  152SAPE    C316848   3.971   1.266  10.566 -0.9855  0.2358  0.8033
  152SAPE    HX16849   4.081   1.258  10.580 -1.1243 -0.3347  1.6541
  152SAPE    HY16850   3.936   1.365  10.601 -0.8687 -0.0150  1.6536
  152SAPE   O3116851   3.957   1.249  10.422 -0.3297  0.0100  0.0849
  152SAPE   C3116852   3.850   1.316  10.374  0.1658  0.2897  0.6020
  152SAPE   O3216853   3.762   1.365  10.440  0.1098  0.2197  0.2466
  152SAPE   C3216854   3.856   1.330  10.223 -0.3604  0.5884 -0.2609
  152SAPE   H2X16855   3.882   1.238  10.166 -1.6807 -0.0785  0.1602
  152SAPE   H2Y16856   3.936   1.402  10.197  1.6291 -1.3954  0.0513
  152SAPE   C2316857   3.991   0.917  10.295 -0.1414 -0.1067 -0.3988
  152SAPE   H3R16858   4.074   0.986  10.323  0.8760 -0.1309 -3.0670
  152SAPE   H3S16859   3.917   0.980  10.242 -1.6851 -1.5589 -0.0538
  152SAPE   C2416860   4.063   0.813  10.211  0.1883  0.0952  0.4319
  152SAPE   H4R16861   4.004   0.721  10.197  0.0731  0.2177  0.1061
  152SAPE   H4S16862   4.156   0.780  10.262  0.0539 -0.5939  0.2390
  152SAPE   C2516863   4.082   0.869  10.069 -0.1236  0.4295  0.0875
  152SAPE   H5R16864   4.172   0.931  10.054  0.6169 -0.2358  1.5963
  152SAPE   C2616865   3.999   0.844   9.962 -0.4306 -0.3699  0.3666
  152SAPE   H6R16866   4.022   0.899   9.869  0.1597  1.0485  1.3064
  152SAPE   C2716867   3.868   0.767   9.956  0.1426  0.0126 -0.2252
  152SAPE   H7R16868   3.845   0.731  10.059  0.7704 -0.7628 -0.3444
  152SAPE   H7S16869   3.879   0.674   9.896 -0.3090  1.4634 -2.6908
  152SAPE   C2816870   3.750   0.849   9.911 -0.7240  0.3745  0.0114
  152SAPE   H8R16871   3.712   0.930   9.975 -1.3901  1.2490 -1.4597
  152SAPE   C2916872   3.677   0.823   9.811  0.2558  0.0138  0.3838
  152SAPE   H9R16873   3.586   0.881   9.785  0.7442 -0.3952 -2.5997
  152SAPE  C21016874   3.698   0.720   9.698 -0.1878 -0.0503 -1.1540
  152SAPE  H10R16875   3.780   0.650   9.725 -1.1101 -0.8550 -0.3366
  152SAPE  H10S16876   3.726   0.769   9.603  1.1401 -0.6319 -1.0800
  152SAPE  C21116877   3.580   0.631   9.679  0.8377  0.0940 -0.0613
  152SAPE  H11R16878   3.563   0.550   9.752 -2.9722 -0.0958 -0.9585
  152SAPE  C21216879   3.477   0.657   9.594  0.5706 -0.2056  0.4975
  152SAPE  H12R16880   3.397   0.584   9.578  2.2410 -2.3778  1.4524
  152SAPE  C21316881   3.475   0.779   9.500  0.3666 -0.1760 -0.8809
  152SAPE  H13R16882   3.564   0.767   9.434  1.3952 -0.2160  0.4676
  152SAPE  H13S16883   3.502   0.865   9.565 -0.9941 -1.6410  1.7922
  152SAPE  C21416884   3.351   0.788   9.426 -0.6939 -0.0123  0.3540
  152SAPE  H14R16885   3.265   0.823   9.485 -1.2880 -0.3845 -0.2633
  152SAPE  C21516886   3.327   0.766   9.300  0.2921  0.3779  0.7214
  152SAPE  H15R16887   3.226   0.788   9.263  1.4834  3.4961 -1.0556
  152SAPE  C21616888   3.430   0.733   9.194 -0.3750 -0.6827  0.2821
  152SAPE  H16R16889   3.480   0.638   9.223  2.1699  0.3219 -0.5154
  152SAPE  H16S16890   3.505   0.815   9.204 -1.4478  0.1915  1.5201
  152SAPE  C21716891   3.381   0.725   9.049  0.1842  0.6338  0.0688
  152SAPE  H17R16892   3.462   0.704   8.976  0.3029 -1.6421  0.7693
  152SAPE  H17S16893   3.352   0.829   9.024  1.6757  1.1217  0.2556
  152SAPE  C21816894   3.271   0.619   9.017 -0.7222  0.1597 -0.1896
  152SAPE  H18R16895   3.195   0.631   9.097 -0.0813  0.2735  0.4175
  152SAPE  H18S16896   3.311   0.516   9.022 -0.9264  0.0914  0.0324
  152SAPE  C21916897   3.209   0.638   8.878 -0.1231 -0.4115 -0.3013
  152SAPE  H19R16898   3.154   0.735   8.875 -0.9170 -0.8310  0.2999
  152SAPE  H19S16899   3.140   0.551   8.867  1.6536 -1.7762 -1.0955
  152SAPE  C22016900   3.321   0.630   8.772  0.0054 -0.7522  0.1520
  152SAPE  H20R16901   3.292   0.640   8.666  0.7592 -1.2294 -0.1109
  152SAPE  H20S16902   3.381   0.538   8.792  2.0955  0.6223  0.5079
  152SAPE  H20T16903   3.390   0.715   8.789 -2.2906  1.2238  0.0934
  152SAPE   C3316904   3.722   1.379  10.175 -0.6951  0.0108 -0.5144
  152SAPE   H3X16905   3.700   1.484  10.203  2.6455  0.8827 -0.7595
  152SAPE   H3Y16906   3.644   1.311  10.215  1.1001 -1.4130  0.7045
  152SAPE   C3416907   3.708   1.364  10.027 -0.1636 -0.2006  0.4273
  152SAPE   H4X16908   3.750   1.266   9.996  0.8517  0.3824 -0.0832
  152SAPE   H4Y16909   3.774   1.439   9.979  1.1338 -0.9546  0.9647
  152SAPE   C3516910   3.560   1.392   9.980  0.2006  0.3085  0.2008
  152SAPE   H5X16911   3.520   1.486  10.023 -0.8538 -0.3417  0.6770
  152SAPE   H5Y16912   3.497   1.305  10.008 -0.5188  1.0939  1.0642
  152SAPE   C3616913   3.559   1.410   9.828  0.4153 -0.5158  0.2017
  152SAPE   H6X16914   3.647   1.472   9.799 -1.3779  2.4361  0.6509
  152SAPE   H6Y16915   3.471   1.473   9.804 -0.6605 -1.9843  0.1333
  152SAPE   C3716916   3.558   1.282   9.740  0.1935  0.7876  0.3927
  152SAPE   H7X16917   3.458   1.236   9.755  1.6922 -2.1833  2.2673
  152SAPE   H7Y16918   3.629   1.208   9.783 -1.4294 -0.1943  1.4845
  152SAPE   C3816919   3.578   1.306   9.590  1.0006 -0.1398  0.5088
  152SAPE   H8X16920   3.661   1.374   9.562  1.6503 -1.5016 -1.0030
  152SAPE   H8Y16921   3.489   1.366   9.565  2.0188  0.8815 -0.7576
  152SAPE   C3916922   3.570   1.184   9.502  0.4062 -1.0467 -1.0900
  152SAPE   H9X16923   3.490   1.112   9.529  1.1114 -1.2722  0.5030
  152SAPE   H9Y16924   3.667   1.128   9.509  0.8311 -0.5684 -2.6677
  152SAPE  C31016925   3.554   1.221   9.356 -0.1582  0.6958  0.9019
  152SAPE  H10X16926   3.627   1.301   9.329  0.1089  0.3717  0.6619
  152SAPE  H10Y16927   3.452   1.263   9.342 -0.8366 -1.2490 -0.2872
  152SAPE  C31116928   3.575   1.104   9.260  0.7086  0.6062  0.2567
  152SAPE  H11X16929   3.513   1.020   9.296  0.7552  1.9380  3.8779
  152SAPE  H11Y16930   3.681   1.070   9.262 -0.4288 -3.3735  0.2499
  152SAPE  C31216931   3.556   1.128   9.111  0.1066  0.2225 -0.4641
  152SAPE  H12X16932   3.587   1.230   9.082  3.5194 -0.4975  0.2610
  152SAPE  H12Y16933   3.446   1.126   9.093 -0.3128  1.1644  1.7004
  152SAPE  C31316934   3.633   1.028   9.027  0.4701 -1.1621  0.0108
  152SAPE  H13X16935   3.615   0.923   9.055 -1.0510 -1.1389 -0.7914
  152SAPE  H13Y16936   3.738   1.042   9.062 -0.0991  0.6276  1.1503
  152SAPE  C31416937   3.626   1.031   8.871  0.0912 -0.4096 -0.2549
  152SAPE  H14X16938   3.681   1.123   8.841  1.0843 -1.2567 -1.0844
  152SAPE  H14Y16939   3.519   1.036   8.843 -0.2888 -2.3471  0.7070
  152SAPE  C31516940   3.676   0.899   8.815 -0.1612 -0.3711  0.0425
  152SAPE  H15X16941   3.623   0.812   8.859 -2.6377  0.7468 -0.5504
  152SAPE  H15Y16942   3.784   0.889   8.841 -0.1814 -0.6562  0.0222
  152SAPE  C31616943   3.671   0.907   8.665  0.0108 -0.1115  0.8489
  152SAPE  H16X16944   3.721   0.995   8.618  0.7334  0.1337  2.0336
  152SAPE  H16Y16945   3.563   0.928   8.652  0.1112 -0.6891 -1.3036
  152SAPE  C31716946   3.722   0.778   8.598 -0.4888 -0.5162 -0.0752
  152SAPE  H17X16947   3.694   0.682   8.646  0.9494 -0.0167  1.8841
  152SAPE  H17Y16948   3.831   0.764   8.608 -0.3130 -0.0382 -1.1390
  152SAPE  C31816949   3.695   0.761   8.445  0.1208  0.1440 -0.7022
  152SAPE  H18X16950   3.751   0.674   8.406  3.3960 -0.7756  4.9933
  152SAPE  H18Y16951   3.701   0.854   8.383 -1.6706  0.6971 -0.1153
  152SAPE  H18Z16952   3.593   0.718   8.452  1.3121 -2.7994 -0.0536
  153SAPE     N16953   5.192   0.465  10.516 -0.1283 -0.0694  0.3656
  153SAPE   HN116954   5.250   0.548  10.491 -1.9395  0.8586 -0.9305
  153SAPE   HN216955   5.263   0.389  10.510  0.7649  0.8179 -0.7792
  153SAPE   HN316956   5.113   0.454  10.450  1.1455 -0.3203 -1.1728
  153SAPE   C1216957   5.144   0.491  10.655 -0.0176  0.0017  0.2526
  153SAPE  H12A16958   5.077   0.579  10.645 -1.7892 -1.1768  1.2853
  153SAPE  H12B16959   5.233   0.507  10.720  0.9982  0.8160 -1.2481
  153SAPE   C1116960   5.057   0.372  10.698  0.5101  0.0393  0.3186
  153SAPE  H11A16961   5.040   0.405  10.803  2.6575 -0.5437  0.9061
  153SAPE  H11B16962   5.106   0.272  10.696 -0.4509 -0.4229 -0.1783
  153SAPE     P16963   4.848   0.239  10.585 -0.4134 -0.3693  0.2347
  153SAPE   O1316964   4.946   0.130  10.570 -0.4625 -0.4530 -0.4002
  153SAPE   O1416965   4.727   0.220  10.675 -0.1507 -0.5801  0.4504
  153SAPE   O1216966   4.931   0.367  10.629  0.3440 -0.1860  0.4820
  153SAPE   O1116967   4.812   0.291  10.437  0.5634 -0.8321  0.6297
  153SAPE    C116968   4.717   0.209  10.372  1.2509 -0.2491  0.1825
  153SAPE    HA16969   4.765   0.130  10.309  0.0092 -0.4268 -0.5981
  153SAPE    HB16970   4.647   0.144  10.430  0.8879  0.4469  0.5392
  153SAPE    C216971   4.625   0.296  10.281 -0.1355 -0.4012  0.0973
  153SAPE    HS16972   4.547   0.238  10.228  0.1727  1.1261 -2.1739
  153SAPE   O2116973   4.699   0.378  10.188  0.0089 -0.2396  0.0813
  153SAPE   C2116974   4.763   0.308  10.095 -0.4426 -0.5356  0.6280
  153SAPE   O2216975   4.748   0.189  10.072  0.5649 -0.5098 -0.3685
  153SAPE   C2216976   4.849   0.404  10.012  0.0015  0.5721 -0.4918
  153SAPE   H2R16977   4.877   0.494  10.070  1.3770  0.2104 -0.5586
  153SAPE   H2S16978   4.946   0.353   9.992  0.4555  1.2750 -0.1081
  153SAPE    C316979   4.543   0.392  10.373  0.1990 -0.4480  0.2880
  153SAPE    HX16980   4.609   0.460  10.430 -2.3709  1.6464  0.9314
  153SAPE    HY16981   4.498   0.332  10.455  0.2020 -0.3499  0.3613
  153SAPE   O3116982   4.437   0.470  10.313 -0.1755  0.6371  0.4485
  153SAPE   C3116983   4.330   0.399  10.263  1.1633 -1.1842 -0.1816
  153SAPE   O3216984   4.311   0.278  10.278  0.1499 -0.0270 -0.2326
  153SAPE   C3216985   4.246   0.498  10.184 -0.0602  0.1735  0.6221
  153SAPE   H2X16986   4.261   0.605  10.208 -1.7222  0.2846  1.2996
  153SAPE   H2Y16987   4.141   0.467  10.201  0.2006 -0.8897  0.4133
  153SAPE   C2316988   4.797   0.424   9.873 -0.3584 -0.1099  0.5786
  153SAPE   H3R16989   4.732   0.514   9.870  0.5947  0.5661 -0.9823
  153SAPE   H3S16990   4.741   0.339   9.829 -1.6539  0.8702  0.2758
  153SAPE   C2416991   4.914   0.448   9.771  0.5547  0.1693  0.0060
  153SAPE   H4R16992   4.963   0.348   9.765 -1.3266 -0.7616 -0.4599
  153SAPE   H4S16993   4.987   0.517   9.818  1.5475 -2.3067  2.3799
  153SAPE   C2516994   4.861   0.502   9.640  0.1945 -0.2119 -0.4945
  153SAPE   H5R16995   4.759   0.545   9.645  0.0803 -0.5861  0.8186
  153SAPE   C2616996   4.909   0.481   9.518  0.3230  0.1118 -0.0939
  153SAPE   H6R16997   4.868   0.532   9.429 -0.5744 -0.8745 -0.2597
  153SAPE   C2716998   5.043   0.416   9.485  0.8688 -0.8507  0.0872
  153SAPE   H7R16999   5.098   0.399   9.580  0.8983  0.3260  0.2941
  153SAPE   H7S17000   5.107   0.493   9.438 -0.3725  0.6282  0.7346
  153SAPE   C2817001   5.032   0.290   9.406 -0.2002 -1.6374 -0.1566
  153SAPE   H8R17002   4.995   0.206   9.468  0.8585 -1.3549  0.8949
  153SAPE   C2917003   5.025   0.287   9.274  0.0501 -0.1317  0.3550
  153SAPE   H9R17004   5.021   0.185   9.233  1.4468  0.0476 -0.2916
  153SAPE  C21017005   5.037   0.404   9.183 -0.3822  0.1108  0.0890
  153SAPE  H10R17006   5.144   0.429   9.165 -0.6249 -0.3961 -2.3085
  153SAPE  H10S17007   5.006   0.497   9.235  1.0970  1.0338 -0.6100
  153SAPE  C21117008   4.972   0.409   9.050  0.0540  0.0445  0.3176
  153SAPE  H11R17009   4.862   0.415   9.058  0.0257  0.0292 -0.0724
  153SAPE  C21217010   5.030   0.414   8.926  0.4541 -0.2053  0.8286
  153SAPE  H12R17011   4.968   0.427   8.836 -0.5131 -3.8927  0.7951
  153SAPE  C21317012   5.184   0.428   8.899 -0.7417 -0.2448  0.2875
  153SAPE  H13R17013   5.215   0.423   8.792  0.7449  1.1672  0.6052
  153SAPE  H13S17014   5.226   0.342   8.954  0.3464  0.4537  0.5869
  153SAPE  C21417015   5.263   0.545   8.958  0.1401  0.5904  0.4245
  153SAPE  H14R17016   5.203   0.601   9.031  0.0227 -0.5318  1.2220
  153SAPE  C21517017   5.386   0.588   8.928 -0.1747  0.0235 -0.3778
  153SAPE  H15R17018   5.420   0.687   8.961  2.2750 -0.6448 -0.7006
  153SAPE  C21617019   5.479   0.523   8.832 -0.4235 -0.5505  0.2752
  153SAPE  H16R17020   5.484   0.413   8.847  1.0736 -0.4822  0.4676
  153SAPE  H16S17021   5.581   0.553   8.866 -0.0760 -1.6474  0.2339
  153SAPE  C21717022   5.459   0.536   8.679 -0.4213  0.3587 -0.2361
  153SAPE  H17R17023   5.428   0.637   8.645  1.9533  0.4637 -2.3855
  153SAPE  H17S17024   5.394   0.453   8.643 -0.3857  0.4291 -0.4640
  153SAPE  C21817025   5.604   0.522   8.615  0.7870 -0.3795 -0.3077
  153SAPE  H18R17026   5.636   0.420   8.647 -1.0773 -0.5243  1.2252
  153SAPE  H18S17027   5.680   0.594   8.652  0.2162 -0.4771  1.1108
  153SAPE  C21917028   5.589   0.526   8.461 -0.6589 -0.2100  1.1425
  153SAPE  H19R17029   5.536   0.623   8.449 -1.8364 -0.7389  1.8122
  153SAPE  H19S17030   5.523   0.448   8.418  0.6176 -0.6366 -0.0968
  153SAPE  C22017031   5.725   0.522   8.380 -0.0832  0.6240 -0.7929
  153SAPE  H20R17032   5.789   0.586   8.444  1.6527  0.8103 -2.6101
  153SAPE  H20S17033   5.728   0.561   8.276  1.4019  1.7709 -0.3559
  153SAPE  H20T17034   5.761   0.417   8.375 -2.2595 -0.2947  1.1334
  153SAPE   C3317035   4.271   0.485  10.032 -0.2567 -0.5641 -0.3612
  153SAPE   H3X17036   4.186   0.539   9.985 -0.4130 -0.3375  0.1632
  153SAPE   H3Y17037   4.278   0.382   9.991  1.0279 -0.4991 -0.3458
  153SAPE   C3417038   4.395   0.569  10.004  0.0830  0.5867 -0.1199
  153SAPE   H4X17039   4.478   0.534  10.070  1.4073  1.3343 -1.3194
  153SAPE   H4Y17040   4.371   0.671  10.041 -0.0004  0.4151  0.3005
  153SAPE   C3517041   4.437   0.576   9.856  0.0843 -0.1070 -0.1757
  153SAPE   H5X17042   4.469   0.477   9.817 -3.6386 -1.2969 -0.6236
  153SAPE   H5Y17043   4.515   0.655   9.855 -0.4353  0.4827  1.7373
  153SAPE   C3617044   4.321   0.622   9.775  0.5940 -0.2164  0.6707
  153SAPE   H6X17045   4.372   0.692   9.705 -0.0007  0.5748  1.0053
  153SAPE   H6Y17046   4.253   0.683   9.839  0.0422  0.1249 -0.2317
  153SAPE   C3717047   4.231   0.516   9.704 -0.5780 -0.3968  0.0158
  153SAPE   H7X17048   4.165   0.463   9.777  0.9706 -0.9371  1.0728
  153SAPE   H7Y17049   4.299   0.436   9.668  2.6042  2.9321 -1.9733
  153SAPE   C3817050   4.136   0.568   9.597  0.2157  0.2776 -0.0509
  153SAPE   H8X17051   4.180   0.608   9.503 -2.1468  3.9840  0.1938
  153SAPE   H8Y17052   4.072   0.655   9.626 -0.2217  0.0525 -0.3222
  153SAPE   C3917053   4.038   0.455   9.543 -0.5253  0.2884 -0.4284
  153SAPE   H9X17054   3.974   0.409   9.621  1.9770 -1.2390  0.8966
  153SAPE   H9Y17055   4.101   0.379   9.493  1.5786  0.5713  1.5923
  153SAPE  C31017056   3.936   0.518   9.448  0.3603  0.1862  0.1522
  153SAPE  H10X17057   3.985   0.601   9.393 -0.7647 -0.1698 -1.4383
  153SAPE  H10Y17058   3.848   0.560   9.501  1.0792  0.1986  1.3745
  153SAPE  C31117059   3.890   0.423   9.332 -0.1989  0.4019 -0.0330
  153SAPE  H11X17060   3.845   0.329   9.371 -0.1788  0.6263  0.5527
  153SAPE  H11Y17061   3.983   0.396   9.279 -0.2000  0.8330 -0.2648
  153SAPE  C31217062   3.789   0.494   9.242  0.2689 -0.4772  0.5506
  153SAPE  H12X17063   3.840   0.580   9.194 -1.6880 -0.2116 -1.2111
  153SAPE  H12Y17064   3.698   0.523   9.299 -0.1196  1.4645 -0.9559
  153SAPE  C31317065   3.755   0.412   9.115 -0.0823  0.3705  0.5500
  153SAPE  H13X17066   3.763   0.306   9.146 -0.4480  0.7111  1.8362
  153SAPE  H13Y17067   3.847   0.424   9.053  0.3409  1.7505  1.4033
  153SAPE  C31417068   3.630   0.458   9.042  0.6125  0.1087 -1.0442
  153SAPE  H14X17069   3.633   0.560   8.999 -1.5086  1.5436  1.8445
  153SAPE  H14Y17070   3.549   0.454   9.118  1.1885  2.3395 -0.2610
  153SAPE  C31517071   3.595   0.382   8.912  0.1946  1.0407  0.1323
  153SAPE  H15X17072   3.489   0.408   8.891  0.4916  2.7782  0.6918
  153SAPE  H15Y17073   3.601   0.272   8.926  0.6323  1.0048 -0.3262
  153SAPE  C31617074   3.684   0.418   8.790 -0.1965  0.0385  0.0496
  153SAPE  H16X17075   3.787   0.382   8.812 -1.2301 -4.5270 -1.4305
  153SAPE  H16Y17076   3.676   0.526   8.767  0.7694 -0.2199 -1.6689
  153SAPE  C31717077   3.643   0.340   8.660 -0.2192 -0.1265 -0.7817
  153SAPE  H17X17078   3.645   0.229   8.667  1.4789 -0.0299  3.9137
  153SAPE  H17Y17079   3.730   0.354   8.593  0.6279  0.7245  0.4487
  153SAPE  C31817080   3.528   0.406   8.590 -0.5737  0.2396  0.3319
  153SAPE  H18X17081   3.441   0.372   8.650  1.2228 -1.0413  2.3719
  153SAPE  H18Y17082   3.516   0.378   8.483  0.3254  0.0810  0.2621
  153SAPE  H18Z17083   3.533   0.516   8.597 -0.9356  0.2116  1.1397
  154SAPE     N17084   4.975   3.586  11.082  0.7663 -0.8508  0.7108
  154SAPE   HN117085   5.024   3.641  11.009  0.4846 -0.2551  0.9668
  154SAPE   HN217086   4.907   3.643  11.136 -0.6396 -0.0211 -1.7621
  154SAPE   HN317087   5.036   3.560  11.161  1.1234  3.2024  1.9694
  154SAPE   C1217088   4.914   3.459  11.029 -0.0846  0.2930  0.6420
  154SAPE  H12A17089   4.895   3.478  10.921 -2.5105  2.3310  1.3530
  154SAPE  H12B17090   4.815   3.445  11.078 -0.9113 -1.8177 -1.3997
  154SAPE   C1117091   5.021   3.349  11.060  0.1598  0.1207  0.1583
  154SAPE  H11A17092   4.995   3.265  10.992  0.8061  1.4661 -1.8495
  154SAPE  H11B17093   5.015   3.324  11.169  2.9585  3.5835  1.2933
  154SAPE     P17094   5.264   3.293  10.998  0.3329  0.3825  0.6959
  154SAPE   O1317095   5.391   3.362  10.984 -0.3799  0.0721  0.4078
  154SAPE   O1417096   5.249   3.175  11.092 -0.5469 -0.1223 -0.2634
  154SAPE   O1217097   5.150   3.394  11.030  0.2540 -0.1962  0.5728
  154SAPE   O1117098   5.228   3.237  10.857 -0.1803  0.1968  0.4643
  154SAPE    C117099   5.156   3.313  10.758 -0.0635 -0.2719  0.1239
  154SAPE    HA17100   5.053   3.272  10.764  0.0594 -1.1386 -2.4387
  154SAPE    HB17101   5.146   3.422  10.776  3.0231  0.0081  0.6802
  154SAPE    C217102   5.215   3.299  10.615  0.0084  0.2378  0.1331
  154SAPE    HS17103   5.149   3.359  10.549  0.9636  0.8868 -0.2531
  154SAPE   O2117104   5.225   3.167  10.559 -0.2080 -0.3910 -0.1288
  154SAPE   C2117105   5.113   3.106  10.518 -0.3965  0.7926 -0.5753
  154SAPE   O2217106   5.001   3.152  10.513 -0.2588 -0.5501 -0.1138
  154SAPE   C2217107   5.158   2.970  10.459 -0.2952  0.1514 -0.2918
  154SAPE   H2R17108   5.262   2.951  10.491  0.5965  1.0753 -2.4346
  154SAPE   H2S17109   5.082   2.895  10.490  0.1365 -0.8241 -1.4999
  154SAPE    C317110   5.356   3.367  10.611  0.6549 -0.8718  0.0749
  154SAPE    HX17111   5.432   3.313  10.672  2.1466  0.2663 -0.7015
  154SAPE    HY17112   5.365   3.465  10.662 -1.2365 -0.9310  0.5938
  154SAPE   O3117113   5.402   3.379  10.473 -0.0759 -0.2342 -0.6677
  154SAPE   C3117114   5.370   3.486  10.413 -0.3195 -0.3139 -0.0584
  154SAPE   O3217115   5.296   3.570  10.465  0.1046  0.8177 -0.1257
  154SAPE   C3217116   5.424   3.482  10.268  0.2429 -0.5936 -0.6750
  154SAPE   H2X17117   5.383   3.390  10.222  1.6394 -1.5616 -0.0702
  154SAPE   H2Y17118   5.534   3.464  10.276  0.5994  1.8998  1.8865
  154SAPE   C2317119   5.174   2.979  10.304  0.1636  0.4509  0.0977
  154SAPE   H3R17120   5.262   3.038  10.271  1.4207 -0.3498  1.8648
  154SAPE   H3S17121   5.082   3.028  10.265  0.0298  0.5118  0.4917
  154SAPE   C2417122   5.177   2.845  10.228 -0.1194  0.2213  0.5640
  154SAPE   H4R17123   5.202   2.853  10.120  0.3284 -1.8603  0.4653
  154SAPE   H4S17124   5.085   2.784  10.240 -0.3098  0.4453  0.2532
  154SAPE   C2517125   5.291   2.763  10.289 -0.7854 -0.6416  0.0774
  154SAPE   H5R17126   5.270   2.718  10.388 -1.3982 -2.2481 -0.7371
  154SAPE   C2617127   5.398   2.718  10.219 -0.4815  0.1491  0.1928
  154SAPE   H6R17128   5.469   2.659  10.280 -0.7311 -0.1976  0.1489
  154SAPE   C2717129   5.441   2.752  10.075 -0.1561  0.5901  0.0548
  154SAPE   H7R17130   5.445   2.860  10.049  0.9157  0.3676 -0.7718
  154SAPE   H7S17131   5.379   2.718   9.989 -0.6838 -0.8490  0.9699
  154SAPE   C2817132   5.591   2.719  10.057  0.5529 -1.2238  0.0064
  154SAPE   H8R17133   5.641   2.694  10.151 -0.7554  0.5832  1.2574
  154SAPE   C2917134   5.667   2.731   9.949 -0.4498  0.6112 -0.1242
  154SAPE   H9R17135   5.773   2.714   9.972 -0.6806 -0.7763  0.0174
  154SAPE  C21017136   5.624   2.747   9.804  0.8974  0.0444 -0.4827
  154SAPE  H10R17137   5.612   2.855   9.783 -3.1016  0.1347  1.3069
  154SAPE  H10S17138   5.518   2.713   9.798  0.4866  1.2929 -0.5378
  154SAPE  C21117139   5.691   2.681   9.698 -0.4343 -0.6047 -0.1884
  154SAPE  H11R17140   5.764   2.600   9.717  1.1070  0.4640 -1.3754
  154SAPE  C21217141   5.654   2.696   9.570 -0.6253  0.7232 -0.6782
  154SAPE  H12R17142   5.716   2.640   9.499 -0.2048  1.3582 -0.8215
  154SAPE  C21317143   5.554   2.789   9.517  0.6872 -0.1591 -0.0916
  154SAPE  H13R17144   5.587   2.800   9.411  3.4260 -1.1789  0.5836
  154SAPE  H13S17145   5.570   2.889   9.564  0.8099  1.2216 -2.8197
  154SAPE  C21417146   5.418   2.729   9.542  0.3668  0.6467  0.2398
  154SAPE  H14R17147   5.366   2.769   9.630 -2.2676 -0.0494 -0.9102
  154SAPE  C21517148   5.362   2.638   9.458  0.1485 -0.6035  0.7420
  154SAPE  H15R17149   5.269   2.589   9.492  0.9997 -1.4042  1.9849
  154SAPE  C21617150   5.428   2.573   9.339  0.3035 -0.3697  0.3106
  154SAPE  H16R17151   5.405   2.464   9.339 -1.4089 -0.0704 -1.3355
  154SAPE  H16S17152   5.536   2.596   9.348  0.1920 -0.5519  2.5677
  154SAPE  C21717153   5.369   2.631   9.204 -0.2758  0.4382  0.1823
  154SAPE  H17R17154   5.377   2.741   9.207  2.4770  0.2912  1.7352
  154SAPE  H17S17155   5.259   2.612   9.201 -0.6305  2.4282 -0.2113
  154SAPE  C21817156   5.432   2.564   9.075  0.0031 -0.6563  0.2048
  154SAPE  H18R17157   5.392   2.464   9.050  0.1385 -0.7482  0.3568
  154SAPE  H18S17158   5.537   2.551   9.108 -0.1113 -0.2366  0.7577
  154SAPE  C21917159   5.438   2.650   8.949  0.1115  0.0508 -0.0156
  154SAPE  H19R17160   5.484   2.746   8.983 -0.2458  1.8687 -4.0824
  154SAPE  H19S17161   5.334   2.669   8.917  0.3365  0.3505 -0.5905
  154SAPE  C22017162   5.515   2.581   8.838  0.5778 -0.1782  0.4411
  154SAPE  H20R17163   5.525   2.641   8.745 -1.4659  0.4916  0.5978
  154SAPE  H20S17164   5.446   2.496   8.819  1.2588 -0.6381  0.0133
  154SAPE  H20T17165   5.613   2.542   8.873  0.4154 -1.2211 -0.2217
  154SAPE   C3317166   5.378   3.601  10.181  0.2932 -0.6750  0.3473
  154SAPE   H3X17167   5.392   3.701  10.228  0.2999 -0.0884 -0.8474
  154SAPE   H3Y17168   5.270   3.580  10.163  0.9856 -2.2417 -2.6598
  154SAPE   C3417169   5.444   3.604  10.044  0.0254  0.6898 -0.7101
  154SAPE   H4X17170   5.435   3.505   9.993  1.9266  0.5077 -0.7842
  154SAPE   H4Y17171   5.555   3.608  10.049  0.0817  1.5670 -2.2292
  154SAPE   C3517172   5.380   3.705   9.952  0.1016  0.2855  0.3642
  154SAPE   H5X17173   5.379   3.803  10.004  0.9450  0.9726 -0.8423
  154SAPE   H5Y17174   5.274   3.673   9.942 -0.6480  2.9623 -1.5368
  154SAPE   C3617175   5.447   3.728   9.818  0.2282  0.3347  0.7330
  154SAPE   H6X17176   5.555   3.752   9.833 -0.0446  1.5822  0.7835
  154SAPE   H6Y17177   5.404   3.815   9.765 -0.0501 -0.1414  0.1764
  154SAPE   C3717178   5.420   3.605   9.731 -0.0612 -0.0216  0.9093
  154SAPE   H7X17179   5.311   3.584   9.732 -0.0966 -0.0212 -0.7001
  154SAPE   H7Y17180   5.466   3.513   9.774  0.7972 -0.6674 -1.2667
  154SAPE   C3817181   5.457   3.638   9.582 -0.2135  0.0588 -0.5680
  154SAPE   H8X17182   5.555   3.692   9.576 -0.5970  1.0030  1.0634
  154SAPE   H8Y17183   5.379   3.708   9.543 -3.0922 -1.5795  1.8951
  154SAPE   C3917184   5.463   3.498   9.514 -0.1398 -0.3773 -0.2399
  154SAPE   H9X17185   5.359   3.460   9.510  1.1356 -4.3678  0.0041
  154SAPE   H9Y17186   5.513   3.422   9.578  0.5971 -2.6533 -3.2625
  154SAPE  C31017187   5.536   3.512   9.376  0.4738  0.1839  0.0530
  154SAPE  H10X17188   5.642   3.534   9.401  0.6075  2.5879 -2.2843
  154SAPE  H10Y17189   5.493   3.596   9.319  1.1979 -0.0921 -0.9320
  154SAPE  C31117190   5.528   3.387   9.285  0.7120  0.5101 -0.0783
  154SAPE  H11X17191   5.427   3.345   9.305  1.5685 -1.4599  0.2767
  154SAPE  H11Y17192   5.590   3.299   9.313 -1.7568 -1.2535  0.1575
  154SAPE  C31217193   5.540   3.423   9.133  1.1711  0.2334  0.3713
  154SAPE  H12X17194   5.649   3.435   9.114  1.4080 -2.6538 -0.6070
  154SAPE  H12Y17195   5.477   3.511   9.112  1.1552 -0.2034 -1.6010
  154SAPE  C31317196   5.487   3.314   9.039  0.6058  0.3167  0.0919
  154SAPE  H13X17197   5.395   3.277   9.089  2.0304 -3.2866  0.3320
  154SAPE  H13Y17198   5.556   3.228   9.043  1.1130  0.6956 -0.3975
  154SAPE  C31417199   5.442   3.371   8.905  0.1040 -0.0977  0.2188
  154SAPE  H14X17200   5.523   3.408   8.839  1.5433 -1.9843  0.8301
  154SAPE  H14Y17201   5.361   3.442   8.931 -2.2573 -2.4407 -0.3168
  154SAPE  C31517202   5.371   3.264   8.818 -0.5112  0.8302  0.1631
  154SAPE  H15X17203   5.316   3.301   8.729  3.3877  2.2588 -1.8608
  154SAPE  H15Y17204   5.291   3.211   8.875 -0.8458  1.4263  0.2591
  154SAPE  C31617205   5.470   3.160   8.761  0.2966 -0.2785 -0.8589
  154SAPE  H16X17206   5.505   3.090   8.840  0.7242 -0.5733 -1.3004
  154SAPE  H16Y17207   5.567   3.206   8.729  1.1340  0.1435  1.9858
  154SAPE  C31717208   5.406   3.084   8.645 -0.4006  0.1009  0.5008
  154SAPE  H17X17209   5.353   3.156   8.579 -0.0632  2.9600  3.1637
  154SAPE  H17Y17210   5.326   3.016   8.682 -1.6630  1.1975 -0.1426
  154SAPE  C31817211   5.505   3.002   8.557 -0.4071  0.3589  0.0496
  154SAPE  H18X17212   5.448   2.968   8.468 -0.1695  0.4424 -0.1387
  154SAPE  H18Y17213   5.535   2.911   8.612  1.4600  0.2907 -0.9822
  154SAPE  H18Z17214   5.593   3.063   8.525 -0.4885  1.4265  1.7332
  155SAPE     N17215   5.903   2.332  10.747  0.2246 -0.7249  0.0419
  155SAPE   HN117216   6.006   2.322  10.735  0.2876  0.7182 -0.8491
  155SAPE   HN217217   5.887   2.429  10.780  2.2398  0.1071 -1.2300
  155SAPE   HN317218   5.869   2.262  10.816 -3.3333  2.1062  1.4861
  155SAPE   C1217219   5.848   2.310  10.608 -0.2335  0.2790 -0.6852
  155SAPE  H12A17220   5.737   2.302  10.611 -0.0811 -2.5207 -0.0247
  155SAPE  H12B17221   5.899   2.219  10.569  0.0060  0.6089 -1.1567
  155SAPE   C1117222   5.890   2.420  10.511  0.9147 -0.3349  0.2813
  155SAPE  H11A17223   5.865   2.392  10.406  1.9894 -2.7466  0.6147
  155SAPE  H11B17224   6.000   2.435  10.513  1.3235 -3.0101  1.7680
  155SAPE     P17225   5.721   2.621  10.516 -0.0095  0.5458 -0.1419
  155SAPE   O1317226   5.601   2.537  10.521  0.5413  0.2115  0.1512
  155SAPE   O1417227   5.721   2.748  10.590 -0.0836 -0.0397  0.3498
  155SAPE   O1217228   5.841   2.535  10.563  0.4061 -0.2156  0.2807
  155SAPE   O1117229   5.751   2.658  10.368  0.4442 -0.2378 -0.7366
  155SAPE    C117230   5.859   2.737  10.319 -1.2765  0.4645 -1.0615
  155SAPE    HA17231   5.959   2.706  10.355 -1.1897  0.2541 -1.4889
  155SAPE    HB17232   5.853   2.730  10.209  2.0528  0.0069 -1.3106
  155SAPE    C217233   5.849   2.884  10.341  0.4817 -0.4725  0.5441
  155SAPE    HS17234   5.831   2.903  10.449  0.2183 -0.5351  0.5122
  155SAPE   O2117235   5.744   2.938  10.259 -0.1724  1.1010 -0.1146
  155SAPE   C2117236   5.682   3.042  10.306  0.4984 -0.0079  0.1037
  155SAPE   O2217237   5.714   3.101  10.412 -0.0305 -0.2590  0.5109
  155SAPE   C2217238   5.565   3.093  10.224 -0.3355  0.9881 -0.6410
  155SAPE   H2R17239   5.518   2.996  10.197  1.1580 -0.8309  2.6591
  155SAPE   H2S17240   5.497   3.158  10.283  0.8795  1.2398  0.5160
  155SAPE    C317241   5.985   2.962  10.312  0.1091 -0.0214 -0.4241
  155SAPE    HX17242   6.067   2.921  10.376  0.7119  0.2923 -0.9837
  155SAPE    HY17243   5.972   3.070  10.333  1.9481  0.3509 -0.9647
  155SAPE   O3117244   6.030   2.950  10.174  0.4352  0.0222 -0.1509
  155SAPE   C3117245   5.980   3.037  10.090 -0.6329 -0.0356  0.2057
  155SAPE   O3217246   5.924   3.143  10.114 -0.3234  1.0866 -0.3206
  155SAPE   C3217247   6.015   2.994   9.952 -0.0246  0.0437  0.2026
  155SAPE   H2X17248   6.022   2.884   9.936  0.9282  0.1158  0.0622
  155SAPE   H2Y17249   6.116   3.031   9.925 -0.0568  0.2508  0.3643
  155SAPE   C2317250   5.614   3.162  10.091  0.3473  0.3201 -0.6581
  155SAPE   H3R17251   5.680   3.095  10.032 -1.8858 -1.1998 -1.5641
  155SAPE   H3S17252   5.661   3.261  10.104  3.1959 -1.2515  2.6392
  155SAPE   C2417253   5.489   3.186  10.003 -0.3968 -0.1530 -0.2886
  155SAPE   H4R17254   5.432   3.268  10.053  1.4857  2.2215 -1.8027
  155SAPE   H4S17255   5.437   3.088  10.011  0.3448 -0.5206  0.1384
  155SAPE   C2517256   5.497   3.238   9.860 -0.1009  0.8324  0.1240
  155SAPE   H5R17257   5.560   3.324   9.836  2.1650 -0.9312 -0.6515
  155SAPE   C2617258   5.428   3.183   9.754  0.6760  0.8874 -0.3523
  155SAPE   H6R17259   5.452   3.223   9.655 -2.3847  0.4088 -1.3976
  155SAPE   C2717260   5.336   3.061   9.757 -0.3936 -0.6780 -0.3004
  155SAPE   H7R17261   5.386   2.978   9.811  1.8904  0.8045 -0.0137
  155SAPE   H7S17262   5.316   3.029   9.652 -2.7745  0.3281 -0.2139
  155SAPE   C2817263   5.202   3.090   9.813 -0.0247  0.3548  0.8165
  155SAPE   H8R17264   5.196   3.141   9.911  1.8496 -2.0435  2.3048
  155SAPE   C2917265   5.085   3.058   9.746  0.2153 -0.1630 -0.3364
  155SAPE   H9R17266   4.992   3.078   9.800  0.3998 -2.1201  0.8228
  155SAPE  C21017267   5.072   2.965   9.625 -0.9325 -0.2012 -0.5212
  155SAPE  H10R17268   4.994   2.892   9.656 -1.1820 -0.1187 -0.9494
  155SAPE  H10S17269   5.163   2.904   9.611  1.2025  2.1335  2.0671
  155SAPE  C21117270   5.035   3.031   9.495 -0.0191 -0.1510  0.0680
  155SAPE  H11R17271   4.950   3.100   9.505 -0.0333 -0.2648  0.8304
  155SAPE  C21217272   5.095   3.019   9.377  0.3295 -0.1484  0.0046
  155SAPE  H12R17273   5.039   3.058   9.291 -1.6539 -0.2026  1.2293
  155SAPE  C21317274   5.216   2.942   9.330 -0.6643 -0.5454  0.3792
  155SAPE  H13R17275   5.187   2.843   9.290  0.0731  0.2073 -2.1780
  155SAPE  H13S17276   5.299   2.930   9.403 -0.4517 -1.5287 -0.0137
  155SAPE  C21417277   5.294   3.014   9.220  0.1902  0.0218  0.0095
  155SAPE  H14R17278   5.379   3.066   9.267  1.4240 -2.3074  0.5370
  155SAPE  C21517279   5.277   3.011   9.085 -0.1797  0.6860 -0.1781
  155SAPE  H15R17280   5.351   3.067   9.026  1.0726 -0.1117  0.5992
  155SAPE  C21617281   5.172   2.925   9.010 -0.1684  0.1876 -0.7973
  155SAPE  H16R17282   5.103   2.875   9.082  1.8944  1.2776  2.0983
  155SAPE  H16S17283   5.220   2.837   8.962 -0.9546 -2.5586  2.9643
  155SAPE  C21717284   5.103   3.007   8.905 -0.6278 -0.5077  0.1825
  155SAPE  H17R17285   5.190   3.039   8.844  0.3706 -0.8908  1.3756
  155SAPE  H17S17286   5.061   3.101   8.947 -2.0750 -1.2051  0.3530
  155SAPE  C21817287   4.991   2.932   8.829 -0.0744  0.5473 -1.0152
  155SAPE  H18R17288   4.915   2.917   8.909 -0.4464  2.7363 -0.8955
  155SAPE  H18S17289   5.039   2.840   8.790 -0.8925 -0.4578  0.2634
  155SAPE  C21917290   4.933   3.010   8.714 -0.1514 -0.7035  0.7528
  155SAPE  H19R17291   5.014   3.034   8.642 -0.7831 -0.4302  0.1198
  155SAPE  H19S17292   4.911   3.114   8.747  0.1135  0.5338 -2.5657
  155SAPE  C22017293   4.833   2.926   8.639 -0.6513  0.3536 -0.1640
  155SAPE  H20R17294   4.748   2.897   8.704 -0.4490 -0.6601 -0.3304
  155SAPE  H20S17295   4.878   2.828   8.608 -3.7463 -2.1159  2.4649
  155SAPE  H20T17296   4.795   2.977   8.548  2.6870 -0.5147 -2.2613
  155SAPE   C3317297   5.909   3.039   9.841  0.1282 -0.0199 -0.1041
  155SAPE   H3X17298   5.903   3.150   9.839 -0.2766  0.0550  2.1031
  155SAPE   H3Y17299   5.813   2.994   9.873  1.3374 -2.4689  0.3071
  155SAPE   C3417300   5.943   3.003   9.696  0.0476 -0.1482  0.1016
  155SAPE   H4X17301   5.949   2.892   9.683  1.6707 -0.0399 -0.3520
  155SAPE   H4Y17302   6.045   3.037   9.669 -0.1341  0.4827  0.1961
  155SAPE   C3517303   5.840   3.056   9.595  0.1021 -0.5216  0.0220
  155SAPE   H5X17304   5.846   3.167   9.601 -0.4525 -0.3211 -2.0618
  155SAPE   H5Y17305   5.744   3.019   9.635 -1.1876  0.3818 -2.0580
  155SAPE   C3617306   5.852   3.008   9.452  0.0529 -0.3779  0.5365
  155SAPE   H6X17307   5.845   2.897   9.449 -1.4723 -0.2795 -2.2185
  155SAPE   H6Y17308   5.951   3.048   9.422 -0.2730  1.6171  1.9239
  155SAPE   C3717309   5.760   3.071   9.345  0.1338  0.4947 -0.1267
  155SAPE   H7X17310   5.777   3.181   9.351  0.6940  0.5477 -1.9508
  155SAPE   H7Y17311   5.651   3.051   9.357  0.4142 -0.1217  1.7428
  155SAPE   C3817312   5.799   3.025   9.202  0.3336  0.1353  0.1116
  155SAPE   H8X17313   5.717   3.060   9.135  0.5891  1.3412  0.4139
  155SAPE   H8Y17314   5.814   2.915   9.203  1.5888  0.2894 -0.3413
  155SAPE   C3917315   5.922   3.074   9.123 -0.2917  0.6362  0.0471
  155SAPE   H9X17316   6.013   3.043   9.180  1.0377  1.0158 -1.7673
  155SAPE   H9Y17317   5.920   3.181   9.094  0.2822  0.3641 -1.0414
  155SAPE  C31017318   5.942   3.018   8.979 -0.1672  0.6697 -0.6366
  155SAPE  H10X17319   5.955   2.909   8.999  0.0421  0.6207 -1.0240
  155SAPE  H10Y17320   6.043   3.050   8.946  0.7889  0.1071  1.5343
  155SAPE  C31117321   5.833   3.037   8.875  0.1265 -0.4144 -0.3749
  155SAPE  H11X17322   5.809   3.144   8.861 -1.0891 -0.0242  3.5930
  155SAPE  H11Y17323   5.741   2.983   8.908  0.8836 -0.5648  1.6449
  155SAPE  C31217324   5.877   2.967   8.740  0.3766 -0.2717  0.2162
  155SAPE  H12X17325   5.782   2.968   8.682  0.2028  0.1876  0.5040
  155SAPE  H12Y17326   5.887   2.860   8.769 -0.9672 -0.4092  0.2605
  155SAPE  C31317327   5.977   3.053   8.658 -0.1586 -0.3806 -0.2692
  155SAPE  H13X17328   6.063   3.060   8.728  0.7491 -2.0372 -1.1691
  155SAPE  H13Y17329   5.929   3.154   8.656 -0.3969 -0.4392  1.0276
  155SAPE  C31417330   6.029   2.994   8.532  1.0911 -0.7886  0.5638
  155SAPE  H14X17331   6.106   2.915   8.547  0.4517 -1.1112  2.3861
  155SAPE  H14Y17332   6.084   3.073   8.477  1.7759 -2.0573 -0.6686
  155SAPE  C31517333   5.921   2.938   8.434  0.0820 -0.1616  0.3025
  155SAPE  H15X17334   5.849   3.013   8.395  0.8493 -0.6001 -2.0701
  155SAPE  H15Y17335   5.852   2.864   8.481 -1.4901  0.5551 -0.7829
  155SAPE  C31617336   5.976   2.890   8.303 -0.2944  0.3338  0.0369
  155SAPE  H16X17337   6.040   2.801   8.314  0.4514  0.8032 -0.4480
  155SAPE  H16Y17338   6.028   2.970   8.246 -0.6153 -0.4338 -1.3835
  155SAPE  C31717339   5.866   2.858   8.207  0.6608  0.0678  0.7444
  155SAPE  H17X17340   5.891   2.881   8.102 -1.2966  0.1577  0.2523
  155SAPE  H17Y17341   5.774   2.906   8.246  1.2386  1.2986  0.6116
  155SAPE  C31817342   5.845   2.703   8.196 -0.2081 -0.1215  0.4624
  155SAPE  H18X17343   5.759   2.700   8.127 -0.3126  1.6182  0.4933
  155SAPE  H18Y17344   5.818   2.656   8.293 -1.0241 -1.3531 -0.3348
  155SAPE  H18Z17345   5.934   2.654   8.150  0.0515  0.4599  0.3344
  156SAPE     N17346   3.471   0.950  11.005 -0.1331 -0.7847 -0.2947
  156SAPE   HN117347   3.402   1.009  11.056  0.5096  2.3743 -2.7853
  156SAPE   HN217348   3.552   1.013  10.992  0.3085 -1.3035 -0.1127
  156SAPE   HN317349   3.427   0.945  10.911 -1.1271  0.3837  0.0821
  156SAPE   C1217350   3.505   0.815  11.060  0.5028  0.0742 -0.2874
  156SAPE  H12A17351   3.540   0.830  11.164  1.5328 -0.6839 -0.5086
  156SAPE  H12B17352   3.595   0.777  11.008  0.9165  0.3767  0.1959
  156SAPE   C1117353   3.385   0.722  11.069 -0.0264 -0.3714  0.5032
  156SAPE  H11A17354   3.329   0.750  11.161 -1.1213  2.2275 -0.8432
  156SAPE  H11B17355   3.426   0.621  11.090  1.6920  0.4261  1.1238
  156SAPE     P17356   3.282   0.616  10.854  0.0607 -0.2225  0.2722
  156SAPE   O1317357   3.216   0.507  10.930 -0.4933  0.5074 -0.1008
  156SAPE   O1417358   3.223   0.663  10.732 -0.2252  0.0515  0.1975
  156SAPE   O1217359   3.295   0.738  10.956 -0.0294 -0.0870  0.4925
  156SAPE   O1117360   3.426   0.561  10.824  0.1500  0.5777 -0.1305
  156SAPE    C117361   3.497   0.623  10.717 -0.3896  0.3668  0.2561
  156SAPE    HA17362   3.471   0.731  10.706  0.1525  0.5401  0.6293
  156SAPE    HB17363   3.606   0.611  10.735 -0.3807  0.1512  0.0539
  156SAPE    C217364   3.481   0.550  10.579 -0.2598  1.0755 -0.1716
  156SAPE    HS17365   3.380   0.563  10.536 -0.6280 -2.5996 -0.8151
  156SAPE   O2117366   3.517   0.407  10.602 -0.6722  0.1149  0.2635
  156SAPE   C2117367   3.455   0.322  10.517 -0.4329  0.2162 -0.1966
  156SAPE   O2217368   3.369   0.345  10.434 -0.0144 -0.3119 -0.5322
  156SAPE   C2217369   3.513   0.187  10.555  0.3299  0.2055 -0.4108
  156SAPE   H2R17370   3.502   0.177  10.665  0.8256 -1.1129 -0.4671
  156SAPE   H2S17371   3.456   0.103  10.509 -2.0656  1.3573  0.2795
  156SAPE    C317372   3.580   0.627  10.483  0.3986 -0.1722  0.8633
  156SAPE    HX17373   3.682   0.598  10.515  0.2994 -0.5857  0.8104
  156SAPE    HY17374   3.563   0.734  10.508 -0.5477 -0.1010 -0.0096
  156SAPE   O3117375   3.546   0.610  10.346 -0.1043  0.1077 -0.2750
  156SAPE   C3117376   3.639   0.579  10.252 -0.6248 -0.1081 -0.5687
  156SAPE   O3217377   3.757   0.556  10.279 -0.0655 -0.1255  0.2835
  156SAPE   C3217378   3.571   0.583  10.111 -0.1943  0.2053 -0.1157
  156SAPE   H2X17379   3.633   0.516  10.048 -0.0293  0.1752  0.0783
  156SAPE   H2Y17380   3.582   0.687  10.074 -1.5856  0.6266  0.5697
  156SAPE   C2317381   3.663   0.185  10.514 -0.6211 -0.4095  0.5204
  156SAPE   H3R17382   3.705   0.092  10.559 -2.3188 -0.9301  1.1302
  156SAPE   H3S17383   3.726   0.270  10.545  2.0974 -1.5227 -1.5919
  156SAPE   C2417384   3.685   0.175  10.362  0.0633  0.4460  0.5624
  156SAPE   H4R17385   3.649   0.268  10.312 -0.4594  1.2096  2.3098
  156SAPE   H4S17386   3.626   0.088  10.325  0.4583  0.4422 -0.0860
  156SAPE   C2517387   3.821   0.139  10.310  0.2415 -0.1767  0.0272
  156SAPE   H5R17388   3.883   0.092  10.387  1.5392  2.3544  0.6517
  156SAPE   C2617389   3.879   0.166  10.194 -0.1441 -0.3690 -0.4183
  156SAPE   H6R17390   3.986   0.144  10.184  0.1047 -0.7262  2.3771
  156SAPE   C2717391   3.806   0.219  10.071  0.8092  0.7516  0.5494
  156SAPE   H7R17392   3.701   0.247  10.093  1.0522  2.6978 -0.5098
  156SAPE   H7S17393   3.787   0.131  10.006 -0.8162 -0.6011  2.7147
  156SAPE   C2817394   3.865   0.334   9.993  0.9765 -0.4279  0.2438
  156SAPE   H8R17395   3.912   0.409  10.058  0.9104 -0.4134  0.2749
  156SAPE   C2917396   3.837   0.365   9.863  0.1414  0.3080  0.0175
  156SAPE   H9R17397   3.875   0.462   9.828  0.0262  0.7886  1.1685
  156SAPE  C21017398   3.770   0.280   9.762 -0.3050  0.3409  0.5442
  156SAPE  H10R17399   3.825   0.184   9.756  0.4434  0.8443 -1.5633
  156SAPE  H10S17400   3.782   0.333   9.666 -1.7123  1.9696  1.2138
  156SAPE  C21117401   3.620   0.262   9.780 -0.4499 -0.5830 -0.2160
  156SAPE  H11R17402   3.589   0.275   9.884  2.5662  2.0326  0.5062
  156SAPE  C21217403   3.533   0.229   9.679  0.0528  0.1525  0.0923
  156SAPE  H12R17404   3.428   0.217   9.710  0.5533  1.1573  2.4425
  156SAPE  C21317405   3.575   0.217   9.530  0.0808  0.1127  0.6243
  156SAPE  H13R17406   3.608   0.318   9.499  1.0325 -0.6763 -1.1377
  156SAPE  H13S17407   3.493   0.191   9.459  2.2249  0.5627 -2.2108
  156SAPE  C21417408   3.688   0.121   9.488  0.2121  0.0406  0.0391
  156SAPE  H14R17409   3.772   0.118   9.559 -0.5275  0.9114  0.9805
  156SAPE  C21517410   3.706   0.064   9.361 -0.3427 -0.9106  0.0645
  156SAPE  H15R17411   3.781  -0.013   9.338 -1.1519 -1.9835  0.9228
  156SAPE  C21617412   3.600   0.064   9.260 -0.2381  0.5485 -0.1370
  156SAPE  H16R17413   3.550   0.163   9.246  0.0557  0.8200  0.7037
  156SAPE  H16S17414   3.516   0.005   9.301  0.2936  0.4983  0.9082
  156SAPE  C21717415   3.633  -0.009   9.123  0.4148  0.1144  0.9147
  156SAPE  H17R17416   3.698  -0.098   9.138 -0.2310 -0.2611  1.5837
  156SAPE  H17S17417   3.686   0.063   9.057 -1.6090  0.0336 -0.9039
  156SAPE  C21817418   3.509  -0.049   9.038  0.3341  0.3884  0.0932
  156SAPE  H18R17419   3.437   0.035   9.026  0.5456  0.3831 -1.4691
  156SAPE  H18S17420   3.454  -0.139   9.073  0.8280 -1.3204 -3.1047
  156SAPE  C21917421   3.551  -0.106   8.891 -0.5483 -0.0397 -0.3761
  156SAPE  H19R17422   3.628  -0.184   8.909 -0.5751 -1.1490 -4.1919
  156SAPE  H19S17423   3.597  -0.024   8.832  1.0756 -0.8139 -0.2324
  156SAPE  C22017424   3.439  -0.157   8.794 -0.4569 -0.0884  0.1608
  156SAPE  H20R17425   3.355  -0.086   8.784 -1.1352 -0.6667  1.4794
  156SAPE  H20S17426   3.396  -0.251   8.835 -1.9134  1.0256  1.3270
  156SAPE  H20T17427   3.484  -0.176   8.694  1.7234 -0.9167  1.2231
  156SAPE   C3317428   3.437   0.515  10.096  0.0947 -0.1095  0.1686
  156SAPE   H3X17429   3.364   0.567  10.161  0.9526 -0.8402  1.7954
  156SAPE   H3Y17430   3.437   0.407  10.124  0.3161 -0.1081  0.1760
  156SAPE   C3417431   3.376   0.532   9.954 -0.1025  0.5639 -0.3285
  156SAPE   H4X17432   3.451   0.499   9.879  0.9800  1.3536  0.3823
  156SAPE   H4Y17433   3.356   0.641   9.943 -0.6249  1.0894  3.8990
  156SAPE   C3517434   3.249   0.447   9.937  1.4577 -0.1382  0.2215
  156SAPE   H5X17435   3.197   0.418  10.031  0.8499 -0.6622 -0.2730
  156SAPE   H5Y17436   3.286   0.353   9.892  1.4576  0.8153 -1.8847
  156SAPE   C3617437   3.150   0.510   9.836  0.2425  1.1068  0.4061
  156SAPE   H6X17438   3.200   0.547   9.743  1.6298 -0.3947  0.5147
  156SAPE   H6Y17439   3.105   0.603   9.877 -0.7573  0.0938  1.6810
  156SAPE   C3717440   3.045   0.406   9.785 -0.4697 -0.2318 -0.5075
  156SAPE   H7X17441   3.002   0.348   9.869  0.0169  0.9796  0.6275
  156SAPE   H7Y17442   3.098   0.334   9.719  2.1947  0.0056  1.2278
  156SAPE   C3817443   2.937   0.478   9.702 -0.1048  0.9808  0.3320
  156SAPE   H8X17444   2.975   0.549   9.626 -1.2663  0.6599 -0.5911
  156SAPE   H8Y17445   2.865   0.532   9.767 -1.0663  0.3987 -0.2268
  156SAPE   C3917446   2.862   0.366   9.625 -0.0614 -0.3078  0.0853
  156SAPE   H9X17447   2.795   0.328   9.705  1.4592 -1.7829  0.7264
  156SAPE   H9Y17448   2.928   0.286   9.584  2.1428 -0.7937  4.0031
  156SAPE  C31017449   2.762   0.417   9.514 -0.2745 -0.2380  0.1409
  156SAPE  H10X17450   2.809   0.509   9.473 -1.1995  0.4625  0.6114
  156SAPE  H10Y17451   2.664   0.455   9.551 -0.7481  1.9867 -2.9060
  156SAPE  C31117452   2.730   0.314   9.405 -0.6441 -0.4397  0.1950
  156SAPE  H11X17453   2.678   0.222   9.440 -0.6566 -0.7663 -0.6627
  156SAPE  H11Y17454   2.830   0.289   9.365 -0.6332  2.8719 -2.2512
  156SAPE  C31217455   2.635   0.369   9.295 -0.5284  0.8378 -0.9289
  156SAPE  H12X17456   2.667   0.472   9.270  1.5693  0.3505 -0.4656
  156SAPE  H12Y17457   2.534   0.382   9.340 -0.7685 -0.3853 -1.0665
  156SAPE  C31317458   2.643   0.289   9.168 -0.3033 -0.1425  0.5126
  156SAPE  H13X17459   2.745   0.295   9.123 -0.3073  0.8953  0.6088
  156SAPE  H13Y17460   2.581   0.330   9.085  0.7573  0.2520 -0.1141
  156SAPE  C31417461   2.601   0.144   9.190 -0.6115 -0.0967 -0.6174
  156SAPE  H14X17462   2.513   0.137   9.257  0.6425 -2.1479  0.9553
  156SAPE  H14Y17463   2.688   0.095   9.240 -0.5503 -0.6069 -1.2151
  156SAPE  C31517464   2.574   0.059   9.066 -0.2025 -0.1161 -0.1195
  156SAPE  H15X17465   2.555  -0.046   9.095  1.8003 -0.3316  0.5418
  156SAPE  H15Y17466   2.663   0.054   9.000 -0.9918 -2.5125 -1.1244
  156SAPE  C31617467   2.453   0.111   8.987  0.2610  0.2324 -0.0330
  156SAPE  H16X17468   2.483   0.209   8.944  0.9996  0.5971  1.2737
  156SAPE  H16Y17469   2.363   0.136   9.047 -0.5649 -0.6547 -0.8631
  156SAPE  C31717470   2.416  -0.005   8.890  0.7874  0.0285 -0.2926
  156SAPE  H17X17471   2.376  -0.092   8.946 -0.0125  0.3332 -0.3776
  156SAPE  H17Y17472   2.512  -0.031   8.839  1.2788  0.6445  0.2880
  156SAPE  C31817473   2.311   0.047   8.781  0.0794  0.8411  0.0245
  156SAPE  H18X17474   2.288  -0.048   8.728  1.8563 -0.1227  0.8931
  156SAPE  H18Y17475   2.357   0.113   8.704 -0.8936 -0.0645 -1.3858
  156SAPE  H18Z17476   2.222   0.097   8.824 -2.5141 -1.3230 -2.3930
  157SAPE     N17477   1.945   1.933  10.817  0.4993  0.2568  0.1636
  157SAPE   HN117478   1.928   1.972  10.723  1.1410  1.7748  0.6376
  157SAPE   HN217479   1.921   1.833  10.829  0.9713 -0.2257 -2.3958
  157SAPE   HN317480   1.893   1.988  10.888 -0.1190  0.0650 -0.1410
  157SAPE   C1217481   2.091   1.959  10.833 -0.5054  0.4226  0.0617
  157SAPE  H12A17482   2.152   1.886  10.776  2.0271  3.5023 -1.4873
  157SAPE  H12B17483   2.119   1.956  10.940  2.8851  4.8201 -0.3861
  157SAPE   C1117484   2.115   2.104  10.786  0.8160  0.1967  0.0817
  157SAPE  H11A17485   2.218   2.138  10.807  1.6766 -1.9172 -0.4677
  157SAPE  H11B17486   2.045   2.170  10.842 -0.6376 -1.7540  0.6590
  157SAPE     P17487   2.193   2.080  10.548 -0.4015 -0.4240  0.3535
  157SAPE   O1317488   2.220   2.195  10.455  0.0057 -0.2928 -0.3966
  157SAPE   O1417489   2.312   2.014  10.612  0.8236 -0.7884 -0.7540
  157SAPE   O1217490   2.080   2.109  10.653  0.0458  0.0329  0.0489
  157SAPE   O1117491   2.118   1.977  10.464  0.4955 -0.1188  0.1224
  157SAPE    C117492   2.166   1.838  10.454  0.1358 -0.4065 -0.5296
  157SAPE    HA17493   2.166   1.787  10.553 -1.2368 -0.1614 -0.3827
  157SAPE    HB17494   2.085   1.785  10.399 -2.5696 -2.6975  4.8704
  157SAPE    C217495   2.303   1.823  10.380  0.1345  0.0365 -0.2673
  157SAPE    HS17496   2.380   1.854  10.453  0.1234  0.7912 -0.5616
  157SAPE   O2117497   2.310   1.902  10.262  0.5886  0.1235 -0.2727
  157SAPE   C2117498   2.409   1.989  10.245 -0.6565  0.6241  0.5364
  157SAPE   O2217499   2.501   2.008  10.321  0.7520  0.1727 -0.1571
  157SAPE   C2217500   2.395   2.057  10.107 -0.7565 -0.4221 -0.4521
  157SAPE   H2R17501   2.384   2.166  10.125  0.2567  0.3222 -3.7913
  157SAPE   H2S17502   2.484   2.030  10.047 -0.1172  0.5213  0.0496
  157SAPE    C317503   2.332   1.678  10.347  0.2665  0.0607 -0.8537
  157SAPE    HX17504   2.263   1.653  10.264  0.6740  3.7225 -2.5056
  157SAPE    HY17505   2.310   1.625  10.442  0.7728 -0.9494 -1.2822
  157SAPE   O3117506   2.471   1.678  10.310 -0.4294 -0.3588 -0.3834
  157SAPE   C3117507   2.514   1.576  10.244 -0.3122  0.1833  0.3334
  157SAPE   O3217508   2.451   1.475  10.209 -0.8202 -0.4980 -0.2946
  157SAPE   C3217509   2.659   1.610  10.201 -0.3945  0.2401 -0.1424
  157SAPE   H2X17510   2.733   1.549  10.257  0.3220  0.4932 -0.7956
  157SAPE   H2Y17511   2.672   1.719  10.211 -0.9529  0.2318  0.7654
  157SAPE   C2317512   2.282   2.009  10.017  0.1224 -0.2770 -0.4544
  157SAPE   H3R17513   2.265   2.090   9.943  3.0209  0.6456 -0.2351
  157SAPE   H3S17514   2.200   1.979  10.086 -0.4606 -0.1181 -1.0579
  157SAPE   C2417515   2.331   1.879   9.942 -0.1630 -0.5871  0.4164
  157SAPE   H4R17516   2.333   1.809  10.029  1.8495 -3.2885 -1.6259
  157SAPE   H4S17517   2.430   1.891   9.893 -0.2331 -2.5787 -0.2882
  157SAPE   C2517518   2.231   1.822   9.845  0.0445  0.6740 -0.9359
  157SAPE   H5R17519   2.144   1.781   9.899  0.9879  1.3780  1.2546
  157SAPE   C2617520   2.242   1.807   9.708 -0.5514  0.0371 -0.1286
  157SAPE   H6R17521   2.157   1.766   9.652 -0.8533  0.0479  0.3106
  157SAPE   C2717522   2.354   1.860   9.631 -0.6213 -0.3248 -0.2788
  157SAPE   H7R17523   2.383   1.778   9.561  0.5584  0.0729 -0.2731
  157SAPE   H7S17524   2.445   1.879   9.692 -0.4256 -1.3880 -0.2085
  157SAPE   C2817525   2.329   1.992   9.555 -0.4018  0.4325 -0.2592
  157SAPE   H8R17526   2.285   2.070   9.619 -0.8966  0.6096 -0.8062
  157SAPE   C2917527   2.355   2.019   9.429  0.0790  0.5000  0.1826
  157SAPE   H9R17528   2.320   2.114   9.386  2.0176  2.5042  2.7603
  157SAPE  C21017529   2.418   1.931   9.319  0.9813 -0.2323  0.3883
  157SAPE  H10R17530   2.342   1.929   9.238 -2.6855 -1.2521  3.5377
  157SAPE  H10S17531   2.427   1.823   9.342  2.9199 -0.0065  0.8173
  157SAPE  C21117532   2.554   1.984   9.286  0.3217 -0.0750  0.0803
  157SAPE  H11R17533   2.622   1.989   9.372  0.6811  0.1645 -0.2113
  157SAPE  C21217534   2.590   2.036   9.168 -0.1416 -0.3733 -0.1479
  157SAPE  H12R17535   2.694   2.071   9.157  0.3460  0.2689  4.4053
  157SAPE  C21317536   2.488   2.050   9.059  0.3320 -0.3759 -0.5834
  157SAPE  H13R17537   2.390   2.083   9.101  1.2648 -0.9154  2.2725
  157SAPE  H13S17538   2.485   1.953   9.005  0.2495 -1.9623  2.0587
  157SAPE  C21417539   2.520   2.163   8.964  0.7073 -0.0792  0.0499
  157SAPE  H14R17540   2.510   2.264   9.006  0.4980 -0.4506  0.9052
  157SAPE  C21517541   2.595   2.157   8.851  0.1612  0.2143 -0.2244
  157SAPE  H15R17542   2.612   2.247   8.791 -1.9882  1.1358  0.4698
  157SAPE  C21617543   2.645   2.030   8.789 -0.0161  0.7172  0.4065
  157SAPE  H16R17544   2.555   1.979   8.750 -0.0873  2.3122 -1.7204
  157SAPE  H16S17545   2.701   1.967   8.861  1.1018  0.3073 -0.7771
  157SAPE  C21717546   2.725   2.058   8.659 -0.3291  0.4339  0.2842
  157SAPE  H17R17547   2.670   2.123   8.588 -0.9145  1.4944  1.6654
  157SAPE  H17S17548   2.733   1.962   8.604 -1.2019  0.2685  0.4198
  157SAPE  C21817549   2.867   2.104   8.691  0.2069 -0.6955 -0.2722
  157SAPE  H18R17550   2.921   2.020   8.739  0.8079  0.4715  1.1553
  157SAPE  H18S17551   2.859   2.194   8.755  0.3082  1.2790 -2.8394
  157SAPE  C21917552   2.938   2.149   8.568 -0.1229 -0.2664  0.3393
  157SAPE  H19R17553   3.042   2.170   8.598  0.0464 -0.8087  0.1392
  157SAPE  H19S17554   2.889   2.238   8.523  0.7921 -1.1657 -2.7091
  157SAPE  C22017555   2.941   2.058   8.446 -0.5141  0.4703 -0.6429
  157SAPE  H20R17556   2.997   2.111   8.366  1.9962  1.6029  1.6882
  157SAPE  H20S17557   2.838   2.034   8.412 -0.2737  1.6992 -2.3478
  157SAPE  H20T17558   2.999   1.967   8.471  0.7552  1.5257  0.4808
  157SAPE   C3317559   2.675   1.559  10.053 -0.0148 -0.0099  0.1721
  157SAPE   H3X17560   2.653   1.451  10.037  0.6642 -0.2905  1.0719
  157SAPE   H3Y17561   2.782   1.581  10.030  0.7468 -3.4048 -0.1140
  157SAPE   C3417562   2.593   1.640   9.953 -0.1188 -0.5971 -0.1958
  157SAPE   H4X17563   2.619   1.747   9.969 -0.2951 -0.3913 -1.2198
  157SAPE   H4Y17564   2.485   1.632   9.979 -0.2165 -0.4268 -0.5448
  157SAPE   C3517565   2.623   1.607   9.802 -0.0331  0.1540 -0.0537
  157SAPE   H5X17566   2.543   1.640   9.732  0.2158 -0.7368 -0.7771
  157SAPE   H5Y17567   2.621   1.497   9.790 -1.4206  0.3307 -1.8565
  157SAPE   C3617568   2.755   1.665   9.745  0.2387  0.3428 -0.2036
  157SAPE   H6X17569   2.840   1.661   9.817  0.7212  0.3119 -0.7668
  157SAPE   H6Y17570   2.737   1.774   9.734  0.5619  0.4933  0.6246
  157SAPE   C3717571   2.798   1.600   9.607 -0.0040 -0.5707 -0.5021
  157SAPE   H7X17572   2.817   1.493   9.628  1.4057 -0.0383  1.1937
  157SAPE   H7Y17573   2.891   1.655   9.580 -0.7972  0.8522 -0.4469
  157SAPE   C3817574   2.691   1.616   9.502 -0.0703 -0.2810  0.3217
  157SAPE   H8X17575   2.590   1.643   9.540  0.8794  1.1294  1.9930
  157SAPE   H8Y17576   2.679   1.513   9.461 -0.5892 -0.6960  1.4937
  157SAPE   C3917577   2.720   1.700   9.375  0.5857 -0.0382  0.2491
  157SAPE   H9X17578   2.788   1.785   9.393 -0.9597  0.7544  2.9052
  157SAPE   H9Y17579   2.622   1.748   9.350  0.0201 -0.6271  1.2603
  157SAPE  C31017580   2.773   1.614   9.256  0.5417 -0.6650 -0.4627
  157SAPE  H10X17581   2.698   1.533   9.242 -0.9884  0.3447  1.5078
  157SAPE  H10Y17582   2.864   1.563   9.295 -0.1987 -2.2301 -0.7012
  157SAPE  C31117583   2.798   1.690   9.124  0.4917  0.2408 -0.2818
  157SAPE  H11X17584   2.872   1.771   9.141  2.3526 -0.7783 -2.8242
  157SAPE  H11Y17585   2.708   1.744   9.086 -0.4051  0.1613  1.6285
  157SAPE  C31217586   2.851   1.587   9.015 -0.0482 -0.0020 -0.2390
  157SAPE  H12X17587   2.780   1.504   8.999  0.2781 -0.2426 -0.4589
  157SAPE  H12Y17588   2.942   1.542   9.061  0.4871  1.0137 -0.2607
  157SAPE  C31317589   2.879   1.661   8.875 -0.3575 -0.7720 -0.3103
  157SAPE  H13X17590   2.925   1.760   8.889  1.3833 -1.7543  1.4070
  157SAPE  H13Y17591   2.779   1.662   8.827  0.7889  0.4678 -2.8185
  157SAPE  C31417592   2.984   1.580   8.793  0.3910  0.2591  0.2244
  157SAPE  H14X17593   2.954   1.473   8.791 -0.9534  0.5959  1.0173
  157SAPE  H14Y17594   3.084   1.584   8.841  1.0463  3.6425 -1.0764
  157SAPE  C31517595   2.994   1.627   8.644 -0.8269  0.6359 -1.0972
  157SAPE  H15X17596   2.965   1.734   8.652  0.8590  1.0489  0.1668
  157SAPE  H15Y17597   2.912   1.574   8.591  0.5443 -2.4317 -0.3844
  157SAPE  C31617598   3.132   1.590   8.584  0.6092 -0.0770  0.0567
  157SAPE  H16X17599   3.156   1.485   8.611 -0.9993 -0.1434  1.4111
  157SAPE  H16Y17600   3.219   1.650   8.618  1.9944 -1.0504 -1.5969
  157SAPE  C31717601   3.143   1.620   8.432  0.3181  0.8359 -0.2940
  157SAPE  H17X17602   3.145   1.728   8.403  0.5301  1.2851  1.3041
  157SAPE  H17Y17603   3.046   1.600   8.382  0.3657  1.2505 -0.5594
  157SAPE  C31817604   3.266   1.562   8.362 -0.8646  0.4973 -0.0729
  157SAPE  H18X17605   3.352   1.626   8.391 -2.0346  1.6328  0.9825
  157SAPE  H18Y17606   3.250   1.565   8.252  1.4934 -0.0739 -0.4868
  157SAPE  H18Z17607   3.293   1.458   8.391  1.1838  0.7880 -0.7667
  158SAPE     N17608   2.523   1.939  10.736  0.2607  0.1435  0.4742
  158SAPE   HN117609   2.564   2.022  10.783 -0.4640  0.6952  0.1442
  158SAPE   HN217610   2.444   1.960  10.672 -0.8928 -0.7959  1.5413
  158SAPE   HN317611   2.475   1.880  10.806 -1.3294 -0.7574 -1.2898
  158SAPE   C1217612   2.627   1.860  10.654 -0.0453 -0.4107 -0.3961
  158SAPE  H12A17613   2.575   1.786  10.590  0.6338 -0.3434 -1.0468
  158SAPE  H12B17614   2.703   1.808  10.717  1.6272  1.0567 -1.1041
  158SAPE   C1117615   2.712   1.953  10.565 -0.4385 -0.1122  0.0223
  158SAPE  H11A17616   2.652   2.008  10.490  1.4065  2.6185  0.4154
  158SAPE  H11B17617   2.784   1.889  10.510 -0.2079 -1.8041  2.1508
  158SAPE     P17618   2.919   2.021  10.710 -0.1659 -0.3200  0.0906
  158SAPE   O1317619   2.954   2.144  10.788 -0.2455 -0.1086 -0.3402
  158SAPE   O1417620   2.923   1.893  10.780  0.1566 -0.1862 -0.2568
  158SAPE   O1217621   2.773   2.056  10.645 -0.1022 -0.3171  0.2504
  158SAPE   O1117622   3.034   2.013  10.595 -0.4151  0.6708  0.1337
  158SAPE    C117623   3.028   2.092  10.472 -0.0949  0.0075 -0.3626
  158SAPE    HA17624   2.933   2.080  10.416 -2.0815  0.7064  2.6351
  158SAPE    HB17625   3.048   2.199  10.493 -0.4099 -0.1211  0.6523
  158SAPE    C217626   3.134   2.048  10.367  0.1626 -0.3794 -0.1158
  158SAPE    HS17627   3.115   2.108  10.276  0.0134 -1.2430 -0.6674
  158SAPE   O2117628   3.120   1.903  10.342 -0.2300 -0.2300  0.3174
  158SAPE   C2117629   3.004   1.863  10.291  0.4123 -0.6826 -0.0154
  158SAPE   O2217630   2.919   1.940  10.249  0.6480 -0.1680 -0.3104
  158SAPE   C2217631   3.000   1.708  10.280  0.5778 -0.6282  0.6243
  158SAPE   H2R17632   3.091   1.669  10.331  1.8854  2.4211  0.8623
  158SAPE   H2S17633   2.912   1.672  10.337  0.0911 -1.1928 -0.4555
  158SAPE    C317634   3.275   2.082  10.403  0.0577  0.0183 -0.5674
  158SAPE    HX17635   3.293   2.049  10.508  0.8823  0.9882 -0.3769
  158SAPE    HY17636   3.281   2.191  10.384  2.7347  0.1187  0.2825
  158SAPE   O3117637   3.365   2.021  10.305 -0.0365 -0.3323  0.0365
  158SAPE   C3117638   3.458   1.936  10.343  0.0050  0.2096 -0.2572
  158SAPE   O3217639   3.471   1.897  10.458 -0.0367  0.1238 -0.3260
  158SAPE   C3217640   3.536   1.871  10.230  0.1772 -0.2079 -0.0407
  158SAPE   H2X17641   3.564   1.955  10.162  1.5459 -0.4163  0.2457
  158SAPE   H2Y17642   3.464   1.805  10.178  0.1309 -0.5798  0.4933
  158SAPE   C2317643   3.016   1.661  10.135 -0.1782  0.4048 -0.4978
  158SAPE   H3R17644   2.937   1.702  10.069 -0.8976  1.2858  0.8709
  158SAPE   H3S17645   2.994   1.552  10.133 -0.9995  0.5190  0.7709
  158SAPE   C2417646   3.169   1.691  10.087  0.2799  0.1938  0.1397
  158SAPE   H4R17647   3.220   1.744  10.171 -0.4548 -0.3904  0.9764
  158SAPE   H4S17648   3.167   1.757   9.997  0.6811  1.5622  1.0915
  158SAPE   C2517649   3.252   1.569  10.061 -0.1934 -0.3724  0.1271
  158SAPE   H5R17650   3.304   1.521  10.146 -0.0503 -1.4585 -0.5522
  158SAPE   C2617651   3.236   1.497   9.946  0.1528  0.3868  0.8943
  158SAPE   H6R17652   3.300   1.409   9.934  0.7071  0.6711  1.7273
  158SAPE   C2717653   3.172   1.545   9.816 -0.3873  0.3044 -0.5139
  158SAPE   H7R17654   3.253   1.566   9.743 -1.3779  0.2799 -1.6631
  158SAPE   H7S17655   3.123   1.643   9.836 -1.3161 -0.2343 -0.1022
  158SAPE   C2817656   3.069   1.445   9.764  0.4196 -0.2434  0.2712
  158SAPE   H8R17657   2.997   1.414   9.841 -1.1221 -2.4363 -1.8849
  158SAPE   C2917658   3.062   1.392   9.639  0.5018  0.6815 -0.0826
  158SAPE   H9R17659   2.979   1.324   9.618  2.2964 -0.5958 -3.8382
  158SAPE  C21017660   3.154   1.411   9.516  0.4371  0.2895 -0.2188
  158SAPE  H10R17661   3.247   1.465   9.544  0.0083  1.0705 -0.2734
  158SAPE  H10S17662   3.103   1.475   9.441  1.1851  1.7502  0.4808
  158SAPE  C21117663   3.192   1.269   9.472  0.3073 -0.3487 -0.1517
  158SAPE  H11R17664   3.266   1.212   9.530 -0.9270 -0.4086  1.4552
  158SAPE  C21217665   3.144   1.202   9.365 -0.2199 -0.2607  0.3485
  158SAPE  H12R17666   3.170   1.097   9.345 -1.8448 -0.6594  0.1407
  158SAPE  C21317667   3.048   1.253   9.259  0.1783 -0.5053  0.0072
  158SAPE  H13R17668   2.981   1.329   9.304  0.6436  1.7357 -2.7546
  158SAPE  H13S17669   2.988   1.168   9.223 -1.4672  0.0137  1.3909
  158SAPE  C21417670   3.123   1.327   9.155  0.3627 -0.1192 -0.7262
  158SAPE  H14R17671   3.143   1.435   9.163  1.0859 -0.3012  0.1699
  158SAPE  C21517672   3.184   1.264   9.058  0.3133  0.6167  0.2230
  158SAPE  H15R17673   3.249   1.315   8.985 -1.9361  0.0082 -2.3631
  158SAPE  C21617674   3.175   1.114   9.028  0.0940 -1.2020  0.4357
  158SAPE  H16R17675   3.070   1.080   9.016 -0.4823  0.1433  1.5090
  158SAPE  H16S17676   3.231   1.054   9.102  3.0292 -2.2206 -2.3490
  158SAPE  C21717677   3.238   1.080   8.892  0.5809  0.2697 -0.5185
  158SAPE  H17R17678   3.236   0.969   8.888  0.4965  0.0111  3.4821
  158SAPE  H17S17679   3.346   1.108   8.890  1.0691 -1.5141 -0.3001
  158SAPE  C21817680   3.158   1.129   8.773 -0.0588  0.3372 -0.4694
  158SAPE  H18R17681   3.139   1.237   8.785  2.4048  0.6958  0.7256
  158SAPE  H18S17682   3.062   1.076   8.794  0.4272  0.9245  4.4340
  158SAPE  C21917683   3.223   1.087   8.638  0.2127  0.6563  0.0528
  158SAPE  H19R17684   3.223   0.976   8.636 -0.0689  0.6516 -2.1864
  158SAPE  H19S17685   3.330   1.109   8.617  0.4095 -1.3577 -1.3865
  158SAPE  C22017686   3.144   1.136   8.515 -0.6650 -0.7582 -0.1913
  158SAPE  H20R17687   3.036   1.115   8.526 -0.7969 -0.3895 -0.7480
  158SAPE  H20S17688   3.177   1.089   8.420 -1.7139 -2.7476  0.3769
  158SAPE  H20T17689   3.156   1.246   8.505 -0.5426 -0.3115  3.4510
  158SAPE   C3317690   3.661   1.783  10.261 -0.0540 -0.0374  0.6717
  158SAPE   H3X17691   3.639   1.684  10.307  1.5801 -0.3518  0.8348
  158SAPE   H3Y17692   3.716   1.833  10.343  2.1533 -0.4768 -0.4554
  158SAPE   C3417693   3.760   1.782  10.148  0.3528  0.0763  0.1682
  158SAPE   H4X17694   3.839   1.704  10.162  0.0686 -0.2242  0.0977
  158SAPE   H4Y17695   3.810   1.881  10.148  2.7613 -1.0470 -0.5983
  158SAPE   C3517696   3.694   1.752  10.013  0.4043  0.0414 -0.5128
  158SAPE   H5X17697   3.629   1.836   9.981  1.2310  1.0828  0.4741
  158SAPE   H5Y17698   3.641   1.655  10.025 -0.1276  0.3714 -0.1600
  158SAPE   C3617699   3.792   1.728   9.901 -0.1093  0.6076  0.3288
  158SAPE   H6X17700   3.732   1.715   9.809 -2.8862  3.6351  1.4971
  158SAPE   H6Y17701   3.846   1.634   9.929 -3.9367 -1.3306  2.0137
  158SAPE   C3717702   3.906   1.819   9.878 -0.7574  0.0080  0.5247
  158SAPE   H7X17703   3.962   1.843   9.971 -0.5270  4.1052 -0.4687
  158SAPE   H7Y17704   3.865   1.916   9.842 -0.5809  0.0999  0.5695
  158SAPE   C3817705   4.012   1.760   9.776  0.1891  0.9672  0.6599
  158SAPE   H8X17706   4.058   1.660   9.792 -3.3321 -0.7587  1.0760
  158SAPE   H8Y17707   4.090   1.836   9.795  3.7259 -2.2917  0.2667
  158SAPE   C3917708   3.963   1.761   9.633  0.2686 -0.0616 -0.2859
  158SAPE   H9X17709   4.010   1.814   9.547  1.1469 -1.7206 -0.8707
  158SAPE   H9Y17710   3.858   1.793   9.648  0.5513  0.3353  0.9683
  158SAPE  C31017711   3.949   1.621   9.572 -0.5571 -0.6687  0.2042
  158SAPE  H10X17712   3.882   1.555   9.631  0.9753 -1.7001  0.8453
  158SAPE  H10Y17713   4.050   1.576   9.581 -1.5008 -2.7933  0.8773
  158SAPE  C31117714   3.898   1.629   9.428  0.7340 -0.3154 -1.0031
  158SAPE  H11X17715   3.984   1.680   9.379 -0.2521  0.7235 -1.6982
  158SAPE  H11Y17716   3.809   1.695   9.417  0.8178 -0.3187 -1.8296
  158SAPE  C31217717   3.875   1.488   9.362 -0.2527  0.7604  0.3512
  158SAPE  H12X17718   3.774   1.455   9.395  0.6588 -1.7222  0.9027
  158SAPE  H12Y17719   3.961   1.424   9.391 -0.4487  0.5225  0.4114
  158SAPE  C31317720   3.881   1.484   9.209 -0.9545 -0.0269 -0.1367
  158SAPE  H13X17721   3.977   1.528   9.173 -0.3147 -1.2973 -0.0736
  158SAPE  H13Y17722   3.799   1.547   9.169 -1.7790 -1.8846 -1.5541
  158SAPE  C31417723   3.856   1.342   9.146 -0.0904 -0.1877 -0.0957
  158SAPE  H14X17724   3.745   1.334   9.149 -0.3107  1.1181 -2.1722
  158SAPE  H14Y17725   3.891   1.250   9.197  2.1090  0.8013  0.2643
  158SAPE  C31517726   3.912   1.345   8.998  0.0103  0.9293  0.0484
  158SAPE  H15X17727   3.912   1.451   8.966 -1.9976  0.9961  0.1894
  158SAPE  H15Y17728   3.840   1.294   8.931  0.9888 -1.0922  0.4385
  158SAPE  C31617729   4.051   1.277   8.981  0.6847  0.0584 -0.2769
  158SAPE  H16X17730   4.034   1.172   9.010  0.9115  0.0347 -0.2229
  158SAPE  H16Y17731   4.106   1.328   9.063 -1.3357  0.4492  0.8838
  158SAPE  C31717732   4.100   1.290   8.837 -0.0188 -0.1545 -0.2525
  158SAPE  H17X17733   4.125   1.395   8.812  2.1478 -0.4569  0.4603
  158SAPE  H17Y17734   4.022   1.242   8.773 -0.7763  0.3899  0.2423
  158SAPE  C31817735   4.228   1.214   8.830 -0.3917 -1.1063 -0.0679
  158SAPE  H18X17736   4.208   1.113   8.870 -0.6508 -0.9727  0.1444
  158SAPE  H18Y17737   4.318   1.256   8.880 -0.7711 -1.6902  1.1165
  158SAPE  H18Z17738   4.251   1.204   8.721  0.2617 -1.3497  0.0914
  159SAPE     N17739   5.506   1.621   6.505 -0.2892 -0.8100 -0.3525
  159SAPE   HN117740   5.403   1.613   6.520 -0.3975  2.0304  1.2417
  159SAPE   HN217741   5.533   1.597   6.408  0.5867 -0.7752 -0.1314
  159SAPE   HN317742   5.554   1.545   6.557  1.2499 -0.4731 -1.2325
  159SAPE   C1217743   5.558   1.758   6.535 -0.2504 -0.5539 -0.5791
  159SAPE  H12A17744   5.505   1.796   6.625  0.0871 -1.7737  0.1650
  159SAPE  H12B17745   5.543   1.826   6.449 -0.6109  2.1672  1.5069
  159SAPE   C1117746   5.704   1.752   6.575  0.0160  0.0572 -0.0993
  159SAPE  H11A17747   5.716   1.717   6.679 -0.2653  0.6071  0.1229
  159SAPE  H11B17748   5.735   1.859   6.583  1.5428 -0.5153  3.1994
  159SAPE     P17749   5.886   1.738   6.380 -0.5397 -0.0022  0.3729
  159SAPE   O1317750   5.899   1.640   6.265 -0.1385 -0.5794  0.2516
  159SAPE   O1417751   5.850   1.878   6.341  0.3799  0.0583  0.5066
  159SAPE   O1217752   5.783   1.676   6.484 -0.0250  0.2543  0.2490
  159SAPE   O1117753   6.031   1.734   6.452  0.3989 -0.1586  0.6377
  159SAPE    C117754   6.038   1.776   6.590  0.6761 -0.4088 -0.1839
  159SAPE    HA17755   6.135   1.831   6.592  0.1815  0.6471 -2.3676
  159SAPE    HB17756   5.960   1.850   6.618  0.6594  0.3095 -1.9972
  159SAPE    C217757   6.048   1.653   6.679  0.1212  0.2834  0.6745
  159SAPE    HS17758   5.945   1.612   6.687  0.3550 -0.2029  1.2823
  159SAPE   O2117759   6.087   1.695   6.812 -0.3191 -0.2683  0.2565
  159SAPE   C2117760   5.986   1.692   6.896  0.2419 -0.2959 -0.6984
  159SAPE   O2217761   5.867   1.662   6.879  0.3503  0.2646  0.1843
  159SAPE   C2217762   6.028   1.717   7.045 -0.0061 -0.1090  0.0935
  159SAPE   H2R17763   6.121   1.778   7.036 -0.9498  2.1704  3.7231
  159SAPE   H2S17764   5.955   1.790   7.086  0.6626  0.2252  0.7112
  159SAPE    C317765   6.136   1.536   6.631  0.0833 -0.1170 -0.8190
  159SAPE    HX17766   6.242   1.548   6.662 -0.3609  0.9617  0.4143
  159SAPE    HY17767   6.139   1.529   6.521 -0.8694 -0.8503 -0.8054
  159SAPE   O3117768   6.082   1.414   6.680  0.1016  0.3510  0.6797
  159SAPE   C3117769   6.158   1.308   6.634  0.2911  0.5829 -0.8016
  159SAPE   O3217770   6.255   1.321   6.561 -0.2591  0.6713  0.4814
  159SAPE   C3217771   6.092   1.186   6.676 -0.6316 -0.4434  0.3408
  159SAPE   H2X17772   6.119   1.100   6.611 -0.1715 -0.4242  0.5015
  159SAPE   H2Y17773   5.982   1.196   6.664 -0.7805  1.5048  2.5422
  159SAPE   C2317774   6.045   1.595   7.134  0.1998  0.2471  0.2037
  159SAPE   H3R17775   6.112   1.515   7.094  0.1777  0.3050  0.0505
  159SAPE   H3S17776   5.944   1.554   7.156  0.0062  1.6163  2.0940
  159SAPE   C2417777   6.107   1.640   7.271 -0.0685  0.0192  0.2421
  159SAPE   H4R17778   6.083   1.568   7.352  0.5738  0.0840  0.4941
  159SAPE   H4S17779   6.048   1.729   7.303  2.3801  1.5922  0.6340
  159SAPE   C2517780   6.254   1.671   7.273 -0.4702 -0.0716 -0.9246
  159SAPE   H5R17781   6.306   1.678   7.177  2.5001  0.6262  0.5857
  159SAPE   C2617782   6.328   1.672   7.390 -0.6012 -0.0900  1.0789
  159SAPE   H6R17783   6.436   1.695   7.379 -0.9061  0.3279 -2.1492
  159SAPE   C2717784   6.277   1.659   7.530  0.2298  0.4839  0.4028
  159SAPE   H7R17785   6.354   1.629   7.604  0.9992  0.4531 -0.3989
  159SAPE   H7S17786   6.203   1.576   7.525  2.1628 -1.2220 -2.1079
  159SAPE   C2817787   6.220   1.781   7.594  0.0737  0.7226  0.0792
  159SAPE   H8R17788   6.281   1.870   7.572  0.7466 -0.0419 -1.3082
  159SAPE   C2917789   6.108   1.785   7.673 -0.0054  0.4699  0.1532
  159SAPE   H9R17790   6.080   1.885   7.710 -2.4464 -0.0734 -0.1243
  159SAPE  C21017791   6.023   1.669   7.717 -0.4987 -1.0461  0.8524
  159SAPE  H10R17792   6.044   1.648   7.824 -0.8656  0.7488  1.3090
  159SAPE  H10S17793   6.043   1.572   7.666 -2.4275 -0.6329 -0.7930
  159SAPE  C21117794   5.876   1.702   7.691 -0.7386 -0.0691 -0.2307
  159SAPE  H11R17795   5.849   1.719   7.585 -1.4013 -0.0654 -0.0612
  159SAPE  C21217796   5.771   1.713   7.776  0.0943 -0.7145 -0.4313
  159SAPE  H12R17797   5.677   1.745   7.730 -0.1405  0.3670  0.7623
  159SAPE  C21317798   5.773   1.686   7.927  0.3242  0.7867  0.2405
  159SAPE  H13R17799   5.843   1.602   7.947  1.1625  1.6244  0.9237
  159SAPE  H13S17800   5.675   1.649   7.963  0.0786  1.6631  0.4912
  159SAPE  C21417801   5.804   1.810   8.007 -0.0677  0.1512 -0.2007
  159SAPE  H14R17802   5.723   1.884   8.014 -0.5742 -0.4331  0.2606
  159SAPE  C21517803   5.918   1.832   8.073 -0.3081 -0.1906  0.2019
  159SAPE  H15R17804   5.940   1.932   8.113 -1.5326 -0.6108  2.0417
  159SAPE  C21617805   6.032   1.730   8.082  0.0740  0.7546  0.3088
  159SAPE  H16R17806   6.108   1.756   8.006  0.5911 -0.1567  0.5021
  159SAPE  H16S17807   5.992   1.628   8.067 -0.3052  0.2773  3.7054
  159SAPE  C21717808   6.093   1.732   8.218  0.2108 -0.1458 -0.0587
  159SAPE  H17R17809   6.134   1.828   8.257 -0.6257  0.2157 -0.0388
  159SAPE  H17S17810   6.179   1.663   8.229  0.5343  0.1905 -0.4750
  159SAPE  C21817811   6.001   1.680   8.332  0.6658  0.4349 -0.0119
  159SAPE  H18R17812   5.960   1.586   8.290 -0.1654  1.4994 -1.7190
  159SAPE  H18S17813   5.913   1.747   8.345  0.6157  0.0568  1.7763
  159SAPE  C21917814   6.080   1.667   8.458  0.0578 -0.0764  0.5016
  159SAPE  H19R17815   6.141   1.759   8.471  2.2992 -1.4943  0.4902
  159SAPE  H19S17816   6.157   1.588   8.457 -0.1637 -0.3521 -2.0897
  159SAPE  C22017817   5.996   1.658   8.584 -0.1209 -0.7905 -0.3143
  159SAPE  H20R17818   5.929   1.746   8.589  1.2574  0.2759 -0.0053
  159SAPE  H20S17819   6.065   1.661   8.671  0.1833  1.3330 -0.5758
  159SAPE  H20T17820   5.931   1.568   8.578 -1.9487  0.3341  1.3713
  159SAPE   C3317821   6.127   1.139   6.814  0.5199  0.0518 -0.5975
  159SAPE   H3X17822   6.233   1.117   6.837 -0.1948 -1.9517  1.0901
  159SAPE   H3Y17823   6.091   1.034   6.816 -0.9577  0.5370 -0.3301
  159SAPE   C3417824   6.058   1.206   6.931 -0.7296 -0.5532  0.7616
  159SAPE   H4X17825   5.949   1.214   6.913 -0.8099  1.1434  1.7579
  159SAPE   H4Y17826   6.103   1.307   6.947 -0.5037 -0.6639  0.8422
  159SAPE   C3517827   6.080   1.117   7.050  0.3401 -0.2168 -0.1962
  159SAPE   H5X17828   6.184   1.079   7.059 -0.9887 -3.7112  2.6290
  159SAPE   H5Y17829   6.014   1.030   7.031 -0.7598  0.8181 -1.3400
  159SAPE   C3617830   6.035   1.165   7.191 -0.1174  0.4277  0.0057
  159SAPE   H6X17831   5.937   1.214   7.172 -0.1840  1.2271  2.1319
  159SAPE   H6Y17832   6.112   1.242   7.216  1.6845 -0.9045 -1.1837
  159SAPE   C3717833   6.029   1.062   7.297 -0.4513  0.3384  0.1713
  159SAPE   H7X17834   6.130   1.021   7.321 -0.6376 -0.0216  0.3507
  159SAPE   H7Y17835   5.970   0.982   7.249  0.7682  0.5405 -1.7911
  159SAPE   C3817836   5.960   1.091   7.429  0.4401  0.3267 -0.5995
  159SAPE   H8X17837   5.958   0.998   7.490 -1.1927  1.2851  0.8848
  159SAPE   H8Y17838   5.852   1.110   7.418 -0.2583 -1.9381  1.3786
  159SAPE   C3917839   6.015   1.209   7.509 -0.3671 -0.2536  0.1742
  159SAPE   H9X17840   6.042   1.294   7.443  0.9672 -1.9952 -1.6681
  159SAPE   H9Y17841   6.110   1.174   7.555  0.6854  0.1510 -1.5619
  159SAPE  C31017842   5.913   1.260   7.616  0.1164  0.2401 -0.1670
  159SAPE  H10X17843   5.822   1.282   7.556 -0.5010  0.5735  0.8808
  159SAPE  H10Y17844   5.939   1.360   7.658 -0.6042 -0.5607  2.3140
  159SAPE  C31117845   5.904   1.165   7.737  0.5427  0.2578 -0.4402
  159SAPE  H11X17846   6.003   1.149   7.784  0.2938 -1.5428 -0.4692
  159SAPE  H11Y17847   5.876   1.065   7.697  2.7545 -0.9111  0.7767
  159SAPE  C31217848   5.799   1.209   7.841  0.2258  0.2413  0.3957
  159SAPE  H12X17849   5.717   1.236   7.772  0.4551 -0.8659 -0.3454
  159SAPE  H12Y17850   5.847   1.299   7.886  3.9265 -1.0300 -0.5705
  159SAPE  C31317851   5.750   1.105   7.944 -0.4690 -0.9966 -0.2132
  159SAPE  H13X17852   5.715   1.022   7.879  0.0144 -0.5684 -1.0453
  159SAPE  H13Y17853   5.668   1.153   8.001  0.2669  0.5827 -0.4145
  159SAPE  C31417854   5.856   1.075   8.054 -0.4813  0.3034  0.3351
  159SAPE  H14X17855   5.876   1.172   8.105 -1.6576  1.1400 -0.7577
  159SAPE  H14Y17856   5.955   1.048   8.010 -1.4258 -2.3387 -0.3841
  159SAPE  C31517857   5.816   0.976   8.161  0.2863  0.3693 -0.9120
  159SAPE  H15X17858   5.897   0.955   8.234  0.9339  0.2659 -1.6573
  159SAPE  H15Y17859   5.788   0.884   8.107 -2.4592  0.8197 -0.4132
  159SAPE  C31617860   5.695   1.018   8.252  0.3081 -0.5499  0.1319
  159SAPE  H16X17861   5.606   1.028   8.186  0.2219  1.5888  0.5060
  159SAPE  H16Y17862   5.710   1.121   8.291 -0.4418  0.1086 -1.2517
  159SAPE  C31717863   5.668   0.913   8.364 -0.0813  0.6850 -0.0933
  159SAPE  H17X17864   5.749   0.894   8.437 -3.6151 -0.6408  3.8887
  159SAPE  H17Y17865   5.658   0.816   8.310 -0.6237 -1.1473  3.0479
  159SAPE  C31817866   5.532   0.928   8.429  0.0890 -0.3409 -0.0841
  159SAPE  H18X17867   5.541   0.998   8.515 -1.1574 -3.2935  2.6834
  159SAPE  H18Y17868   5.487   0.834   8.466 -1.4024 -0.5074 -2.1536
  159SAPE  H18Z17869   5.455   0.976   8.366  0.4709  1.8951  1.0404
  160SAPE     N17870   3.354   6.240   6.338 -0.0785 -0.0828 -0.2953
  160SAPE   HN117871   3.346   6.304   6.420 -0.6000 -0.8156  0.2397
  160SAPE   HN217872   3.263   6.206   6.301 -0.4561  0.1297  0.4128
  160SAPE   HN317873   3.404   6.158   6.377 -0.2984 -0.0512  0.0612
  160SAPE   C1217874   3.440   6.286   6.229  0.1455  0.0822 -0.0122
  160SAPE  H12A17875   3.467   6.200   6.164 -0.9741 -1.0626  0.9806
  160SAPE  H12B17876   3.536   6.324   6.270  0.6933 -0.0371 -1.1340
  160SAPE   C1117877   3.372   6.390   6.139 -0.0357 -0.2210  0.4325
  160SAPE  H11A17878   3.296   6.338   6.078 -0.0797 -0.5721  0.7784
  160SAPE  H11B17879   3.457   6.420   6.074 -2.1869 -0.0477 -2.4674
  160SAPE     P17880   3.192   6.571   6.175  0.8027 -0.4638 -0.1538
  160SAPE   O1317881   3.209   6.634   6.043  0.2118 -0.1640 -0.6160
  160SAPE   O1417882   3.073   6.487   6.188  0.1447 -0.4808  0.1896
  160SAPE   O1217883   3.331   6.502   6.211  0.4778 -0.7602 -0.4474
  160SAPE   O1117884   3.182   6.693   6.277  0.1814  0.3248  0.0851
  160SAPE    C117885   3.062   6.727   6.339 -0.0474 -0.3268  0.3703
  160SAPE    HA17886   3.005   6.795   6.272  1.7040  1.1119  0.2666
  160SAPE    HB17887   3.006   6.642   6.383 -0.0063 -0.8624 -0.5877
  160SAPE    C217888   3.106   6.825   6.456 -0.0626  0.4628 -0.0520
  160SAPE    HS17889   3.182   6.890   6.410 -1.3402  0.0223 -2.9914
  160SAPE   O2117890   3.160   6.747   6.568 -0.3105  0.5713 -0.0946
  160SAPE   C2117891   3.298   6.743   6.572 -0.3840  0.3096  0.0957
  160SAPE   O2217892   3.375   6.806   6.505 -0.1284  0.4591  0.0307
  160SAPE   C2217893   3.345   6.645   6.676  0.6726 -0.0347 -1.0360
  160SAPE   H2R17894   3.251   6.593   6.705 -0.1303  1.8212 -0.1744
  160SAPE   H2S17895   3.420   6.576   6.631  0.4748  0.6286 -2.4321
  160SAPE    C317896   2.984   6.916   6.504  0.2774 -0.1467 -0.1352
  160SAPE    HX17897   2.906   6.840   6.527  1.2805 -1.6005 -1.3042
  160SAPE    HY17898   2.947   6.973   6.416 -0.4800 -0.6460 -0.1523
  160SAPE   O3117899   3.009   6.989   6.624 -0.1837 -0.0231  0.3966
  160SAPE   C3117900   3.055   7.106   6.598 -0.0380  0.0190  0.6786
  160SAPE   O3217901   3.078   7.155   6.484  1.0069 -0.3517 -0.0778
  160SAPE   C3217902   3.107   7.163   6.735 -0.5872 -0.0092 -0.0049
  160SAPE   H2X17903   3.198   7.225   6.717  1.3266 -2.4935  0.6053
  160SAPE   H2Y17904   3.156   7.078   6.786  0.5020  0.7160  0.2152
  160SAPE   C2317905   3.394   6.729   6.804  0.1603  0.2803 -0.3037
  160SAPE   H3R17906   3.469   6.803   6.769  0.4182  0.2925  0.2799
  160SAPE   H3S17907   3.458   6.660   6.862 -0.9380  1.1056  2.0368
  160SAPE   C2417908   3.287   6.791   6.900  1.2893  0.5512 -0.3452
  160SAPE   H4R17909   3.219   6.846   6.831 -0.6835 -1.2740  0.0366
  160SAPE   H4S17910   3.341   6.862   6.965  1.0723 -1.0410  1.6564
  160SAPE   C2517911   3.215   6.686   6.976  0.2342  0.0935 -0.0069
  160SAPE   H5R17912   3.152   6.618   6.917 -2.5680  2.1918  0.3308
  160SAPE   C2617913   3.223   6.665   7.107  0.0123  0.7712 -0.5110
  160SAPE   H6R17914   3.181   6.568   7.139  1.6507  0.3721  0.5442
  160SAPE   C2717915   3.286   6.743   7.217 -0.3677  0.1251 -0.0495
  160SAPE   H7R17916   3.195   6.769   7.276 -0.4388  1.0875 -0.5687
  160SAPE   H7S17917   3.332   6.839   7.183  0.5680 -0.4191 -0.3591
  160SAPE   C2817918   3.390   6.667   7.299  0.1134  0.2648 -0.2368
  160SAPE   H8R17919   3.478   6.628   7.246  1.3080  0.9170  1.2054
  160SAPE   C2917920   3.372   6.621   7.427  0.1983  0.3471 -0.1333
  160SAPE   H9R17921   3.458   6.566   7.467  0.3713 -0.6426 -1.7740
  160SAPE  C21017922   3.260   6.649   7.522  0.2887 -0.2848  0.0863
  160SAPE  H10R17923   3.244   6.553   7.575 -0.4612 -0.2636 -0.0887
  160SAPE  H10S17924   3.176   6.684   7.458  0.9239  2.1197  0.4595
  160SAPE  C21117925   3.300   6.761   7.620 -1.1660  0.3481 -0.3004
  160SAPE  H11R17926   3.346   6.844   7.564  1.0250 -0.2956  0.4366
  160SAPE  C21217927   3.269   6.769   7.748  0.0858 -0.4835 -0.4804
  160SAPE  H12R17928   3.301   6.849   7.817 -0.7032 -2.4836  2.3812
  160SAPE  C21317929   3.204   6.666   7.835  0.2722 -0.4020 -0.4177
  160SAPE  H13R17930   3.246   6.568   7.804 -0.4302 -0.7526 -0.2790
  160SAPE  H13S17931   3.094   6.663   7.816  0.4283 -0.8759 -1.3087
  160SAPE  C21417932   3.231   6.681   7.987 -0.2640  0.2688  0.7375
  160SAPE  H14R17933   3.177   6.765   8.033 -1.2325  0.5250 -0.7978
  160SAPE  C21517934   3.317   6.608   8.053  0.1410 -0.2475  0.8592
  160SAPE  H15R17935   3.331   6.625   8.161 -1.9645  1.4328  0.9354
  160SAPE  C21617936   3.402   6.490   7.999  0.5027  0.6429  0.7017
  160SAPE  H16R17937   3.506   6.524   7.984  0.0369  1.7034 -0.2614
  160SAPE  H16S17938   3.362   6.455   7.902 -1.5674  2.6061  0.7384
  160SAPE  C21717939   3.421   6.370   8.094  0.1677  0.6150 -0.3004
  160SAPE  H17R17940   3.446   6.400   8.198  1.0368  1.4335 -0.7270
  160SAPE  H17S17941   3.501   6.304   8.054 -0.6700  1.1479 -3.0544
  160SAPE  C21817942   3.296   6.272   8.104  0.3826 -0.2913  0.3080
  160SAPE  H18R17943   3.297   6.209   8.013 -0.1835 -0.3707  0.3517
  160SAPE  H18S17944   3.198   6.326   8.102  0.3521 -0.3548 -0.0624
  160SAPE  C21917945   3.295   6.171   8.221 -0.2325  0.2056  0.6963
  160SAPE  H19R17946   3.388   6.111   8.214  1.2925  2.3389  1.6148
  160SAPE  H19S17947   3.208   6.106   8.198 -0.6251  0.9494  0.0141
  160SAPE  C22017948   3.290   6.233   8.363 -0.7229 -0.1464  0.8945
  160SAPE  H20R17949   3.249   6.336   8.355 -0.4283 -0.1891 -3.0205
  160SAPE  H20S17950   3.398   6.249   8.386 -0.4924  1.5907 -1.0331
  160SAPE  H20T17951   3.238   6.176   8.442 -0.2887  0.1629  1.4080
  160SAPE   C3317952   2.989   7.237   6.800 -0.8490 -0.0736  0.0441
  160SAPE   H3X17953   2.899   7.173   6.796 -2.2438  1.7077  1.1677
  160SAPE   H3Y17954   2.966   7.331   6.746 -1.4143  1.7454  3.1905
  160SAPE   C3417955   3.003   7.287   6.947  0.2095 -0.5679 -0.0633
  160SAPE   H4X17956   2.908   7.340   6.969 -0.2598 -0.6851 -1.7157
  160SAPE   H4Y17957   3.086   7.361   6.949  0.3305 -0.7040  0.0307
  160SAPE   C3517958   3.015   7.186   7.064 -0.1766  0.2135  0.5109
  160SAPE   H5X17959   3.094   7.111   7.039  2.3648  2.4919  1.2508
  160SAPE   H5Y17960   2.921   7.126   7.063  0.4357 -0.7700  1.1381
  160SAPE   C3617961   3.028   7.243   7.203 -0.3728  0.2307  0.5013
  160SAPE   H6X17962   2.954   7.326   7.209 -1.0125 -0.3339  0.6145
  160SAPE   H6Y17963   3.131   7.280   7.218  0.4541 -1.3404 -0.8919
  160SAPE   C3717964   2.994   7.145   7.313  0.1535  0.4277  0.2727
  160SAPE   H7X17965   3.053   7.051   7.305  0.5365  0.7191 -0.4061
  160SAPE   H7Y17966   2.886   7.118   7.323  0.2578  0.0413  0.3865
  160SAPE   C3817967   3.017   7.197   7.453 -0.1797 -0.1266 -0.1730
  160SAPE   H8X17968   2.967   7.295   7.464 -0.3807 -0.1626 -0.7770
  160SAPE   H8Y17969   3.126   7.219   7.467 -0.0905 -0.4211 -0.4011
  160SAPE   C3917970   2.976   7.115   7.579 -0.1326 -0.4914 -0.3682
  160SAPE   H9X17971   2.999   7.006   7.569 -0.2689 -0.3984 -1.9309
  160SAPE   H9Y17972   2.866   7.115   7.586 -0.1999 -2.8360 -0.6469
  160SAPE  C31017973   3.025   7.174   7.707  0.1694 -0.1616 -0.7495
  160SAPE  H10X17974   2.951   7.254   7.731  0.3186  0.1371 -1.2661
  160SAPE  H10Y17975   3.124   7.225   7.702  0.4707 -0.4999  0.9423
  160SAPE  C31117976   3.032   7.079   7.831  0.0183  0.1934  0.6679
  160SAPE  H11X17977   3.090   6.987   7.812  0.3071  0.5196 -0.0546
  160SAPE  H11Y17978   2.932   7.033   7.848 -0.6452  1.5249  0.5072
  160SAPE  C31217979   3.091   7.156   7.950 -1.2012 -0.1209 -0.3246
  160SAPE  H12X17980   3.018   7.230   7.989 -0.2258  1.6424 -1.6550
  160SAPE  H12Y17981   3.182   7.211   7.916 -1.2256  0.6700  0.8445
  160SAPE  C31317982   3.117   7.056   8.064 -0.7104  0.2247 -0.4250
  160SAPE  H13X17983   3.204   6.994   8.035 -1.0307 -0.3176 -0.2364
  160SAPE  H13Y17984   3.029   6.993   8.087 -0.8593  0.7172  0.4099
  160SAPE  C31417985   3.163   7.135   8.186 -0.2234 -0.4535  0.3514
  160SAPE  H14X17986   3.077   7.187   8.234 -1.6913  0.1078 -2.6806
  160SAPE  H14Y17987   3.230   7.212   8.142 -3.2035  0.7418 -2.4651
  160SAPE  C31517988   3.252   7.053   8.292 -0.6295  1.0566  0.0480
  160SAPE  H15X17989   3.305   7.128   8.354 -0.0596 -0.8616  1.9962
  160SAPE  H15Y17990   3.325   6.995   8.233 -0.1027  1.7620 -0.0107
  160SAPE  C31617991   3.162   6.958   8.368  0.0759  0.2394 -1.1232
  160SAPE  H16X17992   3.117   6.876   8.308  0.0239 -0.5014 -0.1051
  160SAPE  H16Y17993   3.080   7.015   8.415  1.3989  0.5903  0.9288
  160SAPE  C31717994   3.228   6.884   8.481 -0.2593 -0.6568  0.0956
  160SAPE  H17X17995   3.153   6.844   8.553  1.0318 -2.7546  0.3528
  160SAPE  H17Y17996   3.283   6.961   8.539  0.0861 -1.4117  0.7854
  160SAPE  C31817997   3.318   6.769   8.442  0.7970  0.1493 -0.1749
  160SAPE  H18X17998   3.255   6.679   8.433 -0.3431  0.9266 -0.0971
  160SAPE  H18Y17999   3.393   6.729   8.514  1.3916  1.1255 -0.2299
  160SAPE  H18Z18000   3.376   6.787   8.348  0.2754 -1.5294 -0.8426
  161SAPE     N18001   5.902   6.018   6.293  0.1978  0.0383 -0.4506
  161SAPE   HN118002   5.940   6.112   6.267  3.0436 -1.2893 -1.5028
  161SAPE   HN218003   5.919   6.014   6.396  0.6293 -0.2588 -0.5295
  161SAPE   HN318004   5.970   5.953   6.248  1.9347  0.5002  1.3469
  161SAPE   C1218005   5.758   5.992   6.245 -0.2483 -0.1023 -0.1602
  161SAPE  H12A18006   5.731   5.887   6.269  0.7292 -0.8982 -2.2681
  161SAPE  H12B18007   5.759   6.012   6.136  1.0900 -0.3160 -0.2025
  161SAPE   C1118008   5.669   6.095   6.312 -0.4740 -0.5073  0.1073
  161SAPE  H11A18009   5.691   6.105   6.420 -3.1192  0.2324  0.6434
  161SAPE  H11B18010   5.561   6.074   6.299 -0.5755 -1.0105  1.6068
  161SAPE     P18011   5.612   6.354   6.281 -0.0859  0.1573  0.3267
  161SAPE   O1318012   5.694   6.477   6.241 -0.5429  0.4173  0.5147
  161SAPE   O1418013   5.482   6.340   6.218 -0.1757 -0.2888  0.4084
  161SAPE   O1218014   5.698   6.225   6.255 -0.4393 -0.0674  0.2548
  161SAPE   O1118015   5.595   6.354   6.440  0.0130 -0.8275 -0.4792
  161SAPE    C118016   5.487   6.426   6.507 -0.3605 -0.1161 -0.1228
  161SAPE    HA18017   5.390   6.398   6.462  0.5603  0.0417 -2.3329
  161SAPE    HB18018   5.483   6.394   6.613  1.1017  0.2226  0.0621
  161SAPE    C218019   5.510   6.583   6.509  0.2020  0.5211  0.4349
  161SAPE    HS18020   5.481   6.606   6.404  1.6516 -1.4883 -0.4742
  161SAPE   O2118021   5.653   6.610   6.530  0.3834  0.6985 -0.7578
  161SAPE   C2118022   5.711   6.699   6.445 -0.0229 -0.8627  0.2071
  161SAPE   O2218023   5.653   6.762   6.359  0.1237 -0.2491  0.2217
  161SAPE   C2218024   5.857   6.698   6.459 -0.0584 -0.4771 -0.0051
  161SAPE   H2R18025   5.890   6.683   6.565  2.4434 -0.6633 -0.7399
  161SAPE   H2S18026   5.896   6.620   6.391  1.2170  2.5115 -3.0211
  161SAPE    C318027   5.426   6.664   6.607  0.2025 -0.7151  0.3139
  161SAPE    HX18028   5.450   6.636   6.711  1.2027 -1.3457 -0.0757
  161SAPE    HY18029   5.318   6.653   6.580  0.0810  0.4232  0.3114
  161SAPE   O3118030   5.441   6.805   6.591 -0.4276  0.8946 -0.1820
  161SAPE   C3118031   5.537   6.873   6.656  0.1327  0.1699  0.0964
  161SAPE   O3218032   5.617   6.830   6.737 -0.2350 -0.0857 -0.6751
  161SAPE   C3218033   5.535   7.019   6.603 -0.7551  0.7088  1.3074
  161SAPE   H2X18034   5.429   7.052   6.607 -1.5706 -1.7808  2.5473
  161SAPE   H2Y18035   5.582   7.021   6.503 -1.9035  1.8399  0.7644
  161SAPE   C2318036   5.924   6.827   6.421  0.2661 -0.2772  0.4906
  161SAPE   H3R18037   5.856   6.903   6.465 -1.1172 -2.4627  2.3564
  161SAPE   H3S18038   5.927   6.839   6.311 -0.8053 -1.6188  0.2973
  161SAPE   C2418039   6.070   6.823   6.471 -0.4799 -0.3302 -0.1766
  161SAPE   H4R18040   6.149   6.789   6.399 -0.8307 -0.4204 -0.5219
  161SAPE   H4S18041   6.083   6.763   6.564 -0.5741 -0.5609 -0.3107
  161SAPE   C2518042   6.100   6.971   6.495 -0.3266  0.4656 -0.0046
  161SAPE   H5R18043   6.110   7.027   6.401 -1.3958  1.1365  0.2638
  161SAPE   C2618044   6.128   7.025   6.613  0.9099 -0.5377 -0.6837
  161SAPE   H6R18045   6.148   7.133   6.604  1.7910 -0.6117  0.1991
  161SAPE   C2718046   6.106   6.968   6.749 -0.3746  0.6349 -0.2355
  161SAPE   H7R18047   6.045   6.875   6.747  2.2674 -1.1779 -1.1777
  161SAPE   H7S18048   6.051   7.041   6.813 -1.4119 -0.6610  0.3865
  161SAPE   C2818049   6.229   6.907   6.814  0.7113 -0.2762 -0.2069
  161SAPE   H8R18050   6.279   6.844   6.740 -0.0803 -0.0128 -0.9833
  161SAPE   C2918051   6.279   6.926   6.937 -0.5458  0.3287  2.1980
  161SAPE   H9R18052   6.362   6.860   6.966  0.5976  1.3480  1.3286
  161SAPE  C21018053   6.219   7.005   7.052  0.0029 -0.0796  0.3585
  161SAPE  H10R18054   6.177   7.098   7.009 -0.5874 -1.4621 -2.2455
  161SAPE  H10S18055   6.302   7.027   7.123  1.4152  0.1180 -1.2622
  161SAPE  C21118056   6.115   6.924   7.116 -0.1059 -0.2953  0.4566
  161SAPE  H11R18057   6.042   6.882   7.046 -1.4103  1.2379  0.8473
  161SAPE  C21218058   6.109   6.881   7.245 -0.3616 -0.0105 -0.1128
  161SAPE  H12R18059   6.025   6.817   7.276 -0.7616  0.6535  0.2153
  161SAPE  C21318060   6.212   6.900   7.362  0.0053 -0.3518  0.5508
  161SAPE  H13R18061   6.304   6.949   7.323  0.6648 -0.1313  2.2785
  161SAPE  H13S18062   6.232   6.793   7.382 -0.8207 -1.7436 -4.6636
  161SAPE  C21418063   6.157   6.984   7.478  0.4608  0.1546  0.4803
  161SAPE  H14R18064   6.062   7.036   7.462  0.0833 -0.0467  1.9700
  161SAPE  C21518065   6.214   6.999   7.593 -0.3405 -0.1716  0.4391
  161SAPE  H15R18066   6.164   7.059   7.671  0.1695 -2.0427  2.2712
  161SAPE  C21618067   6.339   6.920   7.635  0.0061 -0.1068 -0.2359
  161SAPE  H16R18068   6.380   6.970   7.725 -2.8052 -0.7107  1.5024
  161SAPE  H16S18069   6.424   6.927   7.564  0.3537  0.5863  0.2335
  161SAPE  C21718070   6.308   6.777   7.674  0.0411  0.4007  0.2220
  161SAPE  H17R18071   6.404   6.722   7.669 -0.6417 -1.2116  3.0802
  161SAPE  H17S18072   6.251   6.723   7.596 -1.0870  0.4132  1.0136
  161SAPE  C21818073   6.262   6.762   7.818  0.0766  0.5830  0.3297
  161SAPE  H18R18074   6.174   6.827   7.834 -1.6185 -1.6005  0.2680
  161SAPE  H18S18075   6.341   6.803   7.885  1.0106  0.3418 -0.5903
  161SAPE  C21918076   6.234   6.613   7.859  0.2645 -0.4537  0.3609
  161SAPE  H19R18077   6.175   6.555   7.784  0.3883 -2.4056  1.7061
  161SAPE  H19S18078   6.165   6.614   7.946  0.0250  0.4756  0.1692
  161SAPE  C22018079   6.353   6.517   7.878  0.4147 -1.4030 -0.0344
  161SAPE  H20R18080   6.409   6.522   7.782 -0.6819  0.9960 -0.6159
  161SAPE  H20S18081   6.323   6.413   7.903  1.3036 -1.7543 -0.3911
  161SAPE  H20T18082   6.417   6.558   7.959  0.5040  0.3308 -0.9380
  161SAPE   C3318083   5.631   7.112   6.688 -0.9073  0.4499 -0.1195
  161SAPE   H3X18084   5.610   7.217   6.656 -1.3710  0.0450 -1.1843
  161SAPE   H3Y18085   5.737   7.094   6.660 -1.3359 -0.9104 -0.9426
  161SAPE   C3418086   5.615   7.118   6.838 -0.1408 -0.3722  0.1603
  161SAPE   H4X18087   5.615   7.020   6.891 -0.4929 -0.3464  0.2046
  161SAPE   H4Y18088   5.512   7.155   6.856 -0.0246  0.4236 -0.7621
  161SAPE   C3518089   5.715   7.211   6.905 -0.0213  0.7300 -0.1128
  161SAPE   H5X18090   5.689   7.311   6.865  1.7236  0.7870 -1.1851
  161SAPE   H5Y18091   5.816   7.185   6.867 -0.6732 -1.0272 -0.7729
  161SAPE   C3618092   5.712   7.208   7.058 -0.1436 -0.4514 -0.3180
  161SAPE   H6X18093   5.730   7.103   7.090  1.9881 -0.9085 -2.6358
  161SAPE   H6Y18094   5.607   7.228   7.088 -0.5940 -1.7957 -0.8930
  161SAPE   C3718095   5.818   7.292   7.133  0.4575 -0.1218  0.5592
  161SAPE   H7X18096   5.811   7.398   7.101  1.5789 -0.8966 -2.6425
  161SAPE   H7Y18097   5.919   7.261   7.099  0.5367  0.2273  0.4768
  161SAPE   C3818098   5.809   7.267   7.287  0.0609  0.3662  0.4494
  161SAPE   H8X18099   5.702   7.295   7.299 -0.3543 -0.2438 -1.4577
  161SAPE   H8Y18100   5.871   7.349   7.329  1.4055 -0.3368 -0.1067
  161SAPE   C3918101   5.831   7.125   7.340  0.2987  0.0180 -0.4791
  161SAPE   H9X18102   5.934   7.096   7.309  0.5440 -0.1282  0.4353
  161SAPE   H9Y18103   5.754   7.051   7.309  0.0671 -1.4019  3.0138
  161SAPE  C31018104   5.819   7.123   7.495  0.4168  0.6496 -0.4528
  161SAPE  H10X18105   5.916   7.156   7.536  0.3357  1.0145 -0.5521
  161SAPE  H10Y18106   5.813   7.016   7.526 -2.6877  1.0126  0.5960
  161SAPE  C31118107   5.696   7.194   7.554 -0.2856  0.0561 -0.1900
  161SAPE  H11X18108   5.604   7.153   7.506  0.8301 -1.9873 -0.6931
  161SAPE  H11Y18109   5.694   7.299   7.517  1.3144 -0.0072 -0.5120
  161SAPE  C31218110   5.673   7.194   7.707  0.1337 -0.0839 -0.4743
  161SAPE  H12X18111   5.647   7.090   7.737  1.1424 -0.0529  0.5647
  161SAPE  H12Y18112   5.582   7.250   7.736 -0.6873 -1.2535 -0.6912
  161SAPE  C31318113   5.792   7.231   7.798 -0.3145 -0.1368 -0.3540
  161SAPE  H13X18114   5.786   7.341   7.816 -0.3457  0.9051 -5.2535
  161SAPE  H13Y18115   5.888   7.211   7.746  0.4591  3.2991 -0.5127
  161SAPE  C31418116   5.782   7.151   7.936 -0.5114 -0.1653 -0.6836
  161SAPE  H14X18117   5.779   7.041   7.923  2.0722 -0.6695  1.9277
  161SAPE  H14Y18118   5.686   7.181   7.985  0.1881  0.6001  0.2635
  161SAPE  C31518119   5.899   7.170   8.033 -0.4847 -0.5135 -0.3119
  161SAPE  H15X18120   5.888   7.107   8.124  1.3069  0.1790  0.4346
  161SAPE  H15Y18121   5.909   7.272   8.077 -0.7908 -0.4761 -0.3304
  161SAPE  C31618122   6.036   7.128   7.970  0.7191 -0.5372  0.6702
  161SAPE  H16X18123   6.069   7.209   7.901 -0.2397 -0.7174 -0.0282
  161SAPE  H16Y18124   6.019   7.043   7.901 -0.5677  1.8422 -2.1794
  161SAPE  C31718125   6.148   7.092   8.059 -0.2560 -0.5055 -0.2139
  161SAPE  H17X18126   6.245   7.079   8.006  0.4710 -1.1477  1.2100
  161SAPE  H17Y18127   6.140   6.996   8.114  1.9777 -1.6373 -1.7070
  161SAPE  C31818128   6.193   7.208   8.143  0.3818  0.6039  0.3683
  161SAPE  H18X18129   6.261   7.173   8.224 -0.0234  1.7271  1.2295
  161SAPE  H18Y18130   6.105   7.265   8.179  0.3927  1.3672 -0.7622
  161SAPE  H18Z18131   6.251   7.275   8.076 -0.7740  0.6246 -0.6459
  162SAPE     N18132   3.158   3.983   5.397  0.3119 -1.1300 -0.0549
  162SAPE   HN118133   3.093   3.912   5.435  0.6446 -0.8181  1.1455
  162SAPE   HN218134   3.106   4.072   5.385 -0.5905 -1.6592 -0.1455
  162SAPE   HN318135   3.191   3.962   5.301 -0.6339  0.3894 -0.7371
  162SAPE   C1218136   3.265   4.014   5.497 -0.7357 -0.5245  0.4557
  162SAPE  H12A18137   3.328   4.091   5.448 -2.4131  0.3770 -0.4133
  162SAPE  H12B18138   3.322   3.923   5.526  1.2711  1.3696  2.8345
  162SAPE   C1118139   3.208   4.075   5.625 -1.0413 -0.3001 -1.6009
  162SAPE  H11A18140   3.302   4.091   5.682 -2.0491  1.6398 -0.3654
  162SAPE  H11B18141   3.150   3.994   5.673 -1.2193  1.2119  0.9102
  162SAPE     P18142   3.041   4.260   5.707  0.6011 -0.1584 -0.1550
  162SAPE   O1318143   3.013   4.403   5.663 -0.1927  0.3084  0.3535
  162SAPE   O1418144   2.927   4.174   5.731 -0.4257  0.1447 -0.3525
  162SAPE   O1218145   3.128   4.188   5.600 -0.0066  0.0284 -0.2779
  162SAPE   O1118146   3.125   4.271   5.845  0.4258  1.1313  0.6152
  162SAPE    C118147   3.249   4.338   5.858  0.8053  0.7736  0.8394
  162SAPE    HA18148   3.297   4.356   5.759 -2.9296  1.8531 -0.9878
  162SAPE    HB18149   3.224   4.431   5.913 -0.6527 -0.1382  1.7766
  162SAPE    C218150   3.345   4.286   5.961 -0.5742 -0.2262 -0.0820
  162SAPE    HS18151   3.406   4.202   5.921  0.5282  0.1576  0.7331
  162SAPE   O2118152   3.267   4.236   6.073  0.0006  0.2669  0.2138
  162SAPE   C2118153   3.234   4.101   6.071 -0.3013 -0.7260  0.8707
  162SAPE   O2218154   3.285   4.026   5.990  0.2656  0.5604 -0.4498
  162SAPE   C2218155   3.145   4.067   6.186 -0.5659  0.0792 -0.5490
  162SAPE   H2R18156   3.136   3.958   6.203 -1.8455  0.3944  1.1611
  162SAPE   H2S18157   3.164   4.128   6.278 -2.8722 -0.7694  0.5852
  162SAPE    C318158   3.442   4.402   6.011  0.3617  0.1007 -0.0853
  162SAPE    HX18159   3.385   4.486   6.057  0.1121  0.8824 -1.7492
  162SAPE    HY18160   3.482   4.452   5.920  0.6327  1.4512  0.7560
  162SAPE   O3118161   3.545   4.353   6.093 -0.4243  0.4936  0.3362
  162SAPE   C3118162   3.542   4.384   6.221 -0.4747 -0.5122 -0.3442
  162SAPE   O3218163   3.470   4.477   6.266  0.3549  0.2690 -0.4550
  162SAPE   C3218164   3.633   4.293   6.307 -0.1109 -0.2061 -0.2782
  162SAPE   H2X18165   3.735   4.337   6.294 -0.8942  0.8831 -3.8604
  162SAPE   H2Y18166   3.622   4.186   6.282  0.7676 -0.7975  1.7107
  162SAPE   C2318167   2.996   4.095   6.155  0.8724 -0.2576  0.0067
  162SAPE   H3R18168   2.963   4.019   6.081  0.2180 -0.0944  0.1319
  162SAPE   H3S18169   2.977   4.192   6.103 -0.8530 -0.6701 -0.1668
  162SAPE   C2418170   2.917   4.097   6.291  0.0493  0.3724  0.3781
  162SAPE   H4R18171   2.818   4.139   6.262  0.5538  0.7559 -0.8726
  162SAPE   H4S18172   2.958   4.178   6.355  1.8972  1.7215 -2.2959
  162SAPE   C2518173   2.901   3.961   6.354 -0.1339  0.3296  0.7113
  162SAPE   H5R18174   2.871   3.887   6.278  1.3473  0.6050 -0.1648
  162SAPE   C2618175   2.931   3.921   6.477  0.3912 -0.2175 -0.4553
  162SAPE   H6R18176   2.906   3.822   6.518 -0.4691  0.2612  0.2033
  162SAPE   C2718177   2.974   4.014   6.594 -0.0115 -0.3794 -0.1780
  162SAPE   H7R18178   2.945   4.119   6.571 -1.5718 -0.5213  0.9523
  162SAPE   H7S18179   3.084   4.018   6.608 -0.3189  1.3863  2.2760
  162SAPE   C2818180   2.911   3.985   6.729 -0.0849 -0.4452  0.1950
  162SAPE   H8R18181   2.861   3.887   6.736 -0.3019 -0.4509 -1.1352
  162SAPE   C2918182   2.936   4.056   6.840 -0.2794 -0.0231 -0.3248
  162SAPE   H9R18183   2.891   4.019   6.933  1.0946 -0.2756  0.2661
  162SAPE  C21018184   3.016   4.181   6.851 -0.4321  0.6712  0.0123
  162SAPE  H10R18185   3.052   4.213   6.751  1.1089 -2.5221 -0.6009
  162SAPE  H10S18186   3.099   4.151   6.919 -2.4794  1.8349  3.2461
  162SAPE  C21118187   2.947   4.300   6.908  0.7249 -0.2174 -0.1261
  162SAPE  H11R18188   2.888   4.364   6.841 -1.5443 -0.2678  1.7098
  162SAPE  C21218189   2.944   4.342   7.040 -0.4087 -0.7412 -0.3759
  162SAPE  H12R18190   2.890   4.436   7.060 -0.9794 -1.1845  0.2276
  162SAPE  C21318191   3.014   4.279   7.159  0.1355  0.3786 -0.1269
  162SAPE  H13R18192   3.062   4.359   7.218  0.5474 -0.1089  0.2072
  162SAPE  H13S18193   3.087   4.201   7.127  0.2352  0.1580  0.6209
  162SAPE  C21418194   2.917   4.209   7.251 -0.7200 -0.6239  0.8334
  162SAPE  H14R18195   2.811   4.191   7.231 -0.4190 -4.3284  1.7315
  162SAPE  C21518196   2.956   4.126   7.352  0.1956  0.2381  0.2981
  162SAPE  H15R18197   2.875   4.075   7.407  0.8263 -0.9694  0.1389
  162SAPE  C21618198   3.096   4.076   7.383 -0.4035 -0.5147  0.2027
  162SAPE  H16R18199   3.137   4.131   7.470  0.0669  0.2939 -0.5131
  162SAPE  H16S18200   3.177   4.107   7.314  2.3315 -0.3224  3.2863
  162SAPE  C21718201   3.125   3.924   7.390 -0.0920  0.2297 -0.6011
  162SAPE  H17R18202   3.074   3.882   7.300 -1.2340 -0.0135  0.1376
  162SAPE  H17S18203   3.072   3.891   7.482  1.0154 -0.6144 -0.2426
  162SAPE  C21818204   3.272   3.895   7.405 -0.4517  0.6538  0.6920
  162SAPE  H18R18205   3.315   3.949   7.493  0.7988 -0.9967  1.1660
  162SAPE  H18S18206   3.326   3.920   7.311 -2.1812  1.2330 -0.1953
  162SAPE  C21918207   3.310   3.745   7.412 -0.1231  0.2255 -0.1725
  162SAPE  H19R18208   3.419   3.736   7.391 -0.1681 -3.3418  0.4243
  162SAPE  H19S18209   3.263   3.693   7.325 -0.7654  1.9057 -0.8742
  162SAPE  C22018210   3.271   3.676   7.543 -0.4220  0.1210 -0.1335
  162SAPE  H20R18211   3.319   3.577   7.557  0.7947  0.9683  2.2702
  162SAPE  H20S18212   3.163   3.649   7.542 -0.8655  1.8170 -0.9604
  162SAPE  H20T18213   3.314   3.733   7.628 -0.5306 -1.9334  1.3847
  162SAPE   C3318214   3.605   4.311   6.456 -0.5127 -0.0008  0.1543
  162SAPE   H3X18215   3.510   4.275   6.500 -1.2920  3.3880  1.5517
  162SAPE   H3Y18216   3.610   4.419   6.481  0.4000 -0.4015  1.8345
  162SAPE   C3418217   3.715   4.250   6.548 -0.6524 -0.1456  0.3611
  162SAPE   H4X18218   3.811   4.289   6.509  0.0232 -1.9818  0.1029
  162SAPE   H4Y18219   3.722   4.140   6.539  3.1589  0.0272 -0.4834
  162SAPE   C3518220   3.699   4.288   6.697  0.9330 -0.2457 -0.5258
  162SAPE   H5X18221   3.624   4.225   6.748  1.4501  0.5970  1.3427
  162SAPE   H5Y18222   3.654   4.389   6.683  2.4782  0.4702 -0.6023
  162SAPE   C3618223   3.831   4.270   6.779  0.4451  0.3911 -0.4392
  162SAPE   H6X18224   3.910   4.332   6.730  1.2342  0.4517  0.8642
  162SAPE   H6Y18225   3.855   4.166   6.748 -1.0098  0.1963 -0.9901
  162SAPE   C3718226   3.827   4.281   6.933  0.5159 -0.6150  0.4997
  162SAPE   H7X18227   3.761   4.210   6.988  0.3859 -0.4731  0.5278
  162SAPE   H7Y18228   3.792   4.383   6.960  0.1685 -0.5751 -0.0849
  162SAPE   C3818229   3.963   4.261   6.994 -0.2948  0.0256  0.3027
  162SAPE   H8X18230   4.028   4.333   6.940  1.2358 -0.9912  0.7214
  162SAPE   H8Y18231   4.001   4.158   6.976 -0.0317  0.5214 -2.3438
  162SAPE   C3918232   3.959   4.304   7.136 -0.2629  0.3076  0.2509
  162SAPE   H9X18233   3.876   4.251   7.188 -1.0701  0.3847 -0.9219
  162SAPE   H9Y18234   3.930   4.410   7.147 -0.7946  0.1364  0.5540
  162SAPE  C31018235   4.093   4.273   7.207  0.5932 -0.4591 -0.0039
  162SAPE  H10X18236   4.175   4.324   7.152 -0.8533  2.4155  0.3405
  162SAPE  H10Y18237   4.096   4.162   7.203 -0.8714 -0.4785 -1.0818
  162SAPE  C31118238   4.098   4.318   7.348  0.3283 -0.2088  0.4129
  162SAPE  H11X18239   4.029   4.261   7.414 -1.0293  1.8594  0.8720
  162SAPE  H11Y18240   4.068   4.425   7.350 -0.7191 -0.3365 -2.4935
  162SAPE  C31218241   4.242   4.310   7.410  0.5691 -0.0369  0.6941
  162SAPE  H12X18242   4.306   4.366   7.339 -1.4985  2.4772  0.6245
  162SAPE  H12Y18243   4.265   4.202   7.407 -0.7282 -0.3132 -1.2634
  162SAPE  C31318244   4.254   4.378   7.549 -0.2482  0.3697  0.4950
  162SAPE  H13X18245   4.189   4.318   7.615  0.7009 -0.6629  0.5316
  162SAPE  H13Y18246   4.210   4.480   7.540  1.4567  1.0706 -0.3913
  162SAPE  C31418247   4.402   4.378   7.601  0.1318 -0.4551 -0.4261
  162SAPE  H14X18248   4.449   4.444   7.525 -1.4057 -0.3293 -1.2860
  162SAPE  H14Y18249   4.448   4.278   7.588  0.1870 -0.5437  0.3707
  162SAPE  C31518250   4.416   4.441   7.742 -0.0379 -0.3769 -0.1750
  162SAPE  H15X18251   4.384   4.373   7.823  2.0178  0.0939  1.1023
  162SAPE  H15Y18252   4.357   4.535   7.742 -1.8729 -1.4659  1.3134
  162SAPE  C31618253   4.554   4.506   7.770 -0.1249  0.6260  0.2456
  162SAPE  H16X18254   4.571   4.586   7.694 -0.8351 -0.0673 -0.6678
  162SAPE  H16Y18255   4.620   4.420   7.747 -2.1104 -0.4667 -1.6449
  162SAPE  C31718256   4.586   4.569   7.910  0.2965 -0.5537 -0.2017
  162SAPE  H17X18257   4.546   4.510   7.995 -0.9890 -1.4469 -1.3724
  162SAPE  H17Y18258   4.551   4.674   7.904 -0.0784 -0.7172 -1.1184
  162SAPE  C31818259   4.738   4.559   7.922  0.1906 -0.2881  0.3701
  162SAPE  H18X18260   4.778   4.599   7.826 -1.0891  1.3444  0.4710
  162SAPE  H18Y18261   4.771   4.455   7.942  0.5162 -0.0667  1.0082
  162SAPE  H18Z18262   4.787   4.621   7.999  0.7512  0.7940 -0.8187
  163SAPE     N18263   2.203   6.756   6.519 -0.1869  0.3604 -0.1397
  163SAPE   HN118264   2.260   6.674   6.550 -2.1936 -1.3920 -0.8248
  163SAPE   HN218265   2.145   6.779   6.602 -0.2576  1.5185 -0.4919
  163SAPE   HN318266   2.133   6.739   6.444  0.6022 -0.5418 -0.6985
  163SAPE   C1218267   2.289   6.873   6.479  0.4208 -0.6058  0.4323
  163SAPE  H12A18268   2.384   6.866   6.535  0.2653 -0.6348  0.6960
  163SAPE  H12B18269   2.227   6.962   6.503 -1.1563 -1.7569  0.7941
  163SAPE   C1118270   2.309   6.871   6.324 -1.1104  0.3360  0.4822
  163SAPE  H11A18271   2.318   6.764   6.295 -2.3791  0.3050  0.1292
  163SAPE  H11B18272   2.396   6.932   6.293  1.0234 -1.2913  2.8266
  163SAPE     P18273   2.151   7.045   6.214  0.1660  0.1400 -0.0598
  163SAPE   O1318274   2.258   7.074   6.124 -0.3425 -0.1814  0.1840
  163SAPE   O1418275   2.018   7.038   6.156  0.0809 -0.8099  0.3541
  163SAPE   O1218276   2.184   6.909   6.265 -0.2794  0.0784  0.1525
  163SAPE   O1118277   2.151   7.154   6.332 -0.2101  0.0611 -0.0130
  163SAPE    C118278   2.048   7.154   6.425  0.1506 -0.3182 -0.6054
  163SAPE    HA18279   1.953   7.173   6.371 -0.3303 -1.4934 -0.1921
  163SAPE    HB18280   2.053   7.059   6.482  0.6383  0.7186  1.1716
  163SAPE    C218281   2.059   7.263   6.534 -0.0339  0.5136 -0.2400
  163SAPE    HS18282   2.042   7.362   6.487 -1.8110 -0.5842 -2.0748
  163SAPE   O2118283   2.183   7.235   6.597 -0.0230 -0.7215  0.3542
  163SAPE   C2118284   2.275   7.331   6.587  0.0834 -0.1905  0.0915
  163SAPE   O2218285   2.262   7.445   6.537 -0.3585 -0.4428 -0.1004
  163SAPE   C2218286   2.403   7.280   6.648 -0.1929  0.1146  0.4363
  163SAPE   H2R18287   2.382   7.222   6.740  3.4785  1.9186  2.6175
  163SAPE   H2S18288   2.454   7.209   6.580 -0.8647 -0.4577  0.5151
  163SAPE    C318289   1.944   7.245   6.633 -0.1402  0.0467 -0.4817
  163SAPE    HX18290   1.919   7.140   6.658  0.2011 -0.3294 -1.6370
  163SAPE    HY18291   1.850   7.279   6.586 -1.2245  0.3810  1.7911
  163SAPE   O3118292   1.962   7.330   6.754 -0.0274 -0.3722  0.3371
  163SAPE   C3118293   2.007   7.264   6.861 -0.3643 -0.1126  0.4000
  163SAPE   O3218294   2.057   7.156   6.869  0.5268  0.1348  0.1906
  163SAPE   C3218295   1.989   7.354   6.989  1.1671  0.6601 -0.6248
  163SAPE   H2X18296   1.900   7.420   6.978  0.2168 -0.3383  0.7798
  163SAPE   H2Y18297   2.074   7.425   7.002  0.2975  1.3209  2.1805
  163SAPE   C2318298   2.502   7.397   6.692 -0.1674  0.5975 -0.1013
  163SAPE   H3R18299   2.452   7.495   6.681 -0.1171  0.4923 -1.4468
  163SAPE   H3S18300   2.603   7.400   6.645 -0.0037 -1.1297  0.0755
  163SAPE   C2418301   2.531   7.394   6.846  0.0731 -0.5264  0.2262
  163SAPE   H4R18302   2.430   7.395   6.892  0.3355 -1.6132  0.8655
  163SAPE   H4S18303   2.560   7.496   6.880 -2.4404  0.9203 -1.6979
  163SAPE   C2518304   2.615   7.280   6.891  0.2330 -0.1846  0.2780
  163SAPE   H5R18305   2.659   7.223   6.808  1.0246 -0.0424  0.5964
  163SAPE   C2618306   2.621   7.238   7.017 -0.0782  0.2660 -1.2752
  163SAPE   H6R18307   2.687   7.159   7.056 -1.0488 -0.3637 -0.8714
  163SAPE   C2718308   2.563   7.317   7.135  0.0487  0.0383  0.1828
  163SAPE   H7R18309   2.553   7.427   7.118 -0.5318  0.5766  3.3506
  163SAPE   H7S18310   2.624   7.313   7.227  2.8259 -1.9149 -1.6036
  163SAPE   C2818311   2.425   7.260   7.170  0.2655  0.4347  0.0799
  163SAPE   H8R18312   2.376   7.221   7.079  2.4987 -2.4395 -0.0178
  163SAPE   C2918313   2.371   7.244   7.294  0.4263 -0.3448 -0.2443
  163SAPE   H9R18314   2.271   7.198   7.300 -0.3816  1.4668  3.0479
  163SAPE  C21018315   2.426   7.285   7.429  0.7821  0.5281  0.7923
  163SAPE  H10R18316   2.336   7.289   7.495  0.3500  0.1938  0.2363
  163SAPE  H10S18317   2.456   7.391   7.415  0.0564  0.4282 -2.3029
  163SAPE  C21118318   2.532   7.193   7.482  0.1163 -0.4404  0.2851
  163SAPE  H11R18319   2.619   7.173   7.417  0.2991  2.0638 -0.3583
  163SAPE  C21218320   2.527   7.133   7.598  0.3227 -0.5376 -0.8561
  163SAPE  H12R18321   2.611   7.081   7.646  2.7856  4.7614  1.4117
  163SAPE  C21318322   2.419   7.158   7.705 -0.4200  0.6100 -0.4865
  163SAPE  H13R18323   2.422   7.086   7.790 -3.3500  3.8545  2.7470
  163SAPE  H13S18324   2.319   7.146   7.658 -1.0834  1.3945  0.6634
  163SAPE  C21418325   2.428   7.297   7.768  0.3847  1.0296  0.2659
  163SAPE  H14R18326   2.502   7.355   7.710  0.5554 -0.0903 -0.6880
  163SAPE  C21518327   2.356   7.347   7.867  0.5652  0.4328 -0.0852
  163SAPE  H15R18328   2.372   7.445   7.912  0.3005  0.2657  0.3765
  163SAPE  C21618329   2.237   7.277   7.929 -0.5960 -0.0238 -0.2010
  163SAPE  H16R18330   2.226   7.172   7.896 -0.9479  0.1911 -0.7866
  163SAPE  H16S18331   2.145   7.326   7.889  1.0877  1.3353 -2.6767
  163SAPE  C21718332   2.253   7.270   8.081  0.1325 -0.1386 -0.5331
  163SAPE  H17R18333   2.168   7.211   8.122  0.1354 -0.5094 -1.0635
  163SAPE  H17S18334   2.241   7.370   8.129  0.4570 -0.2731 -0.1699
  163SAPE  C21818335   2.390   7.206   8.128 -0.4952  0.2757  0.0248
  163SAPE  H18R18336   2.480   7.257   8.087 -0.0915 -1.2597 -1.0740
  163SAPE  H18S18337   2.401   7.104   8.086  0.8590 -0.1316  1.2728
  163SAPE  C21918338   2.415   7.193   8.285  0.3514 -0.2242  1.2682
  163SAPE  H19R18339   2.396   7.294   8.329 -0.2639 -0.4111  1.4384
  163SAPE  H19S18340   2.519   7.156   8.293  0.5946  0.1396  0.0655
  163SAPE  C22018341   2.311   7.102   8.343  0.0917  0.3834  0.9336
  163SAPE  H20R18342   2.341   6.997   8.323 -2.8606 -0.3924  0.0887
  163SAPE  H20S18343   2.211   7.112   8.296 -0.7833  0.9311  2.7912
  163SAPE  H20T18344   2.309   7.118   8.453  1.6656  1.2532  0.8677
  163SAPE   C3318345   1.966   7.269   7.115  0.2012 -0.4688  0.4183
  163SAPE   H3X18346   2.033   7.181   7.110  0.2160 -0.4216 -0.4141
  163SAPE   H3Y18347   1.865   7.224   7.103 -0.5933  1.4045 -0.3375
  163SAPE   C3418348   1.977   7.343   7.250 -0.4824 -0.4041  0.0152
  163SAPE   H4X18349   1.892   7.415   7.251  0.9004  1.3590 -1.6802
  163SAPE   H4Y18350   2.066   7.409   7.242 -0.0385 -0.8850  0.7848
  163SAPE   C3518351   1.978   7.263   7.377  0.4649  0.4070 -0.3122
  163SAPE   H5X18352   1.992   7.321   7.471  2.8701 -2.6398  1.3957
  163SAPE   H5Y18353   2.065   7.194   7.382 -0.6994 -1.1782 -1.2145
  163SAPE   C3618354   1.847   7.169   7.388 -0.0525 -0.2735 -0.1501
  163SAPE   H6X18355   1.846   7.120   7.288 -0.0440  0.5196 -0.5496
  163SAPE   H6Y18356   1.757   7.231   7.410  0.8186  0.9364  0.1090
  163SAPE   C3718357   1.847   7.074   7.514  0.0178 -0.2402  0.6539
  163SAPE   H7X18358   1.927   6.998   7.501 -0.2714 -0.5659  0.7495
  163SAPE   H7Y18359   1.754   7.013   7.523  2.1040 -3.6065  1.0713
  163SAPE   C3818360   1.867   7.158   7.641 -0.2180 -0.5820 -0.3868
  163SAPE   H8X18361   1.797   7.242   7.619  1.0721  0.6115 -0.0662
  163SAPE   H8Y18362   1.966   7.207   7.650 -0.4493 -0.2791  0.5904
  163SAPE   C3918363   1.831   7.087   7.774  0.5533 -0.1060 -0.2915
  163SAPE   H9X18364   1.723   7.060   7.777  0.0142  1.5705 -2.3582
  163SAPE   H9Y18365   1.843   7.156   7.860 -1.2493 -1.1446  0.8498
  163SAPE  C31018366   1.920   6.969   7.784 -0.5574  0.1978 -0.2660
  163SAPE  H10X18367   2.021   7.008   7.761  0.5753 -1.1837  1.9656
  163SAPE  H10Y18368   1.896   6.893   7.707  0.6160 -0.7803  0.3062
  163SAPE  C31118369   1.936   6.895   7.919 -0.0457 -0.3159  0.4796
  163SAPE  H11X18370   2.009   6.816   7.892 -0.5836 -0.4854 -0.5086
  163SAPE  H11Y18371   1.848   6.842   7.961  1.2179 -1.7984  1.3641
  163SAPE  C31218372   1.992   6.980   8.031 -0.1491 -0.1854 -1.0829
  163SAPE  H12X18373   1.923   7.066   8.040  0.6497  0.7793 -3.4411
  163SAPE  H12Y18374   2.091   7.020   7.999  0.6670 -0.3469  1.0349
  163SAPE  C31318375   1.989   6.906   8.160  0.1675  0.2968  0.1289
  163SAPE  H13X18376   1.883   6.878   8.174 -0.3826  1.9820 -0.4288
  163SAPE  H13Y18377   2.007   6.984   8.237 -0.4055  0.5507  0.0064
  163SAPE  C31418378   2.090   6.786   8.164  0.5060  0.0692 -0.0593
  163SAPE  H14X18379   2.193   6.827   8.158  0.4786  0.3646  1.1129
  163SAPE  H14Y18380   2.067   6.713   8.084 -2.0341  0.2508  0.4186
  163SAPE  C31518381   2.082   6.716   8.300  0.3061 -0.2916 -0.3991
  163SAPE  H15X18382   1.992   6.653   8.317  1.3220 -1.3244  1.4856
  163SAPE  H15Y18383   2.095   6.785   8.386  0.9054  1.2516 -1.6746
  163SAPE  C31618384   2.196   6.618   8.313 -0.0771 -0.5723  0.5910
  163SAPE  H16X18385   2.239   6.581   8.217 -0.7312 -2.0903  0.8476
  163SAPE  H16Y18386   2.169   6.522   8.362  0.9121 -0.5083  1.2991
  163SAPE  C31718387   2.308   6.667   8.402 -0.4963 -0.3034 -0.3324
  163SAPE  H17X18388   2.261   6.663   8.502 -0.5714  0.4642 -0.3294
  163SAPE  H17Y18389   2.330   6.771   8.368  1.1185 -1.5460 -3.5518
  163SAPE  C31818390   2.438   6.588   8.406 -0.9062 -0.0264 -0.7740
  163SAPE  H18X18391   2.475   6.581   8.301  0.4227 -1.1319 -0.2559
  163SAPE  H18Y18392   2.423   6.490   8.456  0.0097  1.1577  2.0097
  163SAPE  H18Z18393   2.507   6.644   8.473 -1.5742 -1.7679  1.4720
  164SAPE     N18394   4.968   3.225   6.152 -0.1678  0.5514 -0.2424
  164SAPE   HN118395   4.910   3.250   6.070 -0.8383  3.5386  0.9997
  164SAPE   HN218396   5.011   3.133   6.126 -1.7530  0.2415 -1.9515
  164SAPE   HN318397   4.900   3.231   6.230  0.0948  0.9198 -0.0368
  164SAPE   C1218398   5.066   3.337   6.158 -0.6433 -0.3793  0.0536
  164SAPE  H12A18399   5.116   3.349   6.059  1.8622 -0.7284  1.1851
  164SAPE  H12B18400   5.138   3.317   6.240  1.3396  0.8694 -1.2813
  164SAPE   C1118401   4.981   3.469   6.178  0.2676  0.2504 -0.5119
  164SAPE  H11A18402   5.058   3.547   6.161 -0.7374  1.0045 -1.7564
  164SAPE  H11B18403   4.928   3.464   6.276  0.6806 -1.5894 -0.3488
  164SAPE     P18404   4.824   3.627   6.038 -0.0686 -0.1796 -0.0268
  164SAPE   O1318405   4.944   3.719   6.023  0.8528 -0.0166  0.4569
  164SAPE   O1418406   4.725   3.620   5.927 -0.0386  0.1525 -0.2839
  164SAPE   O1218407   4.879   3.479   6.082 -0.0594 -0.1105  0.0264
  164SAPE   O1118408   4.742   3.674   6.168 -0.3807  0.3958 -0.0901
  164SAPE    C118409   4.639   3.583   6.213 -0.5942  0.1681 -0.8914
  164SAPE    HA18410   4.550   3.576   6.146 -0.5003  1.4591 -1.1844
  164SAPE    HB18411   4.680   3.483   6.236 -0.0722  0.2856 -1.2894
  164SAPE    C218412   4.598   3.624   6.356  0.0194  0.4699 -0.0419
  164SAPE    HS18413   4.574   3.732   6.359  0.7740  0.6263  0.4486
  164SAPE   O2118414   4.718   3.584   6.425  0.2565  0.1836  0.3268
  164SAPE   C2118415   4.788   3.678   6.475 -0.0585  0.2530  0.2104
  164SAPE   O2218416   4.771   3.799   6.465 -0.8511  0.4970 -0.4159
  164SAPE   C2218417   4.901   3.618   6.554  0.2961  0.0985 -0.3167
  164SAPE   H2R18418   4.854   3.540   6.618  1.2463  2.0149  2.9094
  164SAPE   H2S18419   4.965   3.566   6.479 -0.1037 -0.3664 -0.3391
  164SAPE    C318420   4.489   3.526   6.397  0.3530  0.8715  0.3899
  164SAPE    HX18421   4.516   3.427   6.356  0.6788 -0.2073  3.0485
  164SAPE    HY18422   4.399   3.559   6.341  0.9176 -1.4129 -2.0586
  164SAPE   O3118423   4.462   3.497   6.539 -0.0120 -0.5752 -0.4396
  164SAPE   C3118424   4.414   3.600   6.604 -0.6083  0.0584  0.6341
  164SAPE   O3218425   4.424   3.715   6.567 -0.0770  0.3067  0.1259
  164SAPE   C3218426   4.341   3.552   6.733  0.6360  0.1245 -0.9956
  164SAPE   H2X18427   4.363   3.444   6.748  2.3552  0.2979 -1.9716
  164SAPE   H2Y18428   4.234   3.579   6.723  0.5997 -0.0202 -0.9994
  164SAPE   C2318429   4.968   3.714   6.650 -0.7690 -0.9219 -0.6535
  164SAPE   H3R18430   4.887   3.761   6.711 -1.5041  2.4761 -3.8562
  164SAPE   H3S18431   5.017   3.800   6.600  2.0195 -1.7263  0.4849
  164SAPE   C2418432   5.088   3.651   6.721 -0.2405  0.6148  0.3424
  164SAPE   H4R18433   5.118   3.725   6.799  0.5523  0.5176  0.1378
  164SAPE   H4S18434   5.176   3.652   6.653 -0.3500  2.1509  0.1889
  164SAPE   C2518435   5.053   3.520   6.794 -0.4955 -0.1122 -0.4623
  164SAPE   H5R18436   5.054   3.425   6.738 -0.2895 -0.2781 -0.1772
  164SAPE   C2618437   5.016   3.506   6.925 -0.2282  0.4239 -0.1192
  164SAPE   H6R18438   5.012   3.399   6.950 -0.8704  0.6083  0.6095
  164SAPE   C2718439   4.990   3.608   7.036 -0.4428 -0.1804  0.4526
  164SAPE   H7R18440   4.941   3.542   7.111  0.1391 -0.1057  0.9035
  164SAPE   H7S18441   4.914   3.681   7.000 -2.4320 -3.0956 -1.7853
  164SAPE   C2818442   5.120   3.674   7.075  0.3793 -0.7151 -0.9872
  164SAPE   H8R18443   5.202   3.685   7.003  1.6380  0.0435  0.5147
  164SAPE   C2918444   5.161   3.732   7.195 -0.0774 -0.4394 -0.3767
  164SAPE   H9R18445   5.259   3.781   7.201  0.0911 -0.8178  0.0573
  164SAPE  C21018446   5.090   3.723   7.319  0.4724  0.0826 -0.3545
  164SAPE  H10R18447   5.156   3.672   7.392  1.4008  1.0408 -0.4935
  164SAPE  H10S18448   4.992   3.671   7.307 -0.5382  1.7956  0.1417
  164SAPE  C21118449   5.050   3.854   7.388 -0.6107 -0.2711 -0.0510
  164SAPE  H11R18450   4.982   3.929   7.343  1.2713  1.1365 -0.6842
  164SAPE  C21218451   5.089   3.895   7.514 -0.4730 -0.5497 -0.3020
  164SAPE  H12R18452   5.060   3.987   7.565  1.1878  1.6782 -3.0835
  164SAPE  C21318453   5.191   3.826   7.597  0.1740  0.8998  0.5189
  164SAPE  H13R18454   5.289   3.863   7.560 -1.7816  5.2986 -0.8832
  164SAPE  H13S18455   5.195   3.716   7.580 -0.4710  1.1219 -1.2838
  164SAPE  C21418456   5.169   3.844   7.751  0.3320 -0.3446 -0.1878
  164SAPE  H14R18457   5.122   3.756   7.797 -1.4780  1.1180  0.9248
  164SAPE  C21518458   5.211   3.932   7.838  0.7110  0.1983  0.6338
  164SAPE  H15R18459   5.157   3.935   7.934  0.2068 -2.3145  0.5002
  164SAPE  C21618460   5.294   4.048   7.797 -0.5595  0.0734  0.0993
  164SAPE  H16R18461   5.363   4.039   7.711 -1.0120  0.0956 -0.2692
  164SAPE  H16S18462   5.358   4.076   7.883 -0.8763  0.0871  0.3332
  164SAPE  C21718463   5.217   4.174   7.760  0.0731 -0.3796  0.7572
  164SAPE  H17R18464   5.135   4.208   7.827  0.1855 -0.6176  1.0116
  164SAPE  H17S18465   5.165   4.151   7.664  0.4437 -0.4348  0.5685
  164SAPE  C21818466   5.300   4.299   7.736  0.7172 -0.2732 -0.1154
  164SAPE  H18R18467   5.233   4.377   7.694  0.5054 -0.2914  0.1768
  164SAPE  H18S18468   5.380   4.275   7.663  2.2323 -1.0082  1.7061
  164SAPE  C21918469   5.367   4.357   7.863  0.1102  0.2914  0.0500
  164SAPE  H19R18470   5.438   4.277   7.893  0.9093  1.0068  0.0846
  164SAPE  H19S18471   5.297   4.362   7.949  1.1265 -2.1857  1.1075
  164SAPE  C22018472   5.451   4.491   7.857 -0.0788  0.1266 -0.0067
  164SAPE  H20R18473   5.525   4.480   7.775  0.4412 -1.0987  0.6218
  164SAPE  H20S18474   5.501   4.511   7.954  0.3695  2.9283 -0.7079
  164SAPE  H20T18475   5.383   4.578   7.837  1.0674  0.8908 -0.7194
  164SAPE   C3318476   4.398   3.607   6.865  0.5253 -0.4064  0.4890
  164SAPE   H3X18477   4.326   3.655   6.934  1.3132  0.3098  0.8425
  164SAPE   H3Y18478   4.469   3.689   6.841 -0.5951 -0.1731 -2.4492
  164SAPE   C3418479   4.480   3.513   6.957 -0.2786  0.8899 -0.7885
  164SAPE   H4X18480   4.557   3.475   6.887  1.6095 -1.3806  2.2800
  164SAPE   H4Y18481   4.421   3.427   6.996 -0.1752  1.1167 -0.1276
  164SAPE   C3518482   4.538   3.587   7.073  0.2068 -0.1207  0.5639
  164SAPE   H5X18483   4.467   3.616   7.154  0.5191 -0.6299  1.0272
  164SAPE   H5Y18484   4.580   3.682   7.033 -1.6665  0.2011 -0.7815
  164SAPE   C3618485   4.646   3.510   7.147 -1.4216  0.3434 -0.5987
  164SAPE   H6X18486   4.736   3.507   7.081  0.1076  0.6313  1.3517
  164SAPE   H6Y18487   4.604   3.411   7.172 -0.1131 -0.5229 -1.6536
  164SAPE   C3718488   4.693   3.561   7.284 -0.0755 -0.3319  0.3468
  164SAPE   H7X18489   4.602   3.590   7.340  0.5073  1.0943  0.5904
  164SAPE   H7Y18490   4.746   3.658   7.269 -0.6266  0.4246  2.8377
  164SAPE   C3818491   4.777   3.455   7.355  0.0215 -0.0430  0.2473
  164SAPE   H8X18492   4.866   3.438   7.290 -0.6004 -0.7089 -0.4358
  164SAPE   H8Y18493   4.734   3.353   7.358  1.1258 -0.6666 -2.3234
  164SAPE   C3918494   4.834   3.502   7.493  0.2642 -0.1298 -0.1448
  164SAPE   H9X18495   4.849   3.612   7.484  1.3065 -0.1670  0.8489
  164SAPE   H9Y18496   4.935   3.463   7.520  0.3127  1.6079  2.5501
  164SAPE  C31018497   4.742   3.479   7.615  0.8904 -0.2850 -0.4971
  164SAPE  H10X18498   4.704   3.375   7.621  1.2855 -0.5155 -1.7284
  164SAPE  H10Y18499   4.653   3.545   7.601  0.7087 -0.4024  0.0539
  164SAPE  C31118500   4.821   3.506   7.742 -0.2433 -0.1297 -0.5130
  164SAPE  H11X18501   4.866   3.608   7.741 -0.8338  0.1518  0.6185
  164SAPE  H11Y18502   4.906   3.438   7.763  0.7345  1.1573 -0.1677
  164SAPE  C31218503   4.735   3.507   7.869  0.5504 -0.2072 -0.6152
  164SAPE  H12X18504   4.805   3.525   7.954  1.5949  0.3817 -1.5714
  164SAPE  H12Y18505   4.694   3.408   7.896  2.1913 -0.1827  2.4663
  164SAPE  C31318506   4.618   3.608   7.861  0.4144 -0.2243 -0.5444
  164SAPE  H13X18507   4.548   3.583   7.779 -1.9604 -0.9988  1.5977
  164SAPE  H13Y18508   4.668   3.707   7.850  2.8109 -1.1664  0.9450
  164SAPE  C31418509   4.540   3.623   7.991  0.7480 -0.5438  0.3860
  164SAPE  H14X18510   4.607   3.665   8.069  0.6400 -0.2062  0.2974
  164SAPE  H14Y18511   4.519   3.520   8.026  1.7582 -1.3020 -1.1248
  164SAPE  C31518512   4.417   3.711   7.988 -0.0305 -0.4311 -0.1153
  164SAPE  H15X18513   4.340   3.672   7.918  0.7021  0.0882 -1.2142
  164SAPE  H15Y18514   4.446   3.816   7.969 -0.9773  0.2539  1.8681
  164SAPE  C31618515   4.346   3.725   8.125  0.9404  0.3008  0.0874
  164SAPE  H16X18516   4.270   3.806   8.113  1.2477  0.4273 -1.1473
  164SAPE  H16Y18517   4.411   3.775   8.199  2.8290 -1.5332 -0.2271
  164SAPE  C31718518   4.290   3.600   8.187  0.0155 -1.3064 -0.4932
  164SAPE  H17X18519   4.253   3.530   8.109 -2.6310 -0.3388 -0.2212
  164SAPE  H17Y18520   4.204   3.631   8.250  0.2373 -1.9111  0.1210
  164SAPE  C31818521   4.382   3.531   8.287  0.1745  0.1001 -0.3826
  164SAPE  H18X18522   4.471   3.491   8.235 -0.1562  1.2003 -1.8473
  164SAPE  H18Y18523   4.341   3.441   8.338  0.2767 -0.5827 -1.4576
  164SAPE  H18Z18524   4.420   3.601   8.364  1.3998 -1.2799  0.3171
  165SAPE     N18525   6.380   0.226   6.097  0.8339  0.3488 -0.1824
  165SAPE   HN118526   6.418   0.240   6.192 -2.6684  0.5460  1.3491
  165SAPE   HN218527   6.356   0.124   6.092  2.2240 -0.0937  1.3315
  165SAPE   HN318528   6.444   0.257   6.021  0.8558 -0.9015 -0.7156
  165SAPE   C1218529   6.262   0.327   6.087 -0.2823  0.6946 -0.4643
  165SAPE  H12A18530   6.185   0.289   6.157  1.8900 -0.7102  1.3085
  165SAPE  H12B18531   6.224   0.320   5.983  0.7481 -1.3443 -0.7518
  165SAPE   C1118532   6.301   0.464   6.117 -0.0214 -0.8387  0.6892
  165SAPE  H11A18533   6.332   0.466   6.223  1.1453  2.0237  0.3786
  165SAPE  H11B18534   6.212   0.528   6.096  0.7087 -0.6246 -2.1486
  165SAPE     P18535   6.538   0.578   6.077 -0.1526  0.0378 -0.3232
  165SAPE   O1318536   6.597   0.485   6.178 -0.1372 -0.2420 -0.0217
  165SAPE   O1418537   6.616   0.615   5.955  0.0032  0.0504 -0.4813
  165SAPE   O1218538   6.407   0.502   6.033 -0.2659 -0.6360  0.5522
  165SAPE   O1118539   6.475   0.696   6.150  0.5051  0.2245 -0.4193
  165SAPE    C118540   6.409   0.812   6.107  0.0539 -0.7927 -0.8130
  165SAPE    HA18541   6.484   0.890   6.080 -0.4101  0.4293  1.1849
  165SAPE    HB18542   6.335   0.792   6.026 -2.1577 -1.0255  1.1732
  165SAPE    C218543   6.310   0.874   6.220  0.0402  1.4530  0.2251
  165SAPE    HS18544   6.248   0.953   6.173 -0.2118  0.7496 -0.6521
  165SAPE   O2118545   6.383   0.915   6.335  0.4703 -0.0184  0.0059
  165SAPE   C2118546   6.386   1.050   6.366  0.6125  0.4751  0.3215
  165SAPE   O2218547   6.325   1.138   6.307 -0.7033  0.7033 -0.1051
  165SAPE   C2218548   6.477   1.075   6.485  0.1482 -0.9968 -0.6243
  165SAPE   H2R18549   6.578   1.051   6.445 -0.5551 -0.9970 -2.4749
  165SAPE   H2S18550   6.472   1.181   6.516  0.5431 -1.0730 -0.2827
  165SAPE    C318551   6.199   0.766   6.265  0.2647 -0.7088 -0.0701
  165SAPE    HX18552   6.249   0.673   6.298  0.7298 -0.4462 -0.0135
  165SAPE    HY18553   6.154   0.739   6.167 -1.0593  0.4249  0.1912
  165SAPE   O3118554   6.106   0.816   6.369  0.3003 -0.3747  0.1607
  165SAPE   C3118555   6.007   0.734   6.407 -0.4763 -0.7162  0.8070
  165SAPE   O3218556   5.994   0.618   6.365 -0.0592  0.1727  0.1068
  165SAPE   C3218557   5.913   0.807   6.496 -0.2789  0.2760  0.2198
  165SAPE   H2X18558   5.848   0.868   6.430 -1.3026 -1.6154 -0.6001
  165SAPE   H2Y18559   5.976   0.878   6.554  0.2047 -0.0742  0.1230
  165SAPE   C2318560   6.446   0.982   6.601 -0.4405 -0.0963 -0.0286
  165SAPE   H3R18561   6.469   0.879   6.567  0.0750 -1.1728  3.2421
  165SAPE   H3S18562   6.338   0.995   6.626 -0.2190 -1.1834  1.6595
  165SAPE   C2418563   6.531   1.016   6.732 -0.0278  0.4382  0.4190
  165SAPE   H4R18564   6.479   0.985   6.825 -1.3529  0.8571 -0.1553
  165SAPE   H4S18565   6.540   1.126   6.744  0.2037  0.5597 -0.7688
  165SAPE   C2518566   6.670   0.956   6.717  0.6757  1.1920 -0.0425
  165SAPE   H5R18567   6.670   0.885   6.633 -3.0200 -0.5124  1.1728
  165SAPE   C2618568   6.778   0.967   6.792 -0.1100  0.1244 -0.0728
  165SAPE   H6R18569   6.861   0.904   6.758  0.0445  1.4060 -2.3208
  165SAPE   C2718570   6.808   1.076   6.895 -0.0444  0.2393 -0.5602
  165SAPE   H7R18571   6.716   1.133   6.922  0.1601 -0.9736  3.3512
  165SAPE   H7S18572   6.882   1.150   6.859  1.4196 -0.5558  0.7144
  165SAPE   C2818573   6.862   1.020   7.020 -0.1799  0.3234  0.2658
  165SAPE   H8R18574   6.970   0.998   7.014 -0.5334 -1.7746  0.8923
  165SAPE   C2918575   6.792   0.993   7.128 -0.1871  0.5237 -0.0961
  165SAPE   H9R18576   6.836   0.945   7.217  0.2173  0.5488 -0.2827
  165SAPE  C21018577   6.640   0.992   7.139  0.1116 -1.2214  0.4061
  165SAPE  H10R18578   6.581   1.014   7.048  1.8823 -1.0768 -0.7735
  165SAPE  H10S18579   6.606   1.066   7.215  0.6881  0.5489 -1.0060
  165SAPE  C21118580   6.589   0.857   7.177  0.0143 -0.4569  0.5831
  165SAPE  H11R18581   6.555   0.791   7.096  0.3188  2.4924 -2.1616
  165SAPE  C21218582   6.577   0.821   7.313 -0.4485  0.6000  0.0233
  165SAPE  H12R18583   6.531   0.724   7.338 -1.7446  0.9619 -0.8331
  165SAPE  C21318584   6.624   0.896   7.436 -0.4985 -0.1199  0.0553
  165SAPE  H13R18585   6.639   1.001   7.405 -0.4421  0.3344  1.5594
  165SAPE  H13S18586   6.717   0.849   7.474 -0.7385  0.3942  1.3104
  165SAPE  C21418587   6.523   0.898   7.548 -0.0900  0.1705  1.0272
  165SAPE  H14R18588   6.420   0.867   7.525  0.2866  0.2723 -0.9710
  165SAPE  C21518589   6.535   0.952   7.667 -0.0927 -0.2236 -1.0267
  165SAPE  H15R18590   6.450   0.958   7.736  1.2284  2.6651  0.5036
  165SAPE  C21618591   6.660   1.027   7.716 -0.1880  0.3430 -0.7329
  165SAPE  H16R18592   6.624   1.110   7.780 -0.4010 -0.8849  0.8082
  165SAPE  H16S18593   6.716   1.071   7.631  0.1699  0.7542 -0.2927
  165SAPE  C21718594   6.755   0.949   7.809 -0.0062  0.2842 -0.0980
  165SAPE  H17R18595   6.849   1.008   7.812  1.1407 -1.4811  0.7589
  165SAPE  H17S18596   6.781   0.853   7.759 -0.8280 -0.1245  0.2301
  165SAPE  C21818597   6.699   0.925   7.949  0.4977  0.4439  0.2974
  165SAPE  H18R18598   6.628   0.840   7.952  2.2257 -1.0584  3.2832
  165SAPE  H18S18599   6.646   1.015   7.987 -0.7429 -0.4803  0.8030
  165SAPE  C21918600   6.813   0.894   8.054  0.4746 -0.0488  0.0939
  165SAPE  H19R18601   6.881   0.982   8.059  1.4393 -0.8154  0.8575
  165SAPE  H19S18602   6.871   0.807   8.015 -0.0710 -0.4268  0.1115
  165SAPE  C22018603   6.766   0.851   8.194  0.0458  0.1175  0.4093
  165SAPE  H20R18604   6.847   0.805   8.254 -1.0997 -0.2224  1.7601
  165SAPE  H20S18605   6.680   0.782   8.188  0.5964 -0.5285 -0.1314
  165SAPE  H20T18606   6.723   0.943   8.239 -0.6988 -0.0281  0.0133
  165SAPE   C3318607   5.836   0.722   6.600 -0.1377  0.0219 -0.0338
  165SAPE   H3X18608   5.905   0.677   6.674  0.3959  1.8671  0.6373
  165SAPE   H3Y18609   5.796   0.631   6.550 -0.7230  0.6106 -0.6543
  165SAPE   C3418610   5.723   0.792   6.676  0.1733 -0.0702  0.0743
  165SAPE   H4X18611   5.665   0.726   6.744 -0.0331 -0.5914 -0.5962
  165SAPE   H4Y18612   5.658   0.851   6.608  0.0725  1.5430  1.5091
  165SAPE   C3518613   5.794   0.900   6.767  0.5596 -0.5026  0.3497
  165SAPE   H5X18614   5.828   0.985   6.703  0.4136 -0.2148  0.6501
  165SAPE   H5Y18615   5.893   0.864   6.801  0.7663  1.7582  2.3994
  165SAPE   C3618616   5.714   0.959   6.876  0.1303 -0.0477  0.1040
  165SAPE   H6X18617   5.622   1.001   6.830  0.8531  1.3787 -0.1022
  165SAPE   H6Y18618   5.777   1.035   6.928 -0.6207 -1.0682  2.6565
  165SAPE   C3718619   5.674   0.857   6.989 -0.3260  0.0545 -0.7638
  165SAPE   H7X18620   5.760   0.794   7.018 -1.4349 -0.8369  0.7935
  165SAPE   H7Y18621   5.598   0.797   6.935 -0.6115  0.0895 -0.4084
  165SAPE   C3818622   5.621   0.925   7.112  0.1276 -0.1208 -0.7609
  165SAPE   H8X18623   5.510   0.932   7.107 -0.1579 -2.4024  0.8996
  165SAPE   H8Y18624   5.656   1.030   7.113 -1.2079  0.3586  1.4008
  165SAPE   C3918625   5.635   0.843   7.241 -0.1593  0.1596 -0.0959
  165SAPE   H9X18626   5.741   0.844   7.275 -0.3447 -0.5646  0.5275
  165SAPE   H9Y18627   5.596   0.740   7.228 -4.6408  1.6584 -0.0760
  165SAPE  C31018628   5.557   0.897   7.367 -0.1323 -0.5494 -0.2836
  165SAPE  H10X18629   5.450   0.881   7.344 -0.3105  2.3910 -1.9615
  165SAPE  H10Y18630   5.582   1.003   7.391  0.1742 -0.7714  0.4003
  165SAPE  C31118631   5.605   0.809   7.484  0.2919  0.8192 -0.4222
  165SAPE  H11X18632   5.691   0.862   7.531 -0.5667  2.1593 -0.3294
  165SAPE  H11Y18633   5.631   0.708   7.443  1.4003  1.3345 -1.0372
  165SAPE  C31218634   5.498   0.797   7.595  0.0941 -0.5701  0.0224
  165SAPE  H12X18635   5.417   0.723   7.575 -0.4636  0.4306 -1.6122
  165SAPE  H12Y18636   5.455   0.899   7.591  0.5128 -0.4266 -2.6698
  165SAPE  C31318637   5.557   0.778   7.734 -0.3612  0.0229 -0.5666
  165SAPE  H13X18638   5.625   0.864   7.753 -2.2849  1.5778 -0.3561
  165SAPE  H13Y18639   5.611   0.682   7.741 -2.3262 -1.2886 -2.2559
  165SAPE  C31418640   5.451   0.775   7.842 -0.2730  0.4715 -0.5195
  165SAPE  H14X18641   5.380   0.692   7.819  0.0401  0.3034 -0.8911
  165SAPE  H14Y18642   5.392   0.869   7.841 -0.2230  0.5023 -0.5724
  165SAPE  C31518643   5.518   0.772   7.979  0.3219 -0.7589  0.1219
  165SAPE  H15X18644   5.445   0.820   8.048 -0.8671 -0.9926 -0.9273
  165SAPE  H15Y18645   5.606   0.836   7.962 -0.5337  0.4158  0.0090
  165SAPE  C31618646   5.564   0.636   8.036 -0.0752  0.3302 -0.3349
  165SAPE  H16X18647   5.632   0.650   8.123 -0.0500  0.1550 -0.3255
  165SAPE  H16Y18648   5.613   0.590   7.948 -0.0223  1.1128 -0.7189
  165SAPE  C31718649   5.449   0.555   8.103  0.6980  0.2221  0.3284
  165SAPE  H17X18650   5.387   0.611   8.177 -0.5020 -0.8540  0.1830
  165SAPE  H17Y18651   5.503   0.475   8.158  0.2148 -0.2285  0.1626
  165SAPE  C31818652   5.363   0.474   8.002  0.2211  0.5831  0.2199
  165SAPE  H18X18653   5.290   0.543   7.956 -0.2260 -2.1184 -3.5477
  165SAPE  H18Y18654   5.302   0.396   8.053 -2.2168  2.0732 -0.2882
  165SAPE  H18Z18655   5.413   0.419   7.920 -1.8134 -1.6788  0.3862
  166SAPE     N18656   5.494   4.654   5.873  0.8930  0.4050  0.5564
  166SAPE   HN118657   5.401   4.640   5.829 -0.5498  1.5251  3.0202
  166SAPE   HN218658   5.495   4.754   5.901  1.2518  0.7474 -0.6226
  166SAPE   HN318659   5.571   4.639   5.804  2.1027  0.0015  1.9467
  166SAPE   C1218660   5.522   4.566   5.991 -0.0206 -0.5506  0.1890
  166SAPE  H12A18661   5.627   4.591   6.021 -0.0381  0.2415 -0.3771
  166SAPE  H12B18662   5.527   4.460   5.958  0.9903 -0.4316 -0.0802
  166SAPE   C1118663   5.427   4.590   6.111  0.0622 -0.1012  0.4371
  166SAPE  H11A18664   5.429   4.696   6.144  0.4051  0.3578 -0.9971
  166SAPE  H11B18665   5.477   4.545   6.200  0.9213 -0.5772 -0.2666
  166SAPE     P18666   5.250   4.398   6.099  0.2132 -0.4296 -0.6149
  166SAPE   O1318667   5.102   4.400   6.096 -0.4688 -0.0848  0.7934
  166SAPE   O1418668   5.321   4.304   6.005  0.0468 -0.5647  0.4613
  166SAPE   O1218669   5.296   4.545   6.081 -0.4207 -0.0748  0.7987
  166SAPE   O1118670   5.296   4.365   6.247  0.4264 -0.4117 -0.7741
  166SAPE    C118671   5.236   4.439   6.354  0.3453  0.7044  0.0997
  166SAPE    HA18672   5.258   4.548   6.356  0.6230  0.6406  1.9990
  166SAPE    HB18673   5.125   4.439   6.350  0.2827 -2.6381 -1.0336
  166SAPE    C218674   5.280   4.382   6.492  1.0320 -0.3370  0.1584
  166SAPE    HS18675   5.214   4.433   6.566 -0.8923 -0.0292 -1.6775
  166SAPE   O2118676   5.420   4.414   6.507  0.2250  0.1057 -0.2179
  166SAPE   C2118677   5.436   4.542   6.541  0.2899 -0.5579 -0.4054
  166SAPE   O2218678   5.346   4.625   6.545 -0.1282 -0.3907  0.1234
  166SAPE   C2218679   5.585   4.561   6.552  0.1333  0.0769  0.6013
  166SAPE   H2R18680   5.622   4.534   6.450 -0.5917  0.9227  0.1047
  166SAPE   H2S18681   5.601   4.671   6.556 -0.7460  0.3032 -1.1841
  166SAPE    C318682   5.254   4.234   6.486  0.0951  1.8793 -0.3570
  166SAPE    HX18683   5.331   4.184   6.424 -1.4058 -4.7047  2.2638
  166SAPE    HY18684   5.151   4.206   6.455  0.7787 -1.9263  0.3264
  166SAPE   O3118685   5.267   4.180   6.622  0.5215 -0.5742  0.1500
  166SAPE   C3118686   5.275   4.046   6.621 -0.6937  0.1671  0.0936
  166SAPE   O3218687   5.258   3.979   6.521  0.6170  0.1326 -0.5036
  166SAPE   C3218688   5.291   3.996   6.772 -0.0870 -0.5439 -0.1835
  166SAPE   H2X18689   5.267   3.888   6.777 -1.5223 -0.2049  3.0861
  166SAPE   H2Y18690   5.219   4.042   6.844  1.7455  0.5601  1.0300
  166SAPE   C2318691   5.657   4.478   6.657 -0.2230 -0.1382  0.6459
  166SAPE   H3R18692   5.760   4.437   6.649  1.1679  2.4980  3.0158
  166SAPE   H3S18693   5.591   4.393   6.684  2.6970 -2.4709  1.0246
  166SAPE   C2418694   5.695   4.571   6.785 -0.3590  0.1185  0.0078
  166SAPE   H4R18695   5.723   4.503   6.868  0.6824 -1.0544 -1.2687
  166SAPE   H4S18696   5.599   4.620   6.813  0.9797  1.2727  2.9802
  166SAPE   C2518697   5.797   4.673   6.748  0.0208 -0.0935 -0.0274
  166SAPE   H5R18698   5.774   4.715   6.649  2.2139  1.4800  0.0602
  166SAPE   C2618699   5.915   4.704   6.803 -0.7122 -0.1389  0.2733
  166SAPE   H6R18700   5.966   4.796   6.773 -0.0194 -0.4697  0.4171
  166SAPE   C2718701   5.966   4.651   6.931 -0.7753  0.2276 -0.0469
  166SAPE   H7R18702   6.021   4.555   6.918 -0.0226  0.3191  2.1039
  166SAPE   H7S18703   5.883   4.618   6.996 -0.2464  0.5983  0.8345
  166SAPE   C2818704   6.046   4.748   7.012 -0.1124 -0.2376  0.3210
  166SAPE   H8R18705   6.155   4.738   7.016  0.3135  2.9067 -0.3530
  166SAPE   C2918706   5.994   4.847   7.080  0.5701  0.3010 -1.0116
  166SAPE   H9R18707   6.063   4.902   7.146 -0.4692 -0.2699  0.6216
  166SAPE  C21018708   5.849   4.890   7.104 -0.0018  0.4653  0.5368
  166SAPE  H10R18709   5.778   4.817   7.060  0.0494 -0.4934  1.9490
  166SAPE  H10S18710   5.834   4.987   7.052  1.0522  0.2575 -0.1872
  166SAPE  C21118711   5.833   4.907   7.257  0.7583  0.1725  0.7672
  166SAPE  H11R18712   5.872   5.003   7.294 -0.8043  0.7218  1.0654
  166SAPE  C21218713   5.769   4.828   7.344  0.2710 -0.3042  0.0738
  166SAPE  H12R18714   5.769   4.855   7.451  2.4473  0.2493 -0.0359
  166SAPE  C21318715   5.694   4.697   7.325 -0.6742 -0.5260  0.6780
  166SAPE  H13R18716   5.754   4.629   7.261  1.3460  1.4894  0.3020
  166SAPE  H13S18717   5.602   4.709   7.263 -1.9934 -1.3386  2.4030
  166SAPE  C21418718   5.633   4.626   7.438 -0.7759  0.0036 -0.6710
  166SAPE  H14R18719   5.526   4.650   7.450 -0.8541 -1.4367  3.1634
  166SAPE  C21518720   5.682   4.533   7.518  0.3244  0.3900  0.1620
  166SAPE  H15R18721   5.608   4.489   7.586 -0.0052 -0.1730 -0.5465
  166SAPE  C21618722   5.819   4.471   7.531 -0.0013 -0.6274  0.5740
  166SAPE  H16R18723   5.891   4.510   7.456  0.8343  0.7616  2.0338
  166SAPE  H16S18724   5.823   4.360   7.526 -0.4523 -0.6725  1.1199
  166SAPE  C21718725   5.880   4.480   7.675  0.1651 -0.2144 -0.8984
  166SAPE  H17R18726   5.799   4.458   7.748 -0.0879  3.5695  0.1317
  166SAPE  H17S18727   5.908   4.584   7.699  0.2878 -0.9063  2.4713
  166SAPE  C21818728   6.008   4.398   7.705  0.1349 -0.0203 -0.3700
  166SAPE  H18R18729   6.073   4.397   7.615 -1.1389 -1.7131 -1.3276
  166SAPE  H18S18730   5.979   4.293   7.729  0.5308  0.4331  2.4377
  166SAPE  C21918731   6.076   4.452   7.826 -0.1144  1.3106 -0.0781
  166SAPE  H19R18732   5.991   4.478   7.893 -0.5890  0.6265 -0.4066
  166SAPE  H19S18733   6.125   4.548   7.798 -0.5462  1.2525 -1.0744
  166SAPE  C22018734   6.181   4.359   7.886 -0.1881 -0.2186 -1.3638
  166SAPE  H20R18735   6.238   4.338   7.793  1.9771  1.7476 -0.5900
  166SAPE  H20S18736   6.142   4.264   7.929  1.3411  0.1364  1.0291
  166SAPE  H20T18737   6.247   4.413   7.958 -0.2055  0.1958 -1.6576
  166SAPE   C3318738   5.437   4.024   6.829  0.4454 -0.3607 -0.4240
  166SAPE   H3X18739   5.447   4.130   6.862  2.1033 -0.1330 -1.5150
  166SAPE   H3Y18740   5.503   4.021   6.740  1.0599  0.6488 -0.0223
  166SAPE   C3418741   5.454   3.930   6.953  0.4748  0.4270  0.0390
  166SAPE   H4X18742   5.378   3.849   6.949  1.9702 -1.1295  1.6139
  166SAPE   H4Y18743   5.424   3.980   7.048  0.2499  2.1630 -0.8974
  166SAPE   C3518744   5.590   3.862   6.968  1.0466  0.2810  0.9330
  166SAPE   H5X18745   5.666   3.940   6.989 -0.7239  2.0056  1.1734
  166SAPE   H5Y18746   5.614   3.808   6.874  0.2889  0.0894  0.8448
  166SAPE   C3618747   5.595   3.752   7.080  0.4044 -0.2220  0.2957
  166SAPE   H6X18748   5.689   3.695   7.064  0.5867  0.2837 -0.4989
  166SAPE   H6Y18749   5.507   3.686   7.083  0.8142 -1.2401 -3.9133
  166SAPE   C3718750   5.600   3.809   7.222 -0.5836  0.0533 -0.3013
  166SAPE   H7X18751   5.586   3.732   7.300  0.1476 -2.3439 -2.4298
  166SAPE   H7Y18752   5.524   3.890   7.232  0.3570  0.9070  0.1497
  166SAPE   C3818753   5.744   3.869   7.252 -0.3283  0.4916  0.5541
  166SAPE   H8X18754   5.763   3.961   7.192  0.5891 -1.4500 -2.3679
  166SAPE   H8Y18755   5.811   3.790   7.212  0.6086  2.4210 -1.9906
  166SAPE   C3918756   5.769   3.884   7.398  0.0967 -1.4188 -0.0079
  166SAPE   H9X18757   5.877   3.909   7.395  0.0614 -0.9539 -4.2162
  166SAPE   H9Y18758   5.749   3.804   7.473 -1.9255  1.3283  2.5876
  166SAPE  C31018759   5.695   4.012   7.461 -0.3195 -0.2412 -0.4742
  166SAPE  H10X18760   5.591   3.972   7.473 -0.8237  1.1674  0.0968
  166SAPE  H10Y18761   5.681   4.095   7.388  1.2999 -1.3915 -2.1683
  166SAPE  C31118762   5.755   4.071   7.583 -0.2542 -0.2088  0.1150
  166SAPE  H11X18763   5.672   4.134   7.621 -1.4231 -2.2937  1.1486
  166SAPE  H11Y18764   5.831   4.140   7.541 -1.4530  1.2550  0.2739
  166SAPE  C31218765   5.816   3.975   7.686  1.2170  0.0033  0.0817
  166SAPE  H12X18766   5.902   3.916   7.650  0.6357 -2.6436  2.6230
  166SAPE  H12Y18767   5.738   3.900   7.711  0.0575  1.6385  1.6520
  166SAPE  C31318768   5.858   4.051   7.812  0.1459 -1.1631 -0.0218
  166SAPE  H13X18769   5.950   4.107   7.784 -0.0011 -0.4749  0.8360
  166SAPE  H13Y18770   5.881   3.980   7.895  1.9582  0.1171  0.6475
  166SAPE  C31418771   5.751   4.141   7.871  0.1463 -0.2808 -0.0217
  166SAPE  H14X18772   5.651   4.097   7.885 -0.2175 -0.0736 -1.7020
  166SAPE  H14Y18773   5.743   4.230   7.805  2.0012  0.2690  0.4095
  166SAPE  C31518774   5.784   4.195   8.014 -0.4975  0.1451 -0.2653
  166SAPE  H15X18775   5.879   4.252   8.008 -0.0111 -0.7405 -1.3681
  166SAPE  H15Y18776   5.807   4.120   8.093  2.8831  0.0004 -1.2666
  166SAPE  C31618777   5.680   4.296   8.063  0.3312  0.1700 -0.0091
  166SAPE  H16X18778   5.592   4.230   8.079  0.0406  1.0744  2.4937
  166SAPE  H16Y18779   5.657   4.371   7.984  2.7284  1.0545  0.0356
  166SAPE  C31718780   5.715   4.377   8.187  0.1866  1.0574 -0.0550
  166SAPE  H17X18781   5.815   4.424   8.178 -1.0370  3.5671 -1.3268
  166SAPE  H17Y18782   5.737   4.305   8.269 -0.2315  1.0706  0.0737
  166SAPE  C31818783   5.617   4.484   8.248  0.2095  0.0754  0.1224
  166SAPE  H18X18784   5.614   4.559   8.166 -1.9823 -1.2426 -1.0853
  166SAPE  H18Y18785   5.656   4.528   8.343 -1.8105  0.0028  1.0327
  166SAPE  H18Z18786   5.515   4.445   8.269  0.2055  0.7673  1.5251
  167SAPE     N18787   6.081   2.832   5.976  0.5318 -0.2986 -0.6959
  167SAPE   HN118788   5.987   2.788   5.977 -1.4007  3.4265 -0.0610
  167SAPE   HN218789   6.090   2.907   5.904 -1.8299  1.1919  0.4427
  167SAPE   HN318790   6.157   2.763   5.958  0.5994 -0.3053 -0.3931
  167SAPE   C1218791   6.096   2.882   6.122 -0.7260  0.2591 -0.3576
  167SAPE  H12A18792   6.204   2.891   6.147 -0.7788  1.8319 -0.5967
  167SAPE  H12B18793   6.040   2.809   6.185  2.7743 -1.0321  1.5339
  167SAPE   C1118794   6.035   3.021   6.131  0.1286 -0.2161 -0.0269
  167SAPE  H11A18795   6.046   3.068   6.231 -3.3832 -1.3348  1.0640
  167SAPE  H11B18796   5.925   3.017   6.112  0.1046 -0.2009  0.1102
  167SAPE     P18797   6.249   3.168   6.049  0.1741  0.1086 -0.0860
  167SAPE   O1318798   6.335   3.086   5.969 -0.0329 -0.2609  0.6995
  167SAPE   O1418799   6.234   3.313   6.016 -0.1061 -0.3807  1.1834
  167SAPE   O1218800   6.097   3.109   6.031 -0.4376 -0.2289  0.0873
  167SAPE   O1118801   6.276   3.149   6.203  0.3363 -0.3381 -0.3814
  167SAPE    C118802   6.303   3.232   6.314  0.3696  1.0881  0.2110
  167SAPE    HA18803   6.311   3.335   6.273 -0.0436  2.2597  2.8766
  167SAPE    HB18804   6.225   3.223   6.393  0.3818 -2.0120 -0.0089
  167SAPE    C218805   6.440   3.183   6.373 -0.0257  0.3065  0.1249
  167SAPE    HS18806   6.510   3.195   6.288  1.2543 -0.8887  0.9659
  167SAPE   O2118807   6.442   3.057   6.444  0.3307  0.3887 -0.3505
  167SAPE   C2118808   6.454   2.961   6.363  0.7795  0.3517 -0.5538
  167SAPE   O2218809   6.478   2.970   6.242  0.4505  0.3331 -0.5120
  167SAPE   C2218810   6.409   2.827   6.438 -0.0013  0.4072 -0.0421
  167SAPE   H2R18811   6.426   2.754   6.356  1.5229 -0.6868  1.1646
  167SAPE   H2S18812   6.496   2.816   6.506 -0.3407  1.7170  0.6359
  167SAPE    C318813   6.492   3.288   6.476  0.0686 -0.5079 -0.0404
  167SAPE    HX18814   6.520   3.373   6.411  0.6492 -1.1525 -0.6551
  167SAPE    HY18815   6.588   3.255   6.523 -1.1299 -2.1596  1.4034
  167SAPE   O3118816   6.396   3.333   6.569  0.5638 -0.2268 -0.0373
  167SAPE   C3118817   6.400   3.271   6.685 -0.1090  0.1387 -1.0079
  167SAPE   O3218818   6.479   3.188   6.731 -0.0481 -0.3608  0.0101
  167SAPE   C3218819   6.267   3.304   6.756  0.6073  0.2616 -0.6042
  167SAPE   H2X18820   6.186   3.253   6.700 -0.9544  4.6917 -2.7881
  167SAPE   H2Y18821   6.246   3.412   6.744  0.2491  0.5669  2.1019
  167SAPE   C2318822   6.271   2.834   6.501  0.0665 -0.3525  0.6934
  167SAPE   H3R18823   6.232   2.731   6.491 -0.9036  0.0550  0.2063
  167SAPE   H3S18824   6.208   2.890   6.429 -1.1913 -3.7514 -1.0306
  167SAPE   C2418825   6.264   2.877   6.641  0.3652  0.3275 -0.9116
  167SAPE   H4R18826   6.159   2.886   6.676  1.6399  3.0152  2.7355
  167SAPE   H4S18827   6.310   2.978   6.640  1.0766  0.0176 -2.4150
  167SAPE   C2518828   6.347   2.790   6.736 -0.3747  0.1284  0.5888
  167SAPE   H5R18829   6.445   2.773   6.687 -1.1217 -4.5720  0.2384
  167SAPE   C2618830   6.310   2.703   6.828 -0.1955 -0.2199  0.6034
  167SAPE   H6R18831   6.387   2.641   6.877 -1.2536 -0.0449  2.5765
  167SAPE   C2718832   6.176   2.685   6.892 -0.1620  0.3047  0.7779
  167SAPE   H7R18833   6.169   2.583   6.936  1.0886  0.7954  2.1831
  167SAPE   H7S18834   6.098   2.695   6.814  2.1376  2.1734 -1.4519
  167SAPE   C2818835   6.141   2.786   6.995  0.8026  0.1190  0.3654
  167SAPE   H8R18836   6.117   2.887   6.958  1.8327  0.2399  0.0007
  167SAPE   C2918837   6.135   2.771   7.127 -0.1853 -0.4187 -0.1772
  167SAPE   H9R18838   6.102   2.856   7.187  0.5505 -0.4715  0.3066
  167SAPE  C21018839   6.156   2.648   7.202  0.2139 -0.1461  1.0332
  167SAPE  H10R18840   6.213   2.656   7.297  2.2964  0.4716 -0.2211
  167SAPE  H10S18841   6.207   2.572   7.140  2.4825  1.4950  0.7782
  167SAPE  C21118842   6.013   2.598   7.227 -0.4518  0.7504 -0.4180
  167SAPE  H11R18843   5.958   2.559   7.141  0.7705 -4.5401  0.8112
  167SAPE  C21218844   5.971   2.565   7.350  0.0408 -0.1849  0.4824
  167SAPE  H12R18845   5.865   2.543   7.368  0.1608  1.0145  3.0163
  167SAPE  C21318846   6.049   2.586   7.482 -0.8364 -0.2854 -0.5135
  167SAPE  H13R18847   6.158   2.572   7.467 -0.3906  2.4045 -0.3560
  167SAPE  H13S18848   6.015   2.505   7.550 -1.8981  0.0610 -0.6066
  167SAPE  C21418849   6.036   2.724   7.540 -0.3998 -0.2132  0.3609
  167SAPE  H14R18850   6.085   2.804   7.482 -0.1385 -0.7994 -0.2381
  167SAPE  C21518851   6.041   2.747   7.666 -0.4166  0.3430  0.2554
  167SAPE  H15R18852   6.026   2.846   7.712 -5.2088 -0.0305  0.0266
  167SAPE  C21618853   6.013   2.649   7.777 -0.1656  0.0013  0.2976
  167SAPE  H16R18854   5.991   2.545   7.747  2.6013 -0.0649 -1.9535
  167SAPE  H16S18855   5.936   2.697   7.840  1.0801  0.6135  1.4044
  167SAPE  C21718856   6.139   2.646   7.868 -0.0626 -0.7283 -0.2236
  167SAPE  H17R18857   6.120   2.584   7.958 -0.5391  0.5835  0.6147
  167SAPE  H17S18858   6.166   2.753   7.883 -1.7418 -0.1962 -0.8000
  167SAPE  C21818859   6.256   2.580   7.795  0.6562  0.0126  0.0524
  167SAPE  H18R18860   6.298   2.649   7.719  0.5263  0.2362  0.1819
  167SAPE  H18S18861   6.207   2.490   7.752  0.7629 -0.8932  1.7143
  167SAPE  C21918862   6.367   2.531   7.880 -0.4840  0.1172  0.4301
  167SAPE  H19R18863   6.427   2.484   7.799 -0.9922 -0.4442  0.3735
  167SAPE  H19S18864   6.334   2.449   7.947  0.6324  0.3391  1.2955
  167SAPE  C22018865   6.460   2.634   7.950 -0.3268  0.9743 -0.1990
  167SAPE  H20R18866   6.486   2.703   7.866 -0.4783  1.2060 -0.0581
  167SAPE  H20S18867   6.552   2.589   7.992  0.4189  0.5731 -2.1387
  167SAPE  H20T18868   6.406   2.687   8.031 -0.3817 -2.9986  2.6195
  167SAPE   C3318869   6.269   3.281   6.907  0.7878  1.3394  0.4226
  167SAPE   H3X18870   6.300   3.372   6.961 -0.0178  1.4616  0.6989
  167SAPE   H3Y18871   6.338   3.200   6.939 -1.1352 -0.7875 -0.5259
  167SAPE   C3418872   6.129   3.229   6.946 -0.6166 -0.7476 -0.5652
  167SAPE   H4X18873   6.090   3.160   6.869 -0.7952 -1.9650  0.5881
  167SAPE   H4Y18874   6.056   3.310   6.968  0.2224  0.3828 -1.7731
  167SAPE   C3518875   6.140   3.146   7.078 -0.5385 -0.2398 -0.5402
  167SAPE   H5X18876   6.218   3.068   7.066  3.7217  3.3941  0.7315
  167SAPE   H5Y18877   6.040   3.102   7.099 -0.7885  1.2302  1.6910
  167SAPE   C3618878   6.178   3.228   7.202 -0.4228 -0.3072  0.4561
  167SAPE   H6X18879   6.128   3.327   7.204  0.1405  0.0026 -0.1658
  167SAPE   H6Y18880   6.283   3.265   7.195 -0.6145 -0.0505 -1.9413
  167SAPE   C3718881   6.141   3.152   7.329 -0.0926  0.3444 -0.0637
  167SAPE   H7X18882   6.172   3.045   7.328 -0.8609  0.1209 -1.0261
  167SAPE   H7Y18883   6.031   3.147   7.339 -0.0466 -3.6686  0.0145
  167SAPE   C3818884   6.221   3.212   7.448 -0.5283  0.7171  0.1400
  167SAPE   H8X18885   6.165   3.300   7.487 -2.0172 -0.7299  1.3564
  167SAPE   H8Y18886   6.323   3.239   7.413 -0.4207  0.0352 -0.0862
  167SAPE   C3918887   6.232   3.116   7.573 -0.4163  0.5499  0.4148
  167SAPE   H9X18888   6.309   3.045   7.536 -0.0418  0.1633  1.8577
  167SAPE   H9Y18889   6.136   3.062   7.581 -0.9785  1.4159 -0.2929
  167SAPE  C31018890   6.287   3.182   7.705  0.2459 -0.6012  0.3274
  167SAPE  H10X18891   6.232   3.276   7.726  0.9745 -0.1113  0.1263
  167SAPE  H10Y18892   6.397   3.200   7.701  0.7037 -3.1800 -0.0619
  167SAPE  C31118893   6.266   3.095   7.825  0.0945  0.2968 -0.0628
  167SAPE  H11X18894   6.324   3.003   7.805 -1.9505 -1.4196  1.3714
  167SAPE  H11Y18895   6.158   3.066   7.817 -0.0001  1.0845 -2.2025
  167SAPE  C31218896   6.307   3.151   7.969 -0.2336  0.2147 -0.4266
  167SAPE  H12X18897   6.249   3.242   7.997  0.9883 -0.0778  3.7000
  167SAPE  H12Y18898   6.408   3.191   7.949 -0.5926  1.0449 -0.6270
  167SAPE  C31318899   6.315   3.047   8.080 -0.0826 -0.6880  0.1680
  167SAPE  H13X18900   6.383   2.965   8.051 -0.3009 -0.8953  0.2382
  167SAPE  H13Y18901   6.213   3.004   8.096  0.5730 -1.8554  1.4655
  167SAPE  C31418902   6.370   3.108   8.210  0.2140 -0.5061  0.2994
  167SAPE  H14X18903   6.314   3.199   8.239 -1.6687 -2.1665  2.1747
  167SAPE  H14Y18904   6.477   3.134   8.192  0.4243 -2.1180 -1.0734
  167SAPE  C31518905   6.363   3.021   8.332  0.9970  0.0994 -0.4171
  167SAPE  H15X18906   6.258   3.005   8.366  1.1746 -3.3461 -1.1211
  167SAPE  H15Y18907   6.425   3.069   8.410 -0.4468 -1.0100  1.5028
  167SAPE  C31618908   6.424   2.883   8.311 -0.3807  0.2408  0.2350
  167SAPE  H16X18909   6.531   2.894   8.284 -0.0282 -0.4320  1.3123
  167SAPE  H16Y18910   6.377   2.851   8.215  1.3968 -0.2571 -0.5244
  167SAPE  C31718911   6.405   2.767   8.409  0.5418 -0.2342  0.3324
  167SAPE  H17X18912   6.296   2.749   8.417  0.4531 -0.4888 -1.1610
  167SAPE  H17Y18913   6.441   2.785   8.513  0.9057 -0.5643  0.2653
  167SAPE  C31818914   6.474   2.635   8.370  0.5245  0.2348  0.1604
  167SAPE  H18X18915   6.432   2.601   8.273  1.1195  1.5119 -0.5732
  167SAPE  H18Y18916   6.470   2.556   8.448  2.8033  1.1089  1.2441
  167SAPE  H18Z18917   6.574   2.666   8.332 -0.9462  2.4866 -2.2231
  168SAPE     N18918   0.764   5.166   6.080 -0.5851 -0.6302 -0.8475
  168SAPE   HN118919   0.817   5.162   5.991 -1.4008  0.7712 -1.4269
  168SAPE   HN218920   0.716   5.258   6.079  0.6026  0.0446  0.5388
  168SAPE   HN318921   0.813   5.170   6.172 -1.9023 -1.3421 -0.0792
  168SAPE   C1218922   0.659   5.062   6.080  0.6890  0.1667 -0.0070
  168SAPE  H12A18923   0.610   5.066   5.980  0.5466  1.3752  0.0907
  168SAPE  H12B18924   0.586   5.081   6.161  0.6984  0.7673 -0.1304
  168SAPE   C1118925   0.740   4.928   6.097  0.2301 -0.2812 -1.1265
  168SAPE  H11A18926   0.663   4.849   6.089 -2.0844  1.6194  0.8939
  168SAPE  H11B18927   0.776   4.929   6.202 -2.6904  0.2350 -0.0436
  168SAPE     P18928   0.905   4.794   5.936 -0.2744 -0.4005  0.0488
  168SAPE   O1318929   0.794   4.741   5.862 -0.0855  0.9013  0.7201
  168SAPE   O1418930   1.031   4.825   5.860 -0.9010 -0.0962  0.2387
  168SAPE   O1218931   0.851   4.927   6.005  0.0506 -0.0957 -0.2058
  168SAPE   O1118932   0.946   4.703   6.056 -0.3913 -0.2490  0.2026
  168SAPE    C118933   1.078   4.716   6.112 -0.5483 -0.3017 -0.5912
  168SAPE    HA18934   1.118   4.617   6.142 -0.7343 -0.3912 -0.6383
  168SAPE    HB18935   1.154   4.745   6.037  0.3692 -0.0707  0.4020
  168SAPE    C218936   1.083   4.819   6.222 -0.8378  0.0683  0.6354
  168SAPE    HS18937   1.053   4.918   6.182  1.8920  0.3339 -0.9849
  168SAPE   O2118938   1.215   4.817   6.280 -0.0622 -0.0320  0.4868
  168SAPE   C2118939   1.264   4.933   6.333  0.8773 -0.5954 -0.3056
  168SAPE   O2218940   1.193   5.035   6.340 -0.2429 -0.6508  0.9400
  168SAPE   C2218941   1.408   4.916   6.380  0.5518  0.2898 -0.0905
  168SAPE   H2R18942   1.419   4.822   6.438  0.9292 -0.2940 -1.0834
  168SAPE   H2S18943   1.469   4.915   6.288 -0.4195  2.1896 -0.8091
  168SAPE    C318944   0.982   4.782   6.337  0.1283  0.4226 -0.1830
  168SAPE    HX18945   0.973   4.671   6.339  1.0150  0.2562 -2.6858
  168SAPE    HY18946   0.880   4.812   6.304 -0.7261 -1.9206  0.1488
  168SAPE   O3118947   1.021   4.831   6.469  0.2065 -0.0266 -0.7339
  168SAPE   C3118948   0.958   4.939   6.516 -0.5744 -0.5135 -1.2653
  168SAPE   O3218949   0.858   4.989   6.472 -0.0293  0.3107 -0.1708
  168SAPE   C3218950   1.035   5.005   6.643 -0.4795  0.1351  0.3941
  168SAPE   H2X18951   1.140   5.022   6.610 -0.3141 -0.0397  0.8224
  168SAPE   H2Y18952   1.039   4.927   6.722  0.5932 -0.0192  0.2054
  168SAPE   C2318953   1.449   5.023   6.474 -0.0696  0.1779 -0.2113
  168SAPE   H3R18954   1.383   5.026   6.564  0.6334 -0.6673  0.3514
  168SAPE   H3S18955   1.441   5.123   6.425 -3.6302 -0.5866 -1.4641
  168SAPE   C2418956   1.596   4.997   6.521 -0.2696  0.2340 -0.5967
  168SAPE   H4R18957   1.636   5.086   6.574 -1.1821 -0.4383  1.2922
  168SAPE   H4S18958   1.664   4.991   6.433 -0.1748 -0.9420 -0.4594
  168SAPE   C2518959   1.596   4.882   6.619 -0.0388  0.0233  0.5524
  168SAPE   H5R18960   1.603   4.782   6.574 -1.0763 -0.1054  0.6448
  168SAPE   C2618961   1.584   4.887   6.749  0.0207  0.1502  0.1606
  168SAPE   H6R18962   1.600   4.798   6.812 -0.5457  0.7478  1.1804
  168SAPE   C2718963   1.573   5.007   6.842 -0.0935  1.0972 -0.0571
  168SAPE   H7R18964   1.516   4.959   6.924  0.2190 -1.5970 -1.2946
  168SAPE   H7S18965   1.505   5.083   6.797 -0.2373 -0.8184 -3.3915
  168SAPE   C2818966   1.698   5.063   6.896  0.0559  0.2681 -0.9079
  168SAPE   H8R18967   1.749   5.150   6.851 -1.2852  1.2137 -0.6572
  168SAPE   C2918968   1.748   5.030   7.014  0.0692 -0.1620 -0.6761
  168SAPE   H9R18969   1.844   5.080   7.034  1.0638 -1.4805 -1.9786
  168SAPE  C21018970   1.703   4.927   7.112 -0.6672  0.0512  0.3092
  168SAPE  H10R18971   1.624   4.858   7.075  0.6420 -0.8925 -0.8387
  168SAPE  H10S18972   1.668   4.983   7.201  0.9894  2.9315 -0.7109
  168SAPE  C21118973   1.815   4.838   7.159  0.6692  0.3418 -0.0617
  168SAPE  H11R18974   1.880   4.808   7.075  1.1597  2.3263 -0.4690
  168SAPE  C21218975   1.845   4.787   7.284  0.1691 -0.3448  0.0296
  168SAPE  H12R18976   1.941   4.737   7.304 -1.7104 -3.7257  1.6169
  168SAPE  C21318977   1.775   4.835   7.413  0.2610 -0.6063 -0.1644
  168SAPE  H13R18978   1.695   4.911   7.400 -1.0684 -1.5522  1.8920
  168SAPE  H13S18979   1.845   4.880   7.487 -1.3744 -0.2664  1.2492
  168SAPE  C21418980   1.705   4.712   7.468  0.3843 -0.0253 -0.0602
  168SAPE  H14R18981   1.677   4.635   7.395 -2.1254  0.7232  0.0432
  168SAPE  C21518982   1.680   4.688   7.596 -0.2638 -0.1388  0.5887
  168SAPE  H15R18983   1.617   4.599   7.613 -1.3615  0.6994  0.9564
  168SAPE  C21618984   1.719   4.774   7.713 -0.9051 -0.5265  0.0493
  168SAPE  H16R18985   1.648   4.754   7.796 -1.8904  1.5849 -0.2253
  168SAPE  H16S18986   1.697   4.879   7.683 -0.3384  0.3797  2.5132
  168SAPE  C21718987   1.864   4.777   7.765 -0.2291 -0.3213 -0.3289
  168SAPE  H17R18988   1.946   4.782   7.690  1.9023 -2.8735  1.6333
  168SAPE  H17S18989   1.866   4.679   7.818 -2.9654 -0.7316 -0.8361
  168SAPE  C21818990   1.891   4.892   7.868  0.1471  0.2319 -0.5845
  168SAPE  H18R18991   1.793   4.924   7.909 -0.2086 -1.4444 -0.0207
  168SAPE  H18S18992   1.930   4.982   7.817 -0.3810  0.3438 -0.7991
  168SAPE  C21918993   1.983   4.843   7.981 -0.0841  0.3941  0.1179
  168SAPE  H19R18994   2.029   4.937   8.017 -1.3941  1.5948 -1.2151
  168SAPE  H19S18995   2.062   4.775   7.942  0.2612  1.0986 -0.4201
  168SAPE  C22018996   1.903   4.758   8.079  0.8250  0.2172 -0.1761
  168SAPE  H20R18997   1.871   4.665   8.029  2.4061 -0.4212 -0.0474
  168SAPE  H20S18998   1.816   4.813   8.120  0.5281  1.3200 -2.1523
  168SAPE  H20T18999   1.967   4.737   8.167 -1.1816 -0.8055  1.1108
  168SAPE   C3319000   0.979   5.148   6.684 -0.8122  0.3809 -0.6200
  168SAPE   H3X19001   0.875   5.140   6.723 -0.1706 -1.8264  0.7800
  168SAPE   H3Y19002   0.988   5.217   6.597  0.2272  0.4116 -0.4927
  168SAPE   C3419003   1.071   5.200   6.791 -1.0045 -0.1190 -0.3653
  168SAPE   H4X19004   1.176   5.197   6.758 -1.4515 -1.3576 -1.7642
  168SAPE   H4Y19005   1.073   5.134   6.880  2.2086 -0.5782 -0.6940
  168SAPE   C3519006   1.032   5.335   6.848  0.1042  0.1449 -0.0842
  168SAPE   H5X19007   0.927   5.321   6.881  0.1628 -3.5677 -1.0691
  168SAPE   H5Y19008   1.027   5.402   6.759  0.2179 -0.6422 -0.6966
  168SAPE   C3619009   1.132   5.384   6.957  1.2571  0.4429  0.1485
  168SAPE   H6X19010   1.130   5.495   6.950 -0.9713  0.4268 -0.3931
  168SAPE   H6Y19011   1.235   5.352   6.929  0.6101 -1.3618 -0.3148
  168SAPE   C3719012   1.102   5.332   7.096  0.2700 -0.3058 -0.7605
  168SAPE   H7X19013   1.145   5.229   7.104  0.2642 -0.2786 -0.2968
  168SAPE   H7Y19014   0.994   5.333   7.121  0.7395 -2.3136  1.9529
  168SAPE   C3819015   1.175   5.414   7.203  0.1998  0.4752 -0.1898
  168SAPE   H8X19016   1.136   5.518   7.201 -1.0601  0.0887  1.4493
  168SAPE   H8Y19017   1.285   5.408   7.193  0.1923  0.7414 -0.4553
  168SAPE   C3919018   1.133   5.365   7.345 -0.1744 -0.1561  0.8653
  168SAPE   H9X19019   1.192   5.276   7.374  2.1610  0.4515 -1.6589
  168SAPE   H9Y19020   1.022   5.357   7.346 -0.3218  0.3581 -2.5112
  168SAPE  C31019021   1.157   5.478   7.450  0.4221  0.6387  0.1299
  168SAPE  H10X19022   1.094   5.567   7.429 -0.9165  0.1524  1.8433
  168SAPE  H10Y19023   1.262   5.505   7.425  0.2543 -0.1940 -1.6400
  168SAPE  C31119024   1.145   5.412   7.589  0.0089 -0.1258 -0.2736
  168SAPE  H11X19025   1.185   5.309   7.592  1.8036  0.5660  2.2094
  168SAPE  H11Y19026   1.035   5.406   7.608  0.1269  0.8994  0.9026
  168SAPE  C31219027   1.222   5.482   7.702 -0.6045  0.5229  0.2588
  168SAPE  H12X19028   1.321   5.524   7.675 -0.6158  0.7587  0.5834
  168SAPE  H12Y19029   1.246   5.408   7.781 -0.3582  1.5055  1.1251
  168SAPE  C31319030   1.138   5.592   7.779 -1.1002  0.1806 -0.3050
  168SAPE  H13X19031   1.070   5.539   7.849 -1.2345 -0.8936 -1.2001
  168SAPE  H13Y19032   1.077   5.644   7.701 -2.8394 -1.6266 -0.2355
  168SAPE  C31419033   1.238   5.688   7.859  0.5846  0.4104 -0.2006
  168SAPE  H14X19034   1.183   5.768   7.914  1.8014  0.4342  1.0164
  168SAPE  H14Y19035   1.298   5.736   7.779  2.1006 -0.8604  0.1229
  168SAPE  C31519036   1.341   5.626   7.957 -0.3612 -0.6596 -0.6214
  168SAPE  H15X19037   1.433   5.687   7.964 -1.4896  1.0866 -0.5513
  168SAPE  H15Y19038   1.377   5.527   7.921 -0.8901 -1.0341 -0.1453
  168SAPE  C31619039   1.282   5.614   8.098  0.3200  0.7358 -0.4351
  168SAPE  H16X19040   1.199   5.543   8.078  0.9103  0.4175 -1.8442
  168SAPE  H16Y19041   1.238   5.704   8.148 -4.0648 -1.8842  1.0008
  168SAPE  C31719042   1.377   5.545   8.198  0.1049 -0.8193  0.5892
  168SAPE  H17X19043   1.457   5.613   8.233  1.2682  0.1014 -3.4202
  168SAPE  H17Y19044   1.413   5.454   8.145 -0.2645 -0.3262 -0.5370
  168SAPE  C31819045   1.309   5.494   8.325  0.5857  0.0423  0.0464
  168SAPE  H18X19046   1.269   5.582   8.380  0.9365  0.3335 -0.1642
  168SAPE  H18Y19047   1.384   5.450   8.394  0.0689  2.3916  2.2469
  168SAPE  H18Z19048   1.233   5.418   8.297 -0.6192  0.5569  1.7937
  169SAPE     N19049   0.029   5.915   5.853  1.1163  0.1448 -0.5731
  169SAPE   HN119050  -0.020   5.996   5.810  0.8072  0.0591 -0.3821
  169SAPE   HN219051   0.114   5.888   5.799  1.3104 -0.0129 -0.1910
  169SAPE   HN319052  -0.034   5.834   5.839 -0.1335  1.1009 -0.5829
  169SAPE   C1219053   0.046   5.941   5.997  0.1218  0.4693  0.4759
  169SAPE  H12A19054   0.066   5.843   6.046  0.5414 -0.9867 -2.3857
  169SAPE  H12B19055  -0.048   5.987   6.034 -0.0160 -0.4189  1.2659
  169SAPE   C1119056   0.147   6.056   6.018  0.0377 -0.3727  0.1966
  169SAPE  H11A19057   0.249   6.025   5.986  0.3562  0.3188  0.5144
  169SAPE  H11B19058   0.155   6.079   6.127  0.6834  0.6425 -0.0500
  169SAPE     P19059   0.048   6.297   5.993 -0.1619 -0.2187 -0.3195
  169SAPE   O1319060   0.154   6.402   6.005  0.0699  0.1565  0.1652
  169SAPE   O1419061  -0.069   6.328   5.911  0.3423  0.2424  0.1226
  169SAPE   O1219062   0.119   6.170   5.941  0.3270  0.0001 -0.2643
  169SAPE   O1119063  -0.002   6.257   6.135 -0.0782  0.0260 -0.4872
  169SAPE    C119064  -0.004   6.347   6.246  0.4326  0.3301 -0.0799
  169SAPE    HA19065   0.000   6.456   6.222 -0.3459  1.0314  2.6852
  169SAPE    HB19066  -0.091   6.334   6.313 -1.7426  3.3249 -2.0256
  169SAPE    C219067   0.118   6.315   6.328 -0.4900 -0.0117 -1.0298
  169SAPE    HS19068   0.209   6.309   6.265  0.3985  1.0829  0.0936
  169SAPE   O2119069   0.093   6.181   6.386 -0.0797 -0.0239  0.1213
  169SAPE   C2119070   0.180   6.129   6.473 -0.1488 -0.3989  0.0992
  169SAPE   O2219071   0.300   6.163   6.487  0.1455  0.0123  0.1791
  169SAPE   C2219072   0.119   6.013   6.558  0.1283  0.1709 -0.0667
  169SAPE   H2R19073   0.030   5.975   6.504  0.2942  0.2582 -0.4053
  169SAPE   H2S19074   0.185   5.923   6.556 -0.2607 -0.1091 -0.3939
  169SAPE    C319075   0.156   6.436   6.432 -0.2717 -0.0347 -0.1205
  169SAPE    HX19076   0.210   6.513   6.373  0.3670 -0.0794  0.4006
  169SAPE    HY19077   0.233   6.395   6.501 -1.1842  0.3406  1.1697
  169SAPE   O3119078   0.038   6.483   6.495 -0.0562 -0.0505  0.2138
  169SAPE   C3119079   0.023   6.448   6.628 -0.0215 -0.6170  0.4676
  169SAPE   O3219080   0.108   6.398   6.699  0.2207  0.1077 -0.6540
  169SAPE   C3219081  -0.126   6.452   6.660 -0.7425  0.2764  0.1147
  169SAPE   H2X19082  -0.175   6.372   6.600  1.8319 -1.7326  0.4787
  169SAPE   H2Y19083  -0.161   6.553   6.631  0.9575  0.6874 -0.6671
  169SAPE   C2319084   0.092   6.050   6.702 -0.0821  0.4414  0.4276
  169SAPE   H3R19085   0.055   6.154   6.703 -0.0668  0.5172 -1.7458
  169SAPE   H3S19086   0.192   6.054   6.751  0.8040  1.0183 -1.3521
  169SAPE   C2419087  -0.002   5.956   6.783 -0.5957 -0.3608  0.3019
  169SAPE   H4R19088  -0.100   5.961   6.731 -0.2953 -1.9472 -0.4839
  169SAPE   H4S19089  -0.007   6.003   6.884  1.3617 -2.0514  1.2582
  169SAPE   C2519090   0.052   5.818   6.781  0.1421 -0.0404  0.4039
  169SAPE   H5R19091   0.054   5.769   6.682 -0.5258  1.1851 -0.2415
  169SAPE   C2619092   0.113   5.753   6.875  0.1854 -0.1910 -0.2786
  169SAPE   H6R19093   0.156   5.653   6.858  2.0116  0.3423  0.9056
  169SAPE   C2719094   0.121   5.786   7.021 -0.4695 -0.3001 -0.5952
  169SAPE   H7R19095   0.051   5.725   7.082  1.9847 -1.7786  0.9451
  169SAPE   H7S19096   0.097   5.893   7.041  0.4768 -0.5575  2.4049
  169SAPE   C2819097   0.256   5.752   7.074 -0.4308 -0.8855  0.2577
  169SAPE   H8R19098   0.343   5.780   7.013 -0.7237 -0.4903  0.0232
  169SAPE   C2919099   0.281   5.692   7.194  0.3802  0.3344  0.6558
  169SAPE   H9R19100   0.386   5.669   7.217 -0.0258  0.0837  2.3343
  169SAPE  C21019101   0.190   5.626   7.295 -0.6264  0.5819 -0.5573
  169SAPE  H10R19102   0.093   5.678   7.306 -2.0717 -2.2574  1.5541
  169SAPE  H10S19103   0.247   5.631   7.391 -1.3407  0.9250 -0.1465
  169SAPE  C21119104   0.165   5.483   7.244  0.9062  0.2250 -0.0096
  169SAPE  H11R19105   0.106   5.480   7.151  1.6485  1.6155 -0.5475
  169SAPE  C21219106   0.231   5.377   7.295  0.1842 -0.3868  0.5707
  169SAPE  H12R19107   0.212   5.283   7.241 -2.1849  0.9513 -1.1107
  169SAPE  C21319108   0.333   5.357   7.406 -0.5680 -0.6312  0.0923
  169SAPE  H13R19109   0.424   5.419   7.388  0.3661 -2.1698 -0.7084
  169SAPE  H13S19110   0.374   5.256   7.388  0.1117 -0.4557  0.6051
  169SAPE  C21419111   0.279   5.379   7.542  0.1465 -0.3231  0.5737
  169SAPE  H14R19112   0.263   5.480   7.583 -1.8373 -0.1872 -0.4259
  169SAPE  C21519113   0.219   5.291   7.621 -0.2039  1.2068  0.1848
  169SAPE  H15R19114   0.207   5.329   7.723 -0.6276  0.1204  0.5466
  169SAPE  C21619115   0.204   5.141   7.590  0.5494  0.4767  0.2375
  169SAPE  H16R19116   0.282   5.095   7.526 -0.5809 -0.7332 -0.3206
  169SAPE  H16S19117   0.112   5.129   7.528  0.6285  0.6197  0.0919
  169SAPE  C21719118   0.213   5.061   7.722 -0.1900  0.2505  0.1086
  169SAPE  H17R19119   0.290   5.108   7.787  0.0688 -0.0186 -0.0043
  169SAPE  H17S19120   0.244   4.956   7.701 -0.0538  0.8953 -3.3596
  169SAPE  C21819121   0.088   5.070   7.816  0.1109  0.8122  0.1800
  169SAPE  H18R19122   0.020   5.003   7.760  0.5289 -1.0895  1.8356
  169SAPE  H18S19123   0.047   5.173   7.813  0.0989  0.8104 -2.2821
  169SAPE  C21919124   0.117   5.006   7.955  0.4758  0.0413 -0.2022
  169SAPE  H19R19125   0.190   5.071   8.007  0.3054  1.2531 -1.4360
  169SAPE  H19S19126   0.160   4.904   7.944  0.3644  0.0694 -0.9322
  169SAPE  C22019127  -0.005   4.997   8.043 -0.1578 -0.4355 -0.0161
  169SAPE  H20R19128  -0.043   5.098   8.069 -0.3159 -0.8411  1.4051
  169SAPE  H20S19129   0.009   4.954   8.144  1.1396  1.4877  0.6648
  169SAPE  H20T19130  -0.082   4.937   7.989  1.4717 -0.8348 -2.0320
  169SAPE   C3319131  -0.163   6.433   6.807  0.3905  0.7444 -0.4644
  169SAPE   H3X19132  -0.266   6.474   6.819  0.6493  1.3259 -0.2072
  169SAPE   H3Y19133  -0.095   6.494   6.870 -1.3985  2.4449 -0.0865
  169SAPE   C3419134  -0.152   6.291   6.870 -0.0364  0.5000 -0.0317
  169SAPE   H4X19135  -0.045   6.264   6.855 -0.3205 -0.4809 -0.3936
  169SAPE   H4Y19136  -0.222   6.217   6.825  0.7586 -0.2044 -0.1364
  169SAPE   C3519137  -0.176   6.292   7.021  0.3729  0.4863 -0.0595
  169SAPE   H5X19138  -0.284   6.316   7.033  0.7491  2.0282  0.3876
  169SAPE   H5Y19139  -0.119   6.364   7.083 -0.9929  0.9791  0.6677
  169SAPE   C3619140  -0.139   6.151   7.079  0.1310  0.5066 -0.7189
  169SAPE   H6X19141  -0.032   6.136   7.055  0.3212  0.7059  0.0060
  169SAPE   H6Y19142  -0.186   6.065   7.026  1.1866 -1.0464  0.7691
  169SAPE   C3719143  -0.176   6.132   7.222  0.1998  0.5055  0.3993
  169SAPE   H7X19144  -0.285   6.142   7.240  0.1105 -1.4813  1.1644
  169SAPE   H7Y19145  -0.108   6.199   7.279  0.7687 -0.4409  0.8485
  169SAPE   C3819146  -0.129   5.997   7.275 -0.2391  0.5333 -0.0093
  169SAPE   H8X19147  -0.023   5.986   7.244 -0.0071  0.7050  0.6956
  169SAPE   H8Y19148  -0.192   5.914   7.237 -0.0205 -0.2260  1.2140
  169SAPE   C3919149  -0.142   5.986   7.432  0.2470  0.5152  0.1010
  169SAPE   H9X19150  -0.248   5.990   7.465  0.0572 -0.7363 -0.3294
  169SAPE   H9Y19151  -0.095   6.076   7.478 -1.2268 -0.4559  3.8804
  169SAPE  C31019152  -0.081   5.854   7.473 -0.1079 -0.5092  0.8469
  169SAPE  H10X19153   0.030   5.855   7.463 -0.1396 -0.4452  0.4927
  169SAPE  H10Y19154  -0.116   5.785   7.394 -3.6505  3.6022 -1.5887
  169SAPE  C31119155  -0.113   5.810   7.612  0.6943 -0.2431 -0.7385
  169SAPE  H11X19156  -0.224   5.798   7.615  0.5977  0.4040 -1.3794
  169SAPE  H11Y19157  -0.086   5.889   7.685 -1.6149 -0.1637  0.1030
  169SAPE  C31219158  -0.038   5.690   7.662  0.4163  0.6636 -0.4929
  169SAPE  H12X19159   0.069   5.718   7.649  0.1920  0.8816 -2.1087
  169SAPE  H12Y19160  -0.060   5.605   7.593  1.1009  1.2721 -1.4894
  169SAPE  C31319161  -0.073   5.635   7.797  0.1441 -0.1911  0.5565
  169SAPE  H13X19162  -0.010   5.545   7.812 -0.0642 -0.7160 -1.4526
  169SAPE  H13Y19163  -0.176   5.593   7.789  0.6685 -1.1965 -1.5112
  169SAPE  C31419164  -0.081   5.736   7.913 -0.0469  0.0808 -0.3989
  169SAPE  H14X19165  -0.182   5.780   7.903 -1.1022 -1.8127  1.3090
  169SAPE  H14Y19166  -0.005   5.815   7.892  0.9216 -1.2559 -2.3105
  169SAPE  C31519167  -0.068   5.670   8.055 -0.5352 -0.6584 -0.2108
  169SAPE  H15X19168  -0.059   5.744   8.138 -0.8367 -1.9172  0.9662
  169SAPE  H15Y19169   0.022   5.606   8.061 -0.3826 -0.3977  0.4555
  169SAPE  C31619170  -0.193   5.596   8.080  0.0631 -0.6181 -0.9265
  169SAPE  H16X19171  -0.206   5.515   8.005 -1.0722 -0.9023 -0.4576
  169SAPE  H16Y19172  -0.282   5.661   8.067 -0.8236 -1.8905 -1.4386
  169SAPE  C31719173  -0.204   5.542   8.231  0.3970 -0.6844  1.0165
  169SAPE  H17X19174  -0.305   5.495   8.239  1.0790 -3.0249 -2.1623
  169SAPE  H17Y19175  -0.199   5.633   8.295  1.4343  1.2350 -1.6374
  169SAPE  C31819176  -0.105   5.435   8.284  0.2931 -0.4768 -0.4425
  169SAPE  H18X19177   0.002   5.464   8.292 -0.0095  0.1170  2.0556
  169SAPE  H18Y19178  -0.101   5.345   8.218  3.2445  0.2465 -1.3997
  169SAPE  H18Z19179  -0.126   5.403   8.388  1.4448  0.7048  0.1745
  170SAPE     N19180   1.221   2.579   6.222 -0.7910 -0.0623 -0.2780
  170SAPE   HN119181   1.311   2.543   6.259 -0.8747 -0.4410 -0.4343
  170SAPE   HN219182   1.147   2.585   6.294 -1.6059 -0.5710 -1.0521
  170SAPE   HN319183   1.196   2.512   6.146  1.3624 -0.5469 -0.6407
  170SAPE   C1219184   1.210   2.718   6.174 -0.3548 -0.1527  0.5920
  170SAPE  H12A19185   1.302   2.733   6.113  2.2697 -0.8298  4.0794
  170SAPE  H12B19186   1.229   2.788   6.258  0.7191  0.4999 -0.1764
  170SAPE   C1119187   1.092   2.760   6.073  0.0188 -0.2019  0.0545
  170SAPE  H11A19188   1.117   2.704   5.981  0.7193  0.7950 -0.3837
  170SAPE  H11B19189   1.103   2.865   6.039 -3.1208 -0.4403 -2.1035
  170SAPE     P19190   0.824   2.795   6.072 -0.0197  0.1482  0.3271
  170SAPE   O1319191   0.854   2.875   5.950  0.1230  0.3746  0.1430
  170SAPE   O1419192   0.734   2.678   6.054 -0.6254 -0.3460 -1.4257
  170SAPE   O1219193   0.962   2.737   6.133 -0.1106  0.3074  0.1237
  170SAPE   O1119194   0.755   2.889   6.179  0.0769 -0.4049 -0.4171
  170SAPE    C119195   0.741   2.848   6.316  0.8601 -0.9378  0.1519
  170SAPE    HA19196   0.651   2.902   6.353  0.4997  1.3133 -3.5305
  170SAPE    HB19197   0.722   2.739   6.324  1.4828 -0.9981  0.9887
  170SAPE    C219198   0.866   2.891   6.400  0.2044 -0.7492 -0.3776
  170SAPE    HS19199   0.946   2.814   6.405  1.5026  0.5892  0.9350
  170SAPE   O2119200   0.817   2.905   6.533 -0.2388 -0.1193 -0.1808
  170SAPE   C2119201   0.813   2.807   6.621 -0.5274 -0.2973  0.7774
  170SAPE   O2219202   0.837   2.693   6.599  0.2751  0.4075 -0.1831
  170SAPE   C2219203   0.774   2.861   6.755  0.4264  0.1474 -0.3576
  170SAPE   H2R19204   0.667   2.841   6.777  0.3321  1.5549  0.6014
  170SAPE   H2S19205   0.836   2.814   6.834 -0.3138 -1.1442 -0.5289
  170SAPE    C319206   0.934   3.025   6.342 -0.9005  0.4430 -0.1768
  170SAPE    HX19207   0.867   3.113   6.328 -1.8687 -0.3528 -0.6370
  170SAPE    HY19208   0.972   3.021   6.238 -2.5726 -1.5650 -0.7858
  170SAPE   O3119209   1.043   3.060   6.427 -0.0108  0.7747  0.1488
  170SAPE   C3119210   1.034   3.174   6.494  0.1732 -0.4956 -0.4986
  170SAPE   O3219211   0.928   3.234   6.512  0.3592 -0.0398  0.2322
  170SAPE   C3219212   1.176   3.209   6.534  0.2518  0.0123  0.1931
  170SAPE   H2X19213   1.233   3.242   6.445 -3.9841  2.6037 -1.8995
  170SAPE   H2Y19214   1.231   3.117   6.564  2.0534  0.7026 -0.8355
  170SAPE   C2319215   0.799   3.016   6.775  0.1840 -0.1715  0.7523
  170SAPE   H3R19216   0.785   3.064   6.676 -1.0822 -1.5708  0.2105
  170SAPE   H3S19217   0.906   3.033   6.799  0.8469 -0.4514 -1.7268
  170SAPE   C2419218   0.708   3.072   6.881  0.6203  0.4093 -0.0932
  170SAPE   H4R19219   0.697   3.008   6.971  2.9914  1.9390  1.4100
  170SAPE   H4S19220   0.603   3.063   6.845  0.9349 -1.9769 -0.5520
  170SAPE   C2519221   0.736   3.213   6.931  0.4486 -0.2106  0.2130
  170SAPE   H5R19222   0.744   3.288   6.852  0.0767  0.5184  0.8507
  170SAPE   C2619223   0.754   3.250   7.057  0.1941  0.0478 -0.5507
  170SAPE   H6R19224   0.790   3.352   7.080  0.4504 -0.3974  1.2282
  170SAPE   C2719225   0.719   3.168   7.184 -0.3489  0.4971 -0.5620
  170SAPE   H7R19226   0.713   3.059   7.164  0.1122  0.7404 -2.1786
  170SAPE   H7S19227   0.622   3.190   7.235  0.7659 -0.0134  1.9140
  170SAPE   C2819228   0.814   3.199   7.297 -0.0766 -0.1287 -0.0794
  170SAPE   H8R19229   0.920   3.204   7.268 -0.1817  2.1011 -0.2733
  170SAPE   C2919230   0.788   3.214   7.425  1.0493 -0.0348 -0.1178
  170SAPE   H9R19231   0.864   3.238   7.501  2.0832  2.0753 -1.7221
  170SAPE  C21019232   0.646   3.207   7.487  0.7465 -0.1118  0.6216
  170SAPE  H10R19233   0.579   3.138   7.430  1.0156 -0.4336  0.6944
  170SAPE  H10S19234   0.591   3.304   7.482 -0.3620 -0.7683 -1.5886
  170SAPE  C21119235   0.643   3.147   7.625 -0.5109 -0.3974  1.2318
  170SAPE  H11R19236   0.587   3.054   7.637  0.0290 -0.7926  0.7830
  170SAPE  C21219237   0.694   3.202   7.732  0.3118  0.0742  0.1257
  170SAPE  H12R19238   0.675   3.148   7.826 -2.2478  0.8648  0.1354
  170SAPE  C21319239   0.772   3.327   7.757  0.3502  0.8876  0.5121
  170SAPE  H13R19240   0.769   3.393   7.667  1.0497 -1.8756 -1.6608
  170SAPE  H13S19241   0.876   3.312   7.793 -0.4984  0.7223  3.1398
  170SAPE  C21419242   0.704   3.403   7.869  1.0162 -0.2658 -0.2241
  170SAPE  H14R19243   0.597   3.385   7.885  1.1184 -0.1305  0.6601
  170SAPE  C21519244   0.758   3.499   7.945 -0.7382 -0.2938  0.0513
  170SAPE  H15R19245   0.690   3.545   8.017 -1.4226  0.8233 -1.2591
  170SAPE  C21619246   0.895   3.555   7.938  0.3943 -0.4885  0.1822
  170SAPE  H16R19247   0.893   3.665   7.951  0.5046 -0.7243  2.9140
  170SAPE  H16S19248   0.946   3.532   7.842  0.9974 -1.0784  0.6313
  170SAPE  C21719249   0.978   3.492   8.051 -0.2526 -0.3835  1.0047
  170SAPE  H17R19250   1.013   3.390   8.022  0.1446  0.3313 -1.2244
  170SAPE  H17S19251   0.911   3.498   8.139 -0.6765  2.4548  0.5817
  170SAPE  C21819252   1.104   3.571   8.093 -0.4186  0.1283  0.0333
  170SAPE  H18R19253   1.142   3.537   8.192 -1.6504 -2.9222 -0.4358
  170SAPE  H18S19254   1.068   3.676   8.105 -0.2662  0.6206 -3.0025
  170SAPE  C21919255   1.225   3.558   7.996  0.7587 -0.5384 -1.2338
  170SAPE  H19R19256   1.191   3.582   7.893  1.0974  1.7792 -0.8568
  170SAPE  H19S19257   1.268   3.456   8.000  2.3740  0.1337 -0.3812
  170SAPE  C22019258   1.334   3.658   8.020 -0.3106  0.6440 -0.1538
  170SAPE  H20R19259   1.301   3.763   8.030 -2.4914  0.0188 -0.1968
  170SAPE  H20S19260   1.412   3.655   7.942  0.5380  0.8542  0.6645
  170SAPE  H20T19261   1.381   3.647   8.120  0.7747  1.4964 -0.5579
  170SAPE   C3319262   1.183   3.309   6.648 -0.0237 -0.5297 -0.3109
  170SAPE   H3X19263   1.108   3.388   6.625  0.1288 -0.6503 -1.2576
  170SAPE   H3Y19264   1.278   3.366   6.647 -1.2253  1.6167 -1.3617
  170SAPE   C3419265   1.179   3.247   6.787  0.0712  1.1681 -0.2467
  170SAPE   H4X19266   1.201   3.138   6.784 -4.6429 -0.2388  3.1246
  170SAPE   H4Y19267   1.079   3.223   6.830 -0.3309 -0.6678 -2.0482
  170SAPE   C3519268   1.275   3.314   6.887 -0.4120  0.6786 -0.0516
  170SAPE   H5X19269   1.231   3.415   6.901 -0.3583  0.5552  1.1224
  170SAPE   H5Y19270   1.368   3.319   6.827 -2.4413 -0.1665 -3.5484
  170SAPE   C3619271   1.282   3.250   7.029 -0.1686  0.1019  0.0988
  170SAPE   H6X19272   1.327   3.149   7.021 -0.7371 -0.1577  0.1752
  170SAPE   H6Y19273   1.178   3.244   7.067  0.0053  2.6902  1.2422
  170SAPE   C3719274   1.352   3.333   7.133  0.6426  0.4578  0.3117
  170SAPE   H7X19275   1.296   3.429   7.136  1.4998  1.0997 -2.1054
  170SAPE   H7Y19276   1.451   3.350   7.087  0.9842 -1.3546  0.2787
  170SAPE   C3819277   1.349   3.274   7.276  0.4433  0.4759  0.4201
  170SAPE   H8X19278   1.404   3.179   7.261 -0.9366 -0.6022  1.8871
  170SAPE   H8Y19279   1.247   3.242   7.307  1.8827 -2.4279  2.6219
  170SAPE   C3919280   1.424   3.368   7.372 -0.2958 -0.0402  0.5137
  170SAPE   H9X19281   1.376   3.467   7.388 -0.6505  0.0803 -1.1569
  170SAPE   H9Y19282   1.508   3.400   7.308 -2.1877 -0.5048 -2.4063
  170SAPE  C31019283   1.478   3.308   7.509 -0.2822  0.5807  0.7219
  170SAPE  H10X19284   1.573   3.359   7.538 -0.7662  0.7600  2.0484
  170SAPE  H10Y19285   1.509   3.205   7.481 -4.0228 -0.0998 -1.6524
  170SAPE  C31119286   1.388   3.321   7.634 -0.7705  0.1439 -0.1889
  170SAPE  H11X19287   1.364   3.427   7.654  0.2759  0.2443  0.6181
  170SAPE  H11Y19288   1.465   3.306   7.713 -0.3964  0.8598 -0.4070
  170SAPE  C31219289   1.268   3.222   7.635  0.0039 -0.6695 -0.0821
  170SAPE  H12X19290   1.313   3.126   7.603 -2.7385 -1.9618 -0.3202
  170SAPE  H12Y19291   1.187   3.244   7.562  1.3217 -0.5107 -1.5336
  170SAPE  C31319292   1.199   3.212   7.772 -0.1264  0.2042 -0.5980
  170SAPE  H13X19293   1.124   3.131   7.767  0.4930 -0.4368  0.2082
  170SAPE  H13Y19294   1.135   3.301   7.794 -1.7091 -1.2311  0.8826
  170SAPE  C31419295   1.287   3.185   7.899  1.0961  0.4502  0.1130
  170SAPE  H14X19296   1.232   3.187   7.995 -0.2345  0.6326 -0.6255
  170SAPE  H14Y19297   1.372   3.256   7.894  2.5664 -1.2506 -0.0168
  170SAPE  C31519298   1.352   3.037   7.905 -0.4491  0.3395 -0.0116
  170SAPE  H15X19299   1.393   3.015   7.804 -1.5267  0.8763 -0.5892
  170SAPE  H15Y19300   1.271   2.962   7.922 -0.8643  0.5472 -0.9976
  170SAPE  C31619301   1.450   3.015   8.026  0.5197  0.3088  0.0241
  170SAPE  H16X19302   1.500   2.916   8.025  0.2716  0.1864 -0.5473
  170SAPE  H16Y19303   1.393   3.022   8.121 -0.6986 -2.0457 -0.4782
  170SAPE  C31719304   1.565   3.115   8.032 -0.4107 -0.2692 -0.0688
  170SAPE  H17X19305   1.521   3.216   8.050 -1.1214  0.0162 -2.9673
  170SAPE  H17Y19306   1.598   3.125   7.926 -2.1844 -0.9555 -0.7082
  170SAPE  C31819307   1.676   3.069   8.126  0.3655 -0.1719 -0.3556
  170SAPE  H18X19308   1.768   3.115   8.085 -0.7233  0.7879 -1.8424
  170SAPE  H18Y19309   1.696   2.960   8.124  2.1953  0.1181  0.5486
  170SAPE  H18Z19310   1.654   3.092   8.232 -0.3306 -0.9100 -0.3286
  171SAPE     N19311   2.687   3.189   6.011  0.5151 -0.2973 -0.3068
  171SAPE   HN119312   2.753   3.266   6.035  0.7770 -1.0668  1.6977
  171SAPE   HN219313   2.742   3.100   6.009  4.4274  1.8405  1.2434
  171SAPE   HN319314   2.638   3.212   5.922  0.2791 -0.3848 -0.2006
  171SAPE   C1219315   2.594   3.185   6.126  0.4700  0.5347 -0.3414
  171SAPE  H12A19316   2.655   3.154   6.213  1.8418  0.2568 -1.3541
  171SAPE  H12B19317   2.522   3.101   6.117  0.3615  0.7424 -1.7606
  171SAPE   C1119318   2.519   3.316   6.145  0.8916  0.4583 -0.0121
  171SAPE  H11A19319   2.590   3.395   6.176  0.4452  0.5206  0.8751
  171SAPE  H11B19320   2.440   3.292   6.220  0.6256 -0.3042 -0.5203
  171SAPE     P19321   2.402   3.497   6.008  0.1643 -0.4427 -0.0361
  171SAPE   O1319322   2.513   3.591   6.041 -0.0382  0.2885  0.4202
  171SAPE   O1419323   2.333   3.502   5.876  0.0468 -0.4892  0.3651
  171SAPE   O1219324   2.459   3.356   6.024  0.4633  0.1185  0.6586
  171SAPE   O1119325   2.282   3.512   6.114 -0.2469  0.3678  0.4564
  171SAPE    C119326   2.252   3.626   6.201 -0.8351 -0.4629  0.4700
  171SAPE    HA19327   2.272   3.721   6.148  0.7790  0.1111  1.9811
  171SAPE    HB19328   2.146   3.620   6.233 -1.1857  1.3127 -0.2464
  171SAPE    C219329   2.333   3.629   6.329  0.2150 -0.6883  0.1771
  171SAPE    HS19330   2.439   3.617   6.296  0.1370  3.7573 -2.5563
  171SAPE   O2119331   2.273   3.527   6.413 -0.2202 -0.8998  0.5090
  171SAPE   C2119332   2.357   3.439   6.456 -0.2882  0.3227  0.3906
  171SAPE   O2219333   2.479   3.434   6.429  0.4116  0.8236 -0.2123
  171SAPE   C2219334   2.276   3.336   6.541  0.0635  0.3725 -0.3231
  171SAPE   H2R19335   2.188   3.297   6.485 -0.2615  0.1076  0.3567
  171SAPE   H2S19336   2.348   3.253   6.559  0.8299  0.2464 -3.4570
  171SAPE    C319337   2.336   3.767   6.407 -0.2724 -0.6177  0.3213
  171SAPE    HX19338   2.229   3.786   6.429 -0.3165  1.5927 -1.4711
  171SAPE    HY19339   2.376   3.853   6.349  1.1490 -1.4546  0.0172
  171SAPE   O3119340   2.412   3.745   6.525 -0.3232  0.6513  0.0972
  171SAPE   C3119341   2.546   3.741   6.510  0.4886  0.0031  0.4786
  171SAPE   O3219342   2.604   3.750   6.402  0.4966  0.5480  0.3304
  171SAPE   C3219343   2.614   3.730   6.640 -0.3159  0.0943 -0.3004
  171SAPE   H2X19344   2.724   3.737   6.635 -0.2584  0.1182  0.8079
  171SAPE   H2Y19345   2.610   3.620   6.660 -1.8262  0.3768  1.2377
  171SAPE   C2319346   2.226   3.382   6.682  0.1194  0.0020 -0.1201
  171SAPE   H3R19347   2.163   3.305   6.733 -0.2894 -1.0588 -2.0903
  171SAPE   H3S19348   2.164   3.471   6.660 -0.0759 -0.1631 -0.2494
  171SAPE   C2419349   2.327   3.433   6.786  0.1732 -0.6055 -0.1383
  171SAPE   H4R19350   2.273   3.489   6.866  3.0330 -0.7536  2.0736
  171SAPE   H4S19351   2.376   3.523   6.743 -0.4959 -1.8921 -3.9820
  171SAPE   C2519352   2.420   3.337   6.846  0.2113 -0.0247 -0.9861
  171SAPE   H5R19353   2.439   3.252   6.779 -2.5635 -1.2861 -0.3049
  171SAPE   C2619354   2.445   3.313   6.978 -0.4759 -0.0198 -0.3584
  171SAPE   H6R19355   2.506   3.225   7.003 -0.3342  0.4096  0.8708
  171SAPE   C2719356   2.410   3.402   7.096  0.1597 -0.0831  0.6600
  171SAPE   H7R19357   2.371   3.497   7.053  0.9792 -0.5788 -1.3030
  171SAPE   H7S19358   2.511   3.420   7.138  0.9748 -1.6241 -0.5200
  171SAPE   C2819359   2.317   3.338   7.201 -0.4366  0.0252 -1.1220
  171SAPE   H8R19360   2.209   3.348   7.187 -0.9768 -0.3144  2.1654
  171SAPE   C2919361   2.355   3.285   7.322  0.8400 -0.4807  0.8407
  171SAPE   H9R19362   2.279   3.259   7.398 -0.2685  0.5797  0.1359
  171SAPE  C21019363   2.493   3.277   7.372 -0.5679  0.1812  0.0893
  171SAPE  H10R19364   2.556   3.257   7.283  0.1967  1.3198  0.3486
  171SAPE  H10S19365   2.512   3.190   7.439 -1.7587 -0.3955 -0.2953
  171SAPE  C21119366   2.546   3.398   7.431 -0.2901 -0.6335  0.4475
  171SAPE  H11R19367   2.616   3.456   7.368 -3.2059  1.3701 -1.1908
  171SAPE  C21219368   2.538   3.444   7.559  0.5249 -0.5640  0.2336
  171SAPE  H12R19369   2.588   3.534   7.598  1.1096  0.7508 -3.1399
  171SAPE  C21319370   2.455   3.377   7.660 -0.3441 -0.5858 -0.1255
  171SAPE  H13R19371   2.514   3.364   7.753 -0.9954  2.1230  0.7306
  171SAPE  H13S19372   2.441   3.273   7.623  3.1214 -1.3711  0.3668
  171SAPE  C21419373   2.320   3.426   7.694  0.1771 -0.9175  0.1881
  171SAPE  H14R19374   2.259   3.453   7.607  1.9565 -1.5264 -1.3199
  171SAPE  C21519375   2.277   3.482   7.811 -0.3023 -0.0692 -0.2488
  171SAPE  H15R19376   2.172   3.513   7.823 -0.1718  0.2805  0.0079
  171SAPE  C21619377   2.368   3.474   7.934  0.6739 -0.1475 -0.0761
  171SAPE  H16R19378   2.415   3.376   7.958  1.0668  0.3090  1.1129
  171SAPE  H16S19379   2.301   3.492   8.020 -0.3108  0.2365 -0.9033
  171SAPE  C21719380   2.477   3.584   7.939  0.2864 -0.4384  0.5981
  171SAPE  H17R19381   2.428   3.684   7.939  0.5475 -0.2733  2.1428
  171SAPE  H17S19382   2.544   3.580   7.851 -2.0496  3.0464 -1.5760
  171SAPE  C21819383   2.563   3.584   8.064 -0.3022  0.2711 -0.4617
  171SAPE  H18R19384   2.607   3.482   8.066 -0.4945  0.1546 -1.7886
  171SAPE  H18S19385   2.496   3.597   8.152  2.5478 -1.2022  2.1244
  171SAPE  C21919386   2.679   3.685   8.064 -0.6438 -0.2153  0.0677
  171SAPE  H19R19387   2.650   3.791   8.051  3.1365  1.2196  1.9744
  171SAPE  H19S19388   2.745   3.665   7.977 -0.8047 -0.8063  0.0772
  171SAPE  C22019389   2.768   3.671   8.188 -0.1914 -0.0039 -0.3199
  171SAPE  H20R19390   2.858   3.735   8.190 -0.6181  0.5841  0.3224
  171SAPE  H20S19391   2.799   3.565   8.180 -1.6902 -0.4191 -1.0209
  171SAPE  H20T19392   2.723   3.699   8.285  1.7193 -0.7821  0.8466
  171SAPE   C3319393   2.566   3.818   6.762 -0.9334  0.3032  0.6891
  171SAPE   H3X19394   2.460   3.848   6.755 -0.5633  2.1267  2.0971
  171SAPE   H3Y19395   2.624   3.912   6.752  0.9038 -0.8267  0.1464
  171SAPE   C3419396   2.600   3.748   6.895 -0.0606 -0.3293 -0.0915
  171SAPE   H4X19397   2.699   3.699   6.890 -0.4327 -1.0835 -0.2214
  171SAPE   H4Y19398   2.519   3.675   6.918 -0.4481  0.1924  0.2448
  171SAPE   C3519399   2.607   3.846   7.020 -0.4459  0.7980  0.4180
  171SAPE   H5X19400   2.502   3.877   7.039 -0.4602  0.0056  1.7846
  171SAPE   H5Y19401   2.681   3.927   7.002 -0.4245  1.1443  1.9144
  171SAPE   C3619402   2.658   3.778   7.149 -0.6233  0.0591  0.0085
  171SAPE   H6X19403   2.760   3.738   7.127 -0.2028  1.1061  0.0188
  171SAPE   H6Y19404   2.587   3.695   7.171 -0.0598 -0.2044  0.9149
  171SAPE   C3719405   2.663   3.881   7.263  0.1216 -0.5121  0.6116
  171SAPE   H7X19406   2.564   3.928   7.281  0.1959  0.4487 -1.1938
  171SAPE   H7Y19407   2.729   3.964   7.231  0.4955 -1.3874 -1.0688
  171SAPE   C3819408   2.724   3.826   7.391  0.3391 -0.2130  0.0349
  171SAPE   H8X19409   2.834   3.816   7.384  0.3490 -1.8502  1.7161
  171SAPE   H8Y19410   2.684   3.722   7.389  2.4309 -1.0536 -1.1624
  171SAPE   C3919411   2.684   3.919   7.512 -0.0665 -0.1536  0.3242
  171SAPE   H9X19412   2.586   3.891   7.557  0.4195 -0.5758  1.1564
  171SAPE   H9Y19413   2.676   4.029   7.496 -0.4838 -0.1493  0.5611
  171SAPE  C31019414   2.787   3.898   7.622  0.9791  0.5014 -0.3121
  171SAPE  H10X19415   2.763   3.959   7.712  3.5122  3.2660 -1.3283
  171SAPE  H10Y19416   2.880   3.943   7.581  0.2185  1.3546 -1.1532
  171SAPE  C31119417   2.798   3.746   7.666  0.1132 -0.6879  0.2951
  171SAPE  H11X19418   2.781   3.683   7.576 -0.9882 -0.2063  0.1593
  171SAPE  H11Y19419   2.707   3.730   7.727 -1.7829  1.0312 -1.8937
  171SAPE  C31219420   2.940   3.713   7.722  0.1474 -0.3927  0.2002
  171SAPE  H12X19421   3.013   3.743   7.644  0.2650 -2.1499 -0.3866
  171SAPE  H12Y19422   2.951   3.605   7.744 -1.0103 -0.7225 -0.7989
  171SAPE  C31319423   2.967   3.810   7.842  0.2348  0.1640  0.5472
  171SAPE  H13X19424   2.871   3.802   7.896 -0.7308 -1.8296 -1.3121
  171SAPE  H13Y19425   2.982   3.914   7.805  0.8399  0.3519  1.3018
  171SAPE  C31419426   3.082   3.762   7.935  0.7302 -0.6149 -0.1220
  171SAPE  H14X19427   3.174   3.740   7.877  0.2473 -0.8005 -0.8239
  171SAPE  H14Y19428   3.054   3.667   7.986  1.4154 -0.7391  0.0264
  171SAPE  C31519429   3.125   3.869   8.042  0.1662 -0.1159  0.2691
  171SAPE  H15X19430   3.034   3.900   8.097 -0.5010  2.4218 -2.0360
  171SAPE  H15Y19431   3.153   3.961   7.987 -3.5651  0.4933 -0.9089
  171SAPE  C31619432   3.229   3.806   8.134  0.6683  0.7493 -0.1216
  171SAPE  H16X19433   3.325   3.781   8.084  0.2381  0.5852 -0.8775
  171SAPE  H16Y19434   3.178   3.718   8.179 -2.0919  1.6004 -1.3686
  171SAPE  C31719435   3.283   3.900   8.250  0.1224 -0.0956  0.6593
  171SAPE  H17X19436   3.206   3.930   8.325 -1.8812 -1.7494 -0.6280
  171SAPE  H17Y19437   3.305   4.003   8.215 -2.3737  1.0824  2.2502
  171SAPE  C31819438   3.396   3.838   8.330 -0.4338  0.6448  0.1267
  171SAPE  H18X19439   3.477   3.797   8.265 -1.8297 -2.3316  0.1165
  171SAPE  H18Y19440   3.362   3.751   8.390 -1.4307  1.3813  0.6442
  171SAPE  H18Z19441   3.442   3.918   8.392 -1.7666  1.0320  0.6436
  172SAPE     N19442   2.968   3.770   5.798  0.2900  0.6188 -0.3035
  172SAPE   HN119443   2.992   3.816   5.708  1.1956  2.0833  0.6343
  172SAPE   HN219444   2.924   3.677   5.781 -0.3346  0.2559  2.6740
  172SAPE   HN319445   2.895   3.835   5.836 -2.4273 -2.5695  0.4212
  172SAPE   C1219446   3.090   3.758   5.882 -0.5981  0.2023  0.1559
  172SAPE  H12A19447   3.129   3.859   5.908 -0.6308  0.9794 -2.5461
  172SAPE  H12B19448   3.170   3.708   5.824  1.2673  0.6601  2.1640
  172SAPE   C1119449   3.064   3.682   6.015  0.2084 -0.3835  0.0151
  172SAPE  H11A19450   3.022   3.584   5.983  0.3102 -0.3650 -0.1737
  172SAPE  H11B19451   2.988   3.740   6.072  1.7057  0.1751  1.5114
  172SAPE     P19452   3.290   3.572   6.052 -0.6841  0.2921 -0.0303
  172SAPE   O1319453   3.237   3.437   6.058 -0.1619  0.3290 -0.2442
  172SAPE   O1419454   3.359   3.606   5.928  0.4862  1.1706  0.3373
  172SAPE   O1219455   3.182   3.676   6.091 -0.8260 -0.7206 -0.0174
  172SAPE   O1119456   3.397   3.589   6.166 -0.3432 -0.1753 -0.1106
  172SAPE    C119457   3.429   3.723   6.193 -1.1970 -0.1171 -0.5916
  172SAPE    HA19458   3.513   3.754   6.128 -0.2696  2.3033  1.5863
  172SAPE    HB19459   3.353   3.803   6.182  0.0009  1.2694  0.6907
  172SAPE    C219460   3.484   3.736   6.339  0.4781  0.4486  0.8191
  172SAPE    HS19461   3.554   3.650   6.346  0.8561  0.7414  0.6942
  172SAPE   O2119462   3.371   3.728   6.430  0.1800  0.0818  0.6741
  172SAPE   C2119463   3.411   3.696   6.543 -0.6176  0.2567 -0.7858
  172SAPE   O2219464   3.511   3.635   6.576  0.3766  0.4974 -0.2636
  172SAPE   C2219465   3.320   3.764   6.641 -0.1750  0.5336  0.2037
  172SAPE   H2R19466   3.240   3.823   6.591  0.4769 -0.2915 -1.9127
  172SAPE   H2S19467   3.281   3.681   6.704 -1.5251  0.0835 -1.1482
  172SAPE    C319468   3.559   3.875   6.358 -0.3863 -0.4434  0.4903
  172SAPE    HX19469   3.482   3.955   6.356  0.7438  0.6750 -1.9136
  172SAPE    HY19470   3.614   3.898   6.264 -1.1738  0.6479  0.2796
  172SAPE   O3119471   3.641   3.883   6.480 -0.2427  0.1941  0.3908
  172SAPE   C3119472   3.768   3.905   6.457 -0.1593 -0.1712 -0.2461
  172SAPE   O3219473   3.815   3.939   6.348 -0.2763 -0.6057  0.3309
  172SAPE   C3219474   3.860   3.903   6.588  0.1674  0.3625  0.3197
  172SAPE   H2X19475   3.907   4.003   6.601 -1.0556  0.5577  4.5269
  172SAPE   H2Y19476   3.939   3.825   6.584  0.8473  1.0603 -0.0340
  172SAPE   C2319477   3.383   3.852   6.751  0.1066  0.3000  0.2319
  172SAPE   H3R19478   3.403   3.959   6.728  3.9663  0.4081  3.1733
  172SAPE   H3S19479   3.486   3.815   6.771  0.4715  1.0926 -0.1430
  172SAPE   C2419480   3.293   3.859   6.877 -0.5742 -0.2110 -0.8099
  172SAPE   H4R19481   3.202   3.903   6.830  0.5789  1.0252 -1.9606
  172SAPE   H4S19482   3.314   3.942   6.948  1.1214 -2.2281  1.1837
  172SAPE   C2519483   3.281   3.745   6.973  0.1381  0.4743 -0.4933
  172SAPE   H5R19484   3.385   3.718   6.996  0.6175  0.9553 -2.0097
  172SAPE   C2619485   3.167   3.686   7.013 -0.3052 -0.0593  0.1495
  172SAPE   H6R19486   3.181   3.611   7.092 -1.6976 -0.3875  0.0982
  172SAPE   C2719487   3.028   3.725   6.982  0.0806  0.7428 -0.1762
  172SAPE   H7R19488   3.002   3.832   6.996 -3.1119 -0.1851  2.2138
  172SAPE   H7S19489   2.970   3.669   7.059 -1.2291 -0.6307 -2.0882
  172SAPE   C2819490   2.988   3.684   6.842  0.1542 -0.2824  0.2874
  172SAPE   H8R19491   3.016   3.763   6.771 -1.0412  1.2040  1.4184
  172SAPE   C2919492   2.918   3.578   6.801 -0.5233 -0.3150 -0.2636
  172SAPE   H9R19493   2.924   3.552   6.694  0.3124 -2.6375  0.2911
  172SAPE  C21019494   2.853   3.466   6.878 -0.3710 -0.2503 -0.1605
  172SAPE  H10R19495   2.743   3.481   6.875 -0.6556 -2.0617 -0.4572
  172SAPE  H10S19496   2.883   3.480   6.984  0.6430  1.6839 -0.6621
  172SAPE  C21119497   2.881   3.320   6.835  0.1733 -0.4356  0.2071
  172SAPE  H11R19498   2.876   3.302   6.727 -0.8495 -0.7646  0.2980
  172SAPE  C21219499   2.906   3.216   6.917  0.4256 -0.4626  0.5028
  172SAPE  H12R19500   2.945   3.122   6.877  0.5549 -0.3980  0.4778
  172SAPE  C21319501   2.910   3.222   7.064  1.2454  0.6255 -0.1189
  172SAPE  H13R19502   2.919   3.117   7.099 -1.3745 -0.2895 -1.8707
  172SAPE  H13S19503   2.808   3.241   7.105  0.0320 -0.4340 -2.4141
  172SAPE  C21419504   3.025   3.302   7.124 -0.2262 -0.0004 -0.3164
  172SAPE  H14R19505   3.106   3.322   7.052  0.7663  0.5797  0.9181
  172SAPE  C21519506   3.032   3.367   7.248 -0.5445 -0.3778  0.6266
  172SAPE  H15R19507   3.105   3.445   7.275 -2.1532  0.9678  1.2363
  172SAPE  C21619508   2.945   3.344   7.364  0.1538 -0.1137  0.2178
  172SAPE  H16R19509   2.837   3.354   7.339 -0.0968 -1.8842  0.3955
  172SAPE  H16S19510   2.968   3.432   7.427  2.9067  0.9217 -2.0821
  172SAPE  C21719511   2.962   3.207   7.435  0.3818  0.1206 -0.7015
  172SAPE  H17R19512   3.071   3.190   7.444  0.3793  1.0245  1.7957
  172SAPE  H17S19513   2.927   3.125   7.368  3.0964 -1.3855 -0.4106
  172SAPE  C21819514   2.875   3.195   7.564  0.2942  0.2736 -0.3412
  172SAPE  H18R19515   2.882   3.089   7.598  2.1107  0.2800 -0.5893
  172SAPE  H18S19516   2.768   3.216   7.543 -0.4382 -1.2182  1.5567
  172SAPE  C21919517   2.933   3.295   7.661 -0.3592 -0.3929 -0.0772
  172SAPE  H19R19518   2.880   3.282   7.758  0.7121  1.6164  0.8434
  172SAPE  H19S19519   2.908   3.395   7.620 -0.6195 -0.8704 -1.1003
  172SAPE  C22019520   3.082   3.299   7.691  0.2130 -0.1119  0.4974
  172SAPE  H20R19521   3.145   3.355   7.618  1.3967 -2.9628 -0.8245
  172SAPE  H20S19522   3.123   3.196   7.691 -1.9667 -1.0496 -0.9344
  172SAPE  H20T19523   3.102   3.351   7.787  2.6364 -1.3156  0.7329
  172SAPE   C3319524   3.779   3.882   6.723  0.7859 -0.0022 -0.4353
  172SAPE   H3X19525   3.724   3.785   6.725 -0.9758  0.9761 -0.2376
  172SAPE   H3Y19526   3.704   3.963   6.733 -0.2154 -0.9043 -0.4473
  172SAPE   C3419527   3.873   3.897   6.840  0.3912 -0.5946  0.2449
  172SAPE   H4X19528   3.935   3.988   6.853  1.8977 -1.8566  2.6914
  172SAPE   H4Y19529   3.942   3.810   6.833 -2.0117 -2.5765 -0.4540
  172SAPE   C3519530   3.792   3.873   6.971  0.0363 -0.3059 -0.6780
  172SAPE   H5X19531   3.768   3.765   6.974  0.5087 -0.4228 -0.9374
  172SAPE   H5Y19532   3.706   3.943   6.964  1.0652  0.9656 -1.1132
  172SAPE   C3619533   3.864   3.928   7.099 -0.3321 -0.3786 -0.9238
  172SAPE   H6X19534   3.894   4.034   7.091  4.9796 -1.3088  2.0160
  172SAPE   H6Y19535   3.960   3.874   7.121  0.2749  0.9127 -0.3080
  172SAPE   C3719536   3.777   3.921   7.231  0.0528 -1.0073  0.2090
  172SAPE   H7X19537   3.749   3.815   7.252 -0.1590 -0.8942  0.5049
  172SAPE   H7Y19538   3.682   3.974   7.210  1.1536  0.9990  0.0272
  172SAPE   C3819539   3.839   3.997   7.353 -0.3429  0.0877  0.5819
  172SAPE   H8X19540   3.856   4.104   7.332 -1.5959  0.0711 -0.7398
  172SAPE   H8Y19541   3.934   3.951   7.386  0.0344 -0.2366 -0.8859
  172SAPE   C3919542   3.751   4.009   7.482  0.0037  0.4834 -0.8364
  172SAPE   H9X19543   3.652   4.049   7.454 -1.1166 -1.6639 -0.2187
  172SAPE   H9Y19544   3.799   4.076   7.557 -0.1846 -0.2053 -0.0755
  172SAPE  C31019545   3.725   3.868   7.549  0.1728  0.4842  0.1243
  172SAPE  H10X19546   3.826   3.845   7.590  0.5754 -0.7566 -1.4518
  172SAPE  H10Y19547   3.709   3.795   7.466  1.3003  1.4269 -0.9603
  172SAPE  C31119548   3.620   3.878   7.655 -0.0075  0.0756 -0.4185
  172SAPE  H11X19549   3.584   3.781   7.696  0.6306  0.8777  2.1622
  172SAPE  H11Y19550   3.529   3.927   7.613  0.5074  2.6992  1.3327
  172SAPE  C31219551   3.671   3.957   7.776 -0.0307 -0.3810 -0.4840
  172SAPE  H12X19552   3.657   4.064   7.751 -3.0165 -0.1001  1.8521
  172SAPE  H12Y19553   3.780   3.943   7.795  0.3145  1.5528 -0.8629
  172SAPE  C31319554   3.586   3.924   7.894 -0.6841  0.5400 -0.8751
  172SAPE  H13X19555   3.628   3.829   7.933 -2.0047 -0.3096 -1.4752
  172SAPE  H13Y19556   3.483   3.912   7.856 -1.4766  1.5178  0.8328
  172SAPE  C31419557   3.587   4.035   8.005  0.1157  0.2417 -0.5784
  172SAPE  H14X19558   3.535   4.000   8.097  0.9339  0.1826 -0.1196
  172SAPE  H14Y19559   3.537   4.128   7.970 -1.4916 -0.4134 -0.1284
  172SAPE  C31519560   3.731   4.073   8.051  0.2259  0.5888  0.6422
  172SAPE  H15X19561   3.727   4.173   8.100 -0.3822  1.5945 -1.3442
  172SAPE  H15Y19562   3.801   4.080   7.965 -0.6025  1.2426 -0.0004
  172SAPE  C31619563   3.789   3.965   8.149 -0.2955  0.5456  0.2722
  172SAPE  H16X19564   3.796   3.868   8.096  1.2435  2.0564 -2.5452
  172SAPE  H16Y19565   3.715   3.970   8.232  0.0059  1.4374  0.4992
  172SAPE  C31719566   3.928   4.016   8.200 -1.0509 -0.6402  0.3848
  172SAPE  H17X19567   3.923   4.123   8.228  1.3672 -0.3062 -0.2547
  172SAPE  H17Y19568   3.996   4.010   8.113 -1.9154  0.6300 -0.4054
  172SAPE  C31819569   3.999   3.925   8.309  0.7883 -0.3038  0.4399
  172SAPE  H18X19570   3.942   3.927   8.405 -0.5758 -0.4074 -0.3440
  172SAPE  H18Y19571   4.094   3.977   8.336  0.4842 -0.8502  2.7594
  172SAPE  H18Z19572   4.009   3.826   8.260 -0.9027 -0.9719  1.3641
  173SOPE     N19573   3.332   1.492  10.911  0.4128 -0.4527  0.5807
  173SOPE   HN119574   3.400   1.567  10.934 -1.0731  2.1070 -2.5815
  173SOPE   HN219575   3.253   1.515  10.974  1.0428  2.4654  0.4085
  173SOPE   HN319576   3.374   1.403  10.945 -0.1311 -0.7189  0.5722
  173SOPE   C1219577   3.299   1.485  10.771 -0.3168  0.1725  0.8718
  173SOPE  H12A19578   3.395   1.495  10.716 -1.3658  1.5571 -0.8397
  173SOPE  H12B19579   3.237   1.574  10.749  0.7813  0.7460 -0.0425
  173SOPE   C1119580   3.228   1.355  10.728  0.2177  0.5981 -0.1652
  173SOPE  H11A19581   3.196   1.363  10.622  0.5800 -0.2420 -0.3443
  173SOPE  H11B19582   3.137   1.350  10.792  0.7429  2.1271  0.7740
  173SOPE     P19583   3.272   1.105  10.709  0.1874  0.2881  0.0658
  173SOPE   O1319584   3.135   1.069  10.756 -0.2948  0.0434 -0.3091
  173SOPE   O1419585   3.377   1.014  10.764 -0.2515  0.0226  0.3180
  173SOPE   O1219586   3.311   1.244  10.756 -0.4936 -0.4622  0.1993
  173SOPE   O1119587   3.271   1.102  10.553 -0.5366 -0.3664 -0.5249
  173SOPE    C119588   3.379   1.154  10.481 -0.6040 -1.1269 -0.0807
  173SOPE    HA19589   3.472   1.099  10.506 -0.0611  1.1937  3.6744
  173SOPE    HB19590   3.401   1.257  10.515 -1.8209 -1.2840  1.2870
  173SOPE    C219591   3.357   1.156  10.325 -0.2718  0.1086 -0.1253
  173SOPE    HS19592   3.413   1.244  10.286 -0.7822  2.0337  3.1010
  173SOPE   O2119593   3.222   1.154  10.294 -0.2261  0.3962 -0.8072
  173SOPE   C2119594   3.163   1.272  10.321 -0.3670  0.7706 -1.0275
  173SOPE   O2219595   3.216   1.372  10.368  0.1424 -0.3649  0.4993
  173SOPE   C2219596   3.030   1.270  10.254 -0.4811  1.0377  0.0231
  173SOPE   H2R19597   3.007   1.375  10.226 -0.0414  0.8777 -0.9941
  173SOPE   H2S19598   2.942   1.236  10.313 -1.1524 -2.8085 -2.8094
  173SOPE    C319599   3.420   1.033  10.258 -0.2091 -0.4142 -0.4071
  173SOPE    HX19600   3.378   0.945  10.312 -1.6326  0.6767  0.3384
  173SOPE    HY19601   3.528   1.028  10.282 -0.0971  2.0912 -0.0605
  173SOPE   O3119602   3.401   1.032  10.117  0.2749 -0.4206 -0.0546
  173SOPE   C3119603   3.311   0.943  10.073 -0.0628  0.2237 -0.5867
  173SOPE   O3219604   3.258   0.856  10.142 -0.3459  0.1507 -0.2198
  173SOPE   C3219605   3.290   0.969   9.932  0.0750  0.3634  0.3766
  173SOPE   H2X19606   3.381   0.950   9.872 -1.3847 -1.5966 -1.3720
  173SOPE   H2Y19607   3.246   1.071   9.926  1.2525  0.8325 -4.3235
  173SOPE   C2319608   3.014   1.193  10.122  0.1134  0.8928 -0.1584
  173SOPE   H3R19609   3.028   1.085  10.144  0.3502  1.1059  0.7994
  173SOPE   H3S19610   3.094   1.213  10.048  0.9127  1.2283  0.7771
  173SOPE   C2419611   2.876   1.206  10.058 -0.2256 -1.2993  0.2362
  173SOPE   H4R19612   2.800   1.165  10.128 -0.1958 -1.2177  0.3176
  173SOPE   H4S19613   2.865   1.317  10.053  0.6339 -1.1663  1.0856
  173SOPE   C2519614   2.865   1.148   9.914 -0.0617 -0.5711  0.7525
  173SOPE   H5R19615   2.951   1.185   9.855 -1.2023 -1.2724 -1.4695
  173SOPE   H5S19616   2.865   1.037   9.911  1.1462 -0.5723  0.6333
  173SOPE   C2619617   2.747   1.201   9.841 -0.1562 -0.1356  0.4611
  173SOPE   H6R19618   2.656   1.183   9.902 -0.5959 -1.0004 -0.4227
  173SOPE   H6S19619   2.756   1.310   9.821  1.1959 -0.4511 -0.7750
  173SOPE   C2719620   2.735   1.123   9.708 -0.1279  0.0844 -0.1372
  173SOPE   H7R19621   2.836   1.142   9.667 -0.2329  0.3403 -0.2841
  173SOPE   H7S19622   2.726   1.015   9.730  0.3288 -0.0805 -0.7482
  173SOPE   C2819623   2.620   1.173   9.619  0.2871 -0.6777  0.0398
  173SOPE   H8R19624   2.530   1.193   9.682 -0.0783 -0.1900 -0.6279
  173SOPE   H8S19625   2.647   1.269   9.572  3.4774 -2.0418 -1.2096
  173SOPE   C2919626   2.567   1.058   9.529  0.5485  0.0915 -0.2038
  173SOPE   H9119627   2.516   0.973   9.577 -2.2815  0.8931 -1.6272
  173SOPE  C21019628   2.554   1.063   9.393 -0.0487 -0.5091 -0.4939
  173SOPE  H10119629   2.505   0.982   9.338  0.4084 -0.3309 -1.1722
  173SOPE  C21119630   2.595   1.183   9.305 -0.7943 -0.6144  0.1538
  173SOPE  H11R19631   2.665   1.256   9.352 -2.0687 -0.0338  1.2209
  173SOPE  H11S19632   2.500   1.236   9.281 -0.5521 -0.9295 -1.6294
  173SOPE  C21219633   2.652   1.142   9.168  0.3060 -0.2554  0.2160
  173SOPE  H12R19634   2.588   1.066   9.118  0.5843 -0.7004  0.5188
  173SOPE  H12S19635   2.752   1.091   9.166  0.4441  0.0510 -0.6631
  173SOPE  C21319636   2.656   1.269   9.074 -0.1854  0.5809  0.2817
  173SOPE  H13R19637   2.748   1.327   9.094 -1.8625  4.4392 -2.1342
  173SOPE  H13S19638   2.568   1.330   9.103 -0.1813  0.4651  0.5424
  173SOPE  C21419639   2.658   1.234   8.925  0.2115  0.4751 -0.1063
  173SOPE  H14R19640   2.660   1.327   8.864  1.3158 -1.1305 -2.6962
  173SOPE  H14S19641   2.562   1.184   8.901  0.6226  0.3202 -1.5224
  173SOPE  C21519642   2.759   1.124   8.883 -0.5603  0.2595 -1.0254
  173SOPE  H15R19643   2.729   1.027   8.928  3.0331 -1.3879 -1.8338
  173SOPE  H15S19644   2.862   1.152   8.914 -0.4144  0.0713 -1.3426
  173SOPE  C21619645   2.771   1.130   8.734  0.1336 -0.2441 -0.4263
  173SOPE  H16R19646   2.676   1.091   8.691 -0.0608 -0.6846  0.3717
  173SOPE  H16S19647   2.847   1.052   8.712 -0.5707 -0.5879 -1.7234
  173SOPE  C21719648   2.821   1.259   8.662  0.0197 -0.5922  0.1243
  173SOPE  H17R19649   2.929   1.277   8.680 -0.1119  0.4126  0.0046
  173SOPE  H17S19650   2.758   1.346   8.692  0.3149  0.2614 -1.6189
  173SOPE  C21819651   2.805   1.242   8.507 -0.8717 -0.0178 -0.4427
  173SOPE  H18R19652   2.881   1.298   8.449 -0.0939 -1.8786 -1.2817
  173SOPE  H18S19653   2.701   1.245   8.467 -0.9671 -0.5399 -0.2409
  173SOPE  H18T19654   2.821   1.133   8.494  0.1936  0.0122  0.5042
  173SOPE   C3319655   3.186   0.878   9.857 -0.4645  0.3199 -1.2023
  173SOPE   H3X19656   3.096   0.864   9.922  1.4876 -0.4269  1.5151
  173SOPE   H3Y19657   3.231   0.778   9.844 -3.1952 -1.1318 -0.2491
  173SOPE   C3419658   3.138   0.932   9.723 -0.4335 -0.4176  0.1597
  173SOPE   H4X19659   3.223   0.959   9.656  0.8615  1.9433  2.5721
  173SOPE   H4Y19660   3.079   1.024   9.741 -1.4068 -1.0105  0.0519
  173SOPE   C3519661   3.035   0.842   9.648  0.2195  0.0723  0.0766
  173SOPE   H5X19662   2.969   0.801   9.727  2.3607 -0.4304  1.6734
  173SOPE   H5Y19663   3.085   0.748   9.617  0.9508  0.6475 -0.5278
  173SOPE   C3619664   2.968   0.897   9.526  0.6677 -0.6726  0.7370
  173SOPE   H6X19665   3.040   0.877   9.443 -0.9030  1.7682 -1.3619
  173SOPE   H6Y19666   2.943   1.005   9.528  1.8074 -0.3870  0.2700
  173SOPE   C3719667   2.841   0.808   9.498 -0.7510  0.0133  0.0813
  173SOPE   H7X19668   2.761   0.841   9.567 -1.1320 -0.3345 -0.1851
  173SOPE   H7Y19669   2.860   0.701   9.520 -0.8722 -0.2161 -0.8894
  173SOPE   C3819670   2.802   0.819   9.350  0.0665  0.3076  0.3819
  173SOPE   H8X19671   2.810   0.925   9.319  1.1561  0.1052 -0.0791
  173SOPE   H8Y19672   2.697   0.784   9.339  0.1103 -0.6398  2.4478
  173SOPE   C3919673   2.882   0.731   9.256 -0.1286  0.2886  0.3577
  173SOPE   H9X19674   2.906   0.639   9.314  0.9202  1.2710  1.5225
  173SOPE   H9Y19675   2.985   0.767   9.237 -0.0571 -0.8954 -1.8185
  173SOPE  C31019676   2.810   0.692   9.123 -0.4118  0.5118 -0.0089
  173SOPE  H10X19677   2.719   0.652   9.171  0.7569 -0.1679  1.7232
  173SOPE  H10Y19678   2.876   0.619   9.072 -0.8858  0.1194 -0.0689
  173SOPE  C31119679   2.784   0.805   9.028 -0.4593 -0.3157  0.2033
  173SOPE  H11X19680   2.878   0.850   8.989  0.1982 -2.4768 -0.8738
  173SOPE  H11Y19681   2.717   0.877   9.080  0.8626  0.3709  0.9958
  173SOPE  C31219682   2.726   0.743   8.899  0.2208 -0.8809  0.2994
  173SOPE  H12X19683   2.774   0.644   8.883 -0.7491 -1.7417  2.3713
  173SOPE  H12Y19684   2.748   0.807   8.811 -1.4739 -0.7029 -0.0282
  173SOPE  C31319685   2.575   0.716   8.901 -0.0081 -0.2401  0.2117
  173SOPE  H13X19686   2.525   0.815   8.910 -0.2897 -0.4370  0.8281
  173SOPE  H13Y19687   2.553   0.650   8.987 -0.4463 -0.3652  0.0021
  173SOPE  C31419688   2.534   0.635   8.779 -0.4266 -0.5909 -0.3386
  173SOPE  H14X19689   2.581   0.682   8.690  0.4919 -2.3164 -0.8191
  173SOPE  H14Y19690   2.427   0.652   8.752 -0.3865  2.5138  0.9767
  173SOPE  C31519691   2.560   0.491   8.790 -0.4972  0.2012  0.2964
  173SOPE  H15X19692   2.503   0.438   8.870  0.8871 -1.8909 -0.0228
  173SOPE  H15Y19693   2.663   0.474   8.827 -0.3780  1.6535  0.6779
  173SOPE  C31619694   2.540   0.403   8.661 -0.2010 -0.0834  0.1786
  173SOPE  H16X19695   2.571   0.463   8.572  0.4987  1.3925  1.3860
  173SOPE  H16Y19696   2.435   0.364   8.658 -0.4408  0.5477  0.2302
  173SOPE  C31719697   2.624   0.277   8.672 -0.2573 -0.2145  0.8044
  173SOPE  H17X19698   2.586   0.222   8.760  1.0924 -1.0587  0.8917
  173SOPE  H17Y19699   2.720   0.330   8.688 -0.7331  1.0403 -0.2631
  173SOPE  C31819700   2.620   0.191   8.550  0.0604 -0.7618 -0.9831
  173SOPE  H18X19701   2.705   0.119   8.549  1.3249  0.6345  0.0541
  173SOPE  H18Y19702   2.620   0.249   8.456 -0.2347 -0.1827 -0.6276
  173SOPE  H18Z19703   2.523   0.138   8.551 -1.1510  1.3507  0.2926
  174SOPE     N19704   2.360   0.335  10.771  0.4659 -0.1613 -0.0602
  174SOPE   HN119705   2.389   0.285  10.684 -0.8402 -0.8085 -0.1547
  174SOPE   HN219706   2.337   0.435  10.754  2.1833  0.0731 -1.1574
  174SOPE   HN319707   2.448   0.331  10.826  0.3510  0.3877  0.1704
  174SOPE   C1219708   2.244   0.265  10.833  0.1107  0.3787 -0.2989
  174SOPE  H12A19709   2.226   0.299  10.937  0.8896 -0.0911 -0.0029
  174SOPE  H12B19710   2.258   0.155  10.829  2.5821  0.3396  3.7256
  174SOPE   C1119711   2.114   0.291  10.756 -0.0791 -0.0842  0.3610
  174SOPE  H11A19712   2.035   0.250  10.822  1.3958 -1.2166  1.4940
  174SOPE  H11B19713   2.100   0.238  10.660  1.0165 -0.9682  0.6713
  174SOPE     P19714   1.951   0.493  10.707  0.0800  0.0132  0.0360
  174SOPE   O1319715   1.950   0.643  10.722 -0.0943  0.1021 -0.2913
  174SOPE   O1419716   1.849   0.413  10.782 -0.6833 -0.0479 -0.1695
  174SOPE   O1219717   2.098   0.433  10.739 -0.5994  0.2800  0.0307
  174SOPE   O1119718   1.940   0.466  10.551  0.5687 -0.1059  0.2993
  174SOPE    C119719   2.054   0.465  10.463 -0.0754 -0.4357 -0.6666
  174SOPE    HA19720   2.105   0.368  10.477 -2.7518 -1.8778 -0.2043
  174SOPE    HB19721   2.126   0.536  10.508  2.7686 -1.8715 -2.6759
  174SOPE    C219722   2.012   0.512  10.317  0.4242  0.3161 -0.8476
  174SOPE    HS19723   1.908   0.477  10.304  0.7493 -0.8310 -0.4472
  174SOPE   O2119724   2.105   0.453  10.218 -0.1038 -0.0706 -0.0927
  174SOPE   C2119725   2.075   0.326  10.183  0.5628 -0.3775  0.2518
  174SOPE   O2219726   1.972   0.273  10.221 -0.2224 -0.2840  0.2115
  174SOPE   C2219727   2.161   0.277  10.072  0.0256 -0.0369 -0.2446
  174SOPE   H2R19728   2.227   0.195  10.110  0.7356  0.6943  0.1317
  174SOPE   H2S19729   2.238   0.355  10.057 -0.4480  0.6517  0.8112
  174SOPE    C319730   2.018   0.667  10.306 -0.1566 -0.1534  0.2191
  174SOPE    HX19731   2.121   0.701  10.333 -0.3430 -0.0963  0.8896
  174SOPE    HY19732   1.944   0.687  10.387 -0.0664 -1.1833  0.5681
  174SOPE   O3119733   1.971   0.703  10.172 -0.5340 -0.5706 -0.2602
  174SOPE   C3119734   2.052   0.774  10.095  0.0705  0.6373  0.3268
  174SOPE   O3219735   2.147   0.843  10.127  0.5374  0.3111 -0.6881
  174SOPE   C3219736   2.003   0.778   9.947 -0.1963  0.3983 -0.0883
  174SOPE   H2X19737   1.892   0.788   9.955 -0.1308  1.2488 -0.1323
  174SOPE   H2Y19738   2.033   0.685   9.896  1.8760  0.1709  1.4109
  174SOPE   C2319739   2.100   0.255   9.935 -0.5037 -0.1367  0.5684
  174SOPE   H3R19740   2.024   0.174   9.928 -2.4668  1.6697 -0.1825
  174SOPE   H3S19741   2.168   0.222   9.853  0.5466  0.7339  1.0802
  174SOPE   C2419742   2.038   0.391   9.879 -0.4977  0.9745 -0.5048
  174SOPE   H4R19743   1.946   0.421   9.933  0.8622  1.7163  1.5465
  174SOPE   H4S19744   2.110   0.474   9.898  1.8988 -1.0755 -0.0400
  174SOPE   C2519745   2.026   0.388   9.721 -0.0746  0.1101  0.1401
  174SOPE   H5R19746   2.129   0.412   9.688 -0.3192  0.0040 -0.7257
  174SOPE   H5S19747   1.997   0.283   9.699 -0.9844  0.4603 -0.3906
  174SOPE   C2619748   1.926   0.493   9.666  0.2527 -0.3070  0.1835
  174SOPE   H6R19749   1.819   0.480   9.693  0.4897  0.1137  1.3989
  174SOPE   H6S19750   1.953   0.593   9.706 -2.0833  0.6099 -0.3922
  174SOPE   C2719751   1.943   0.512   9.512  0.2547 -0.0339  0.1140
  174SOPE   H7R19752   2.051   0.527   9.490  0.1881  1.0814  0.4983
  174SOPE   H7S19753   1.910   0.413   9.475  1.3058 -0.5549  0.5258
  174SOPE   C2819754   1.857   0.633   9.453  0.1904 -0.6824 -0.4428
  174SOPE   H8R19755   1.751   0.607   9.471  0.5197 -0.8731  1.4227
  174SOPE   H8S19756   1.875   0.729   9.507  2.1455 -0.6991 -0.9884
  174SOPE   C2919757   1.887   0.653   9.306 -0.5136 -0.1610 -0.1466
  174SOPE   H9119758   1.989   0.691   9.289 -0.4960 -0.0148  0.2822
  174SOPE  C21019759   1.807   0.636   9.202 -0.4594 -0.9006 -0.1734
  174SOPE  H10119760   1.854   0.654   9.104  0.4618 -0.4720  0.3299
  174SOPE  C21119761   1.665   0.593   9.201  0.0474 -0.3338  0.2979
  174SOPE  H11R19762   1.594   0.676   9.222 -0.8772 -0.6994 -1.2215
  174SOPE  H11S19763   1.658   0.510   9.275  1.3311 -2.6907 -2.0202
  174SOPE  C21219764   1.621   0.542   9.060  0.4019  0.0290 -0.9185
  174SOPE  H12R19765   1.516   0.508   9.068 -0.3163  2.1493 -0.6904
  174SOPE  H12S19766   1.684   0.459   9.020  2.1762  1.7127 -1.7894
  174SOPE  C21319767   1.610   0.646   8.950  0.3119  0.0213  0.0556
  174SOPE  H13R19768   1.707   0.691   8.921 -0.2123 -0.1166 -2.1245
  174SOPE  H13S19769   1.552   0.728   8.998 -0.2453  0.5116 -1.3911
  174SOPE  C21419770   1.516   0.605   8.833  0.3924 -0.2907  0.4142
  174SOPE  H14R19771   1.474   0.695   8.784 -1.3969 -0.9216  0.7124
  174SOPE  H14S19772   1.428   0.547   8.867 -0.9467  0.6280 -1.3593
  174SOPE  C21519773   1.589   0.525   8.730  0.3904  0.0393 -0.4233
  174SOPE  H15R19774   1.652   0.450   8.783 -1.0108 -0.7502  0.1932
  174SOPE  H15S19775   1.655   0.590   8.668  0.9061  0.4075  0.4871
  174SOPE  C21619776   1.497   0.457   8.632 -0.0174 -0.0153  0.4860
  174SOPE  H16R19777   1.532   0.452   8.526  0.3275 -1.6220  0.6451
  174SOPE  H16S19778   1.396   0.502   8.639 -0.1835 -0.0132 -1.4247
  174SOPE  C21719779   1.473   0.314   8.674  0.0867 -0.3201  0.3651
  174SOPE  H17R19780   1.460   0.298   8.783 -0.9645  2.0966  0.6504
  174SOPE  H17S19781   1.563   0.252   8.651  0.1541 -0.3983  0.8303
  174SOPE  C21819782   1.353   0.249   8.595 -0.0232  0.5132 -0.8953
  174SOPE  H18R19783   1.365   0.139   8.607  1.9982  0.6671 -1.2441
  174SOPE  H18S19784   1.338   0.273   8.488  1.9532  0.9019 -1.1267
  174SOPE  H18T19785   1.260   0.271   8.652  1.8495  0.3142  2.5062
  174SOPE   C3319786   2.066   0.899   9.863  0.6456 -0.8426 -0.0657
  174SOPE   H3X19787   2.171   0.869   9.843  0.6779 -1.6625  1.1585
  174SOPE   H3Y19788   2.057   0.997   9.914 -1.2541 -0.2747 -1.3759
  174SOPE   C3419789   1.987   0.918   9.730  0.0303 -0.2756  0.4940
  174SOPE   H4X19790   1.886   0.962   9.745  0.0468 -0.2595  0.5590
  174SOPE   H4Y19791   1.969   0.820   9.682 -2.5370  2.1170 -4.1589
  174SOPE   C3519792   2.078   1.000   9.631  0.5139 -0.2128 -0.0491
  174SOPE   H5X19793   2.183   0.968   9.621  0.9046  0.9738  0.0525
  174SOPE   H5Y19794   2.081   1.105   9.666  0.0472 -0.0917 -0.3554
  174SOPE   C3619795   2.021   1.015   9.484  0.7365 -0.5854  0.1894
  174SOPE   H6X19796   1.928   1.075   9.494  1.5143  0.4669  1.6029
  174SOPE   H6Y19797   1.996   0.916   9.442 -0.0376 -0.4862  0.4120
  174SOPE   C3719798   2.112   1.087   9.385  0.2133 -0.1567 -0.2449
  174SOPE   H7X19799   2.207   1.029   9.383  2.4691  3.2022 -2.0491
  174SOPE   H7Y19800   2.141   1.181   9.438  1.5016  0.0302 -1.2238
  174SOPE   C3819801   2.048   1.115   9.250 -0.1516 -0.4901  0.0521
  174SOPE   H8X19802   2.117   1.188   9.201 -0.2239 -0.7155 -0.3904
  174SOPE   H8Y19803   1.953   1.171   9.266 -1.0168 -2.0855  0.6101
  174SOPE   C3919804   2.048   0.990   9.164  0.1867  0.2676 -0.0293
  174SOPE   H9X19805   1.977   0.918   9.211 -1.3688  0.1794 -2.3453
  174SOPE   H9Y19806   2.153   0.955   9.158  0.9641  2.6889 -2.1885
  174SOPE  C31019807   2.007   1.027   9.026 -0.4496  0.2161 -0.4242
  174SOPE  H10X19808   2.066   1.113   8.989 -0.2272  0.7241  1.0160
  174SOPE  H10Y19809   1.904   1.066   9.022 -0.1216  1.4505  1.6716
  174SOPE  C31119810   2.005   0.902   8.930 -0.5931 -0.3826 -0.3636
  174SOPE  H11X19811   1.941   0.827   8.981 -1.2778  0.5524  0.1775
  174SOPE  H11Y19812   2.104   0.852   8.923 -0.0611  0.6449 -0.3541
  174SOPE  C31219813   1.954   0.927   8.780  0.3300 -0.5749  0.1548
  174SOPE  H12X19814   2.014   1.014   8.746 -0.4751 -0.0843 -0.0522
  174SOPE  H12Y19815   1.847   0.955   8.791  0.3283  0.4051 -1.9630
  174SOPE  C31319816   1.967   0.794   8.692  0.1131  0.6005 -1.1774
  174SOPE  H13X19817   1.924   0.710   8.751  0.0153  1.8028  0.5657
  174SOPE  H13Y19818   2.076   0.769   8.694 -0.2883 -1.2381 -0.6807
  174SOPE  C31419819   1.921   0.798   8.552 -0.3675  0.1123  0.0589
  174SOPE  H14X19820   1.979   0.875   8.497 -1.1773  0.7655  0.1073
  174SOPE  H14Y19821   1.814   0.827   8.554 -0.7541 -1.2757  0.3032
  174SOPE  C31519822   1.934   0.663   8.483  0.1203  0.6043 -0.9072
  174SOPE  H15X19823   1.873   0.578   8.522  0.6633  0.0595 -1.2237
  174SOPE  H15Y19824   2.041   0.636   8.473  0.1538  1.4144 -3.2677
  174SOPE  C31619825   1.872   0.669   8.339 -0.3820  0.7253  0.4926
  174SOPE  H16X19826   1.908   0.765   8.296 -0.5875 -0.1396 -1.7450
  174SOPE  H16Y19827   1.761   0.666   8.333 -0.3243 -0.5835 -0.5160
  174SOPE  C31719828   1.915   0.547   8.255 -0.5215 -0.5816 -0.3234
  174SOPE  H17X19829   1.865   0.450   8.277  0.9692 -0.7853  2.6126
  174SOPE  H17Y19830   2.023   0.544   8.280  0.0557  0.7006 -2.3763
  174SOPE  C31819831   1.900   0.578   8.102 -0.1882  0.2007 -0.5933
  174SOPE  H18X19832   1.796   0.609   8.080  0.5016  0.9459 -3.1565
  174SOPE  H18Y19833   1.930   0.494   8.035 -1.0652  0.1841 -0.9685
  174SOPE  H18Z19834   1.966   0.665   8.080  1.5330 -0.2401  2.3206
  175SOPE     N19835   5.015   6.152  10.373 -0.1187  0.6135 -0.5309
  175SOPE   HN119836   5.034   6.214  10.455 -1.0871 -1.9002  1.7548
  175SOPE   HN219837   4.944   6.092  10.419  0.5635  1.2186  1.4259
  175SOPE   HN319838   5.091   6.082  10.361 -2.0694 -1.6885 -0.3106
  175SOPE   C1219839   4.956   6.211  10.247  0.0705  0.3377 -0.3036
  175SOPE  H12A19840   5.004   6.305  10.212 -0.1044 -0.6863 -3.7731
  175SOPE  H12B19841   4.850   6.230  10.272  0.5723  0.4922  1.8544
  175SOPE   C1119842   4.956   6.102  10.133  0.9952  0.3324 -0.1229
  175SOPE  H11A19843   5.062   6.069  10.127  0.7984 -0.3917  0.2744
  175SOPE  H11B19844   4.919   6.161  10.046 -1.5568  0.4003  0.9054
  175SOPE     P19845   4.794   5.880  10.118 -0.3580  0.2278 -0.0814
  175SOPE   O1319846   4.695   5.831  10.220  0.1308  0.1665 -0.0694
  175SOPE   O1419847   4.896   5.781  10.075  0.1950 -0.5331 -0.2095
  175SOPE   O1219848   4.870   6.002  10.183  0.3259  0.0230 -0.5915
  175SOPE   O1119849   4.719   5.951   9.997 -0.4152 -0.4206  0.3285
  175SOPE    C119850   4.754   5.920   9.865  0.2910 -0.0368 -0.5940
  175SOPE    HA19851   4.769   5.810   9.851  2.0534  0.2572 -1.2652
  175SOPE    HB19852   4.854   5.956   9.834  0.8638 -2.1585 -1.4498
  175SOPE    C219853   4.650   5.990   9.772  0.0102 -0.4766  0.2234
  175SOPE    HS19854   4.554   5.934   9.762 -0.3946  0.5638 -2.6418
  175SOPE   O2119855   4.719   6.011   9.645  0.3241 -0.2840 -0.2974
  175SOPE   C2119856   4.706   5.901   9.564  0.0190  0.4519 -0.8445
  175SOPE   O2219857   4.677   5.790   9.606  0.1617  0.2911 -0.3741
  175SOPE   C2219858   4.742   5.934   9.418 -0.2478 -0.7554 -0.5077
  175SOPE   H2R19859   4.840   5.986   9.411 -0.0465 -1.3211 -2.1185
  175SOPE   H2S19860   4.667   6.009   9.383 -0.6557 -0.8732  0.0915
  175SOPE    C319861   4.608   6.133   9.821 -0.0490  0.1041 -0.5802
  175SOPE    HX19862   4.704   6.186   9.841  0.8471 -1.0347 -1.7172
  175SOPE    HY19863   4.558   6.128   9.920 -0.3821 -0.8052 -0.7877
  175SOPE   O3119864   4.523   6.199   9.726  0.2224  0.3085  0.0948
  175SOPE   C3119865   4.544   6.327   9.709  0.0551  0.8428  0.2842
  175SOPE   O3219866   4.642   6.386   9.757 -0.0896  0.4508  0.0947
  175SOPE   C3219867   4.443   6.388   9.605  0.2090 -0.1318  0.0522
  175SOPE   H2X19868   4.379   6.462   9.657  1.0241  0.4294  0.2785
  175SOPE   H2Y19869   4.388   6.305   9.556  0.8841  0.1202 -1.1659
  175SOPE   C2319870   4.731   5.812   9.323 -0.3490  0.4509 -0.0678
  175SOPE   H3R19871   4.639   5.758   9.353 -1.2982  1.5534 -0.9363
  175SOPE   H3S19872   4.815   5.739   9.321  0.1434  0.9994 -0.0851
  175SOPE   C2419873   4.717   5.871   9.182  0.1401  0.1454  0.2532
  175SOPE   H4R19874   4.620   5.923   9.170 -0.6334 -0.8954  1.7094
  175SOPE   H4S19875   4.801   5.939   9.154  1.1653 -0.9951  0.4511
  175SOPE   C2519876   4.750   5.752   9.095 -0.0354 -0.0455 -0.5003
  175SOPE   H5R19877   4.860   5.735   9.094  0.0827  0.5974 -1.8498
  175SOPE   H5S19878   4.682   5.671   9.128 -3.1629  2.5703  0.1023
  175SOPE   C2619879   4.714   5.793   8.949  0.1551  0.8424 -0.6355
  175SOPE   H6R19880   4.612   5.837   8.951  0.9384  2.9065 -2.0875
  175SOPE   H6S19881   4.788   5.866   8.908  0.2849  1.9243  1.4017
  175SOPE   C2719882   4.700   5.668   8.856 -0.2647  0.0876  0.9410
  175SOPE   H7R19883   4.794   5.609   8.866  0.6573  0.6861 -2.9040
  175SOPE   H7S19884   4.622   5.602   8.898 -0.0966 -0.3328  0.5916
  175SOPE   C2819885   4.673   5.706   8.712  0.3480  0.4014  0.2471
  175SOPE   H8R19886   4.612   5.625   8.667  0.8519  0.1743 -0.0361
  175SOPE   H8S19887   4.601   5.790   8.717 -1.1750 -0.8585  0.4035
  175SOPE   C2919888   4.797   5.737   8.627  0.1116 -0.2054  0.2144
  175SOPE   H9119889   4.867   5.808   8.673  0.5624 -0.9293  0.6597
  175SOPE  C21019890   4.830   5.692   8.507  0.3789 -0.6344  0.3045
  175SOPE  H10119891   4.921   5.730   8.459 -0.0665  1.1515  0.7984
  175SOPE  C21119892   4.755   5.587   8.425 -0.4339 -0.6923 -0.1002
  175SOPE  H11R19893   4.669   5.638   8.376 -0.2845 -1.7163 -1.4958
  175SOPE  H11S19894   4.714   5.506   8.488 -1.5398 -0.4287 -0.4692
  175SOPE  C21219895   4.839   5.525   8.310  0.3627  0.9482 -0.2429
  175SOPE  H12R19896   4.800   5.422   8.292 -1.5665  1.2293  1.8236
  175SOPE  H12S19897   4.945   5.509   8.341  0.9274 -1.5939 -2.9970
  175SOPE  C21319898   4.856   5.600   8.176  1.0254 -0.2971 -0.1126
  175SOPE  H13R19899   4.889   5.705   8.192  0.5068 -0.1646  0.1035
  175SOPE  H13S19900   4.767   5.597   8.110  0.6245 -0.0984  0.4135
  175SOPE  C21419901   4.974   5.551   8.086  0.0809 -0.3755 -0.1589
  175SOPE  H14R19902   5.062   5.542   8.154 -0.8480  0.3945  1.1837
  175SOPE  H14S19903   4.990   5.628   8.007  1.1790 -0.8172 -0.3919
  175SOPE  C21519904   4.945   5.412   8.031 -0.1790  0.7342 -0.0029
  175SOPE  H15R19905   4.846   5.416   7.980 -0.8520 -0.3837  1.1463
  175SOPE  H15S19906   4.948   5.332   8.109  1.4980 -0.0693 -0.8349
  175SOPE  C21619907   5.049   5.362   7.927  0.0575 -0.0033 -0.4751
  175SOPE  H16R19908   5.151   5.338   7.962  0.2882 -0.2281 -1.2825
  175SOPE  H16S19909   5.064   5.438   7.848  1.0354 -2.2846 -2.6177
  175SOPE  C21719910   5.000   5.225   7.872 -0.4211  0.9620  0.7074
  175SOPE  H17R19911   4.895   5.233   7.837 -0.5624  0.7544  1.0753
  175SOPE  H17S19912   5.016   5.150   7.952 -0.1687  1.0985  0.7862
  175SOPE  C21819913   5.081   5.173   7.760  0.4872 -0.2257  0.4182
  175SOPE  H18R19914   5.183   5.166   7.803  0.6248  0.8425  0.2878
  175SOPE  H18S19915   5.086   5.246   7.676  0.9133  0.8451  1.3499
  175SOPE  H18T19916   5.055   5.073   7.719  1.6832  0.6867 -2.9457
  175SOPE   C3319917   4.524   6.482   9.511 -0.2351  0.2762  0.1452
  175SOPE   H3X19918   4.604   6.534   9.569 -0.8900  1.3244  0.1277
  175SOPE   H3Y19919   4.454   6.556   9.466 -1.4495 -1.2527 -0.5880
  175SOPE   C3419920   4.595   6.396   9.395  0.0663 -0.3683 -1.1763
  175SOPE   H4X19921   4.607   6.290   9.426 -1.5479  0.0892  1.2368
  175SOPE   H4Y19922   4.700   6.432   9.404 -0.9230  2.3304  1.0652
  175SOPE   C3519923   4.544   6.432   9.254  0.1515 -0.4056  0.9226
  175SOPE   H5X19924   4.553   6.542   9.249  0.6510 -0.4939 -0.9463
  175SOPE   H5Y19925   4.441   6.395   9.236 -0.9321  0.9786  3.7404
  175SOPE   C3619926   4.633   6.356   9.158  0.2846 -0.0708  0.2749
  175SOPE   H6X19927   4.621   6.249   9.185 -1.0514 -0.0414 -0.1326
  175SOPE   H6Y19928   4.734   6.402   9.156 -1.1199  3.3668  1.2785
  175SOPE   C3719929   4.593   6.378   9.006 -0.3520  0.7304  0.3613
  175SOPE   H7X19930   4.622   6.478   8.967 -0.6560  0.1979 -1.3176
  175SOPE   H7Y19931   4.485   6.360   8.987  0.1578 -0.1341 -2.0968
  175SOPE   C3819932   4.673   6.271   8.920  0.2363 -0.5298 -0.7330
  175SOPE   H8X19933   4.655   6.170   8.961 -1.2255  0.0082  0.0455
  175SOPE   H8Y19934   4.782   6.279   8.941 -0.0703  0.2894  0.7067
  175SOPE   C3919935   4.649   6.272   8.765  0.3150  0.2042 -0.2885
  175SOPE   H9X19936   4.541   6.271   8.740  0.3065 -0.6178 -0.2414
  175SOPE   H9Y19937   4.701   6.183   8.722  1.7578  0.5434  0.6504
  175SOPE  C31019938   4.718   6.397   8.701  0.1212  0.2785 -0.4187
  175SOPE  H10X19939   4.829   6.383   8.706  0.2210  0.1605 -2.0862
  175SOPE  H10Y19940   4.692   6.494   8.747 -0.0848  0.9538 -1.8814
  175SOPE  C31119941   4.700   6.408   8.545  0.1078 -0.7683  0.8558
  175SOPE  H11X19942   4.589   6.404   8.534  0.2125 -0.3317 -0.5806
  175SOPE  H11Y19943   4.737   6.314   8.500 -2.7256 -1.6668  0.2139
  175SOPE  C31219944   4.745   6.540   8.482 -0.4367  0.0606  0.3475
  175SOPE  H12X19945   4.855   6.553   8.469 -0.3965 -1.0450 -0.5901
  175SOPE  H12Y19946   4.705   6.624   8.542  1.3791  0.2251  1.4044
  175SOPE  C31319947   4.691   6.558   8.334  0.1231 -0.2690 -0.5693
  175SOPE  H13X19948   4.721   6.660   8.300 -1.9091  1.0074  1.2102
  175SOPE  H13Y19949   4.580   6.563   8.340  0.1926 -0.2262  1.4230
  175SOPE  C31419950   4.723   6.451   8.230 -0.7190  0.8121  0.2295
  175SOPE  H14X19951   4.655   6.487   8.149 -0.4112  2.9884  0.8555
  175SOPE  H14Y19952   4.684   6.357   8.276 -0.5318 -0.2819 -1.7701
  175SOPE  C31519953   4.871   6.451   8.192 -0.0201 -0.1879  0.9100
  175SOPE  H15X19954   4.938   6.450   8.280 -0.0958  1.2956  1.0218
  175SOPE  H15Y19955   4.879   6.552   8.146  0.5459  0.3686  2.1680
  175SOPE  C31619956   4.911   6.343   8.084 -0.9091  0.0821  0.4909
  175SOPE  H16X19957   4.836   6.329   8.003  0.0018 -0.3166 -0.2999
  175SOPE  H16Y19958   4.925   6.240   8.124  0.5346  0.2706  0.5093
  175SOPE  C31719959   5.042   6.394   8.027  0.0513 -0.0057  0.0440
  175SOPE  H17X19960   5.107   6.413   8.115 -0.9565 -2.6867  1.4868
  175SOPE  H17Y19961   5.016   6.488   7.974 -0.9036  0.4491  1.2786
  175SOPE  C31819962   5.109   6.292   7.935 -0.6015  0.2868  0.1938
  175SOPE  H18X19963   5.204   6.335   7.897  1.0776 -0.1093  3.5509
  175SOPE  H18Y19964   5.040   6.260   7.854 -1.3531 -0.6045  1.1593
  175SOPE  H18Z19965   5.143   6.201   7.989 -0.4187  0.8635  1.0689
  176SOPE     N19966   4.432   5.876  10.235  0.7714  0.4351 -0.2286
  176SOPE   HN119967   4.533   5.858  10.216  0.6658 -0.5021  0.0719
  176SOPE   HN219968   4.411   5.960  10.176  0.3663  0.4443 -0.0736
  176SOPE   HN319969   4.412   5.912  10.330 -2.7689 -0.7448 -0.3856
  176SOPE   C1219970   4.347   5.758  10.209  0.4948 -0.5507  0.4203
  176SOPE  H12A19971   4.394   5.705  10.123 -0.7158 -1.6359  0.3913
  176SOPE  H12B19972   4.246   5.795  10.183  0.5849  0.2334  1.1486
  176SOPE   C1119973   4.344   5.667  10.337 -0.2695  0.3216  0.5935
  176SOPE  H11A19974   4.318   5.722  10.430  2.0682 -0.0926  1.5542
  176SOPE  H11B19975   4.452   5.650  10.358 -0.1120  2.3154  1.6531
  176SOPE     P19976   4.145   5.503  10.389 -0.3287 -0.4494  0.1446
  176SOPE   O1319977   4.060   5.621  10.399  0.3858  0.1995  0.0477
  176SOPE   O1419978   4.190   5.439  10.513 -0.4414 -0.0566  0.5068
  176SOPE   O1219979   4.279   5.547  10.310  0.5697 -0.0808  0.1225
  176SOPE   O1119980   4.086   5.401  10.284  0.0759 -0.0121 -0.0489
  176SOPE    C119981   4.118   5.406  10.147 -0.2301  0.5920  0.3414
  176SOPE    HA19982   4.046   5.341  10.094  1.1445 -0.3430 -0.4406
  176SOPE    HB19983   4.219   5.362  10.130  1.1431  2.2424  3.3355
  176SOPE    C219984   4.093   5.531  10.068 -0.1287  0.2679  0.4931
  176SOPE    HS19985   4.162   5.604  10.115 -0.6638  1.1217 -0.0256
  176SOPE   O2119986   3.957   5.566  10.088 -0.1152  0.2354  0.6685
  176SOPE   C2119987   3.925   5.690  10.063 -0.1264 -0.1377 -0.7217
  176SOPE   O2219988   4.002   5.788  10.052 -0.8302  1.2031  0.0909
  176SOPE   C2219989   3.776   5.694  10.042  0.8570 -0.2174 -0.1667
  176SOPE   H2R19990   3.731   5.685  10.143  3.3413  2.1649  1.2779
  176SOPE   H2S19991   3.742   5.606   9.984 -1.8574  0.0291  0.8724
  176SOPE    C319992   4.136   5.507   9.923 -0.8122  0.0507 -0.0994
  176SOPE    HX19993   4.097   5.410   9.885  0.8882 -1.4658  1.8488
  176SOPE    HY19994   4.245   5.488   9.920 -1.0688 -1.5418 -0.5217
  176SOPE   O3119995   4.097   5.621   9.837  0.0174  0.2374  0.1514
  176SOPE   C3119996   4.188   5.714   9.828  0.3448 -0.0343 -0.1345
  176SOPE   O3219997   4.295   5.716   9.891 -0.1453  0.1093 -0.2628
  176SOPE   C3219998   4.142   5.813   9.717  0.0272  0.5330 -0.5880
  176SOPE   H2X19999   4.100   5.898   9.774 -0.7961 -0.5005  0.3922
  176SOPE   H2Y20000   4.074   5.765   9.643  1.0919 -0.5792 -0.8647
  176SOPE   C2320001   3.720   5.831   9.995 -0.0567 -0.6688 -0.3101
  176SOPE   H3R20002   3.765   5.909  10.060 -5.4777  3.9149 -1.2750
  176SOPE   H3S20003   3.609   5.843   9.995 -0.0961 -0.5953 -2.6006
  176SOPE   C2420004   3.757   5.863   9.848  0.1470 -1.0338  0.1571
  176SOPE   H4R20005   3.763   5.974   9.849 -1.5203 -0.8944 -1.2398
  176SOPE   H4S20006   3.861   5.831   9.824  0.0146 -1.6720  0.4300
  176SOPE   C2520007   3.666   5.831   9.728 -0.3538 -0.3754 -0.6276
  176SOPE   H5R20008   3.655   5.721   9.720 -2.0877 -0.2440 -0.3228
  176SOPE   H5S20009   3.570   5.873   9.765  0.3076 -0.7966  1.7397
  176SOPE   C2620010   3.695   5.898   9.593  0.5060  0.2675  0.5279
  176SOPE   H6R20011   3.605   5.909   9.530 -0.0392  5.4181  1.7663
  176SOPE   H6S20012   3.735   6.000   9.613 -0.6917  0.6775  0.8957
  176SOPE   C2720013   3.809   5.825   9.516 -0.1558 -0.3766  0.4997
  176SOPE   H7R20014   3.896   5.837   9.584 -0.2703 -0.7636  0.7154
  176SOPE   H7S20015   3.794   5.716   9.503 -3.2407 -0.1487  1.2253
  176SOPE   C2820016   3.839   5.895   9.384  0.6544 -0.6012  0.7496
  176SOPE   H8R20017   3.888   5.988   9.418 -0.0891 -0.0534  0.3440
  176SOPE   H8S20018   3.915   5.832   9.331  0.0490 -1.7646  1.2334
  176SOPE   C2920019   3.721   5.929   9.308  0.1174  0.0980  0.8291
  176SOPE   H9120020   3.662   6.014   9.345  0.2800  0.4348  0.3325
  176SOPE  C21020021   3.675   5.857   9.208  0.1231 -0.0272 -0.3070
  176SOPE  H10120022   3.600   5.910   9.148  0.4830  1.9826  0.9252
  176SOPE  C21120023   3.744   5.736   9.146 -0.0162 -0.2286 -0.1540
  176SOPE  H11R20024   3.686   5.642   9.157 -0.1985 -0.1066 -0.0654
  176SOPE  H11S20025   3.837   5.709   9.200 -0.9062 -2.4678  0.3783
  176SOPE  C21220026   3.774   5.749   8.992  0.4921 -0.0515  0.2046
  176SOPE  H12R20027   3.840   5.663   8.971  0.8357  0.7811 -2.4855
  176SOPE  H12S20028   3.837   5.841   8.985 -0.3701  0.4242 -2.3269
  176SOPE  C21320029   3.649   5.744   8.902  0.0655 -0.1783 -0.4492
  176SOPE  H13R20030   3.578   5.828   8.919  1.7741  1.4257 -1.0211
  176SOPE  H13S20031   3.595   5.651   8.933  0.4447 -1.2240 -2.7193
  176SOPE  C21420032   3.677   5.739   8.755 -0.0376  0.2487  0.2132
  176SOPE  H14R20033   3.740   5.650   8.734 -2.2684 -1.4516  0.3284
  176SOPE  H14S20034   3.736   5.827   8.723 -0.8071  0.3161 -1.1009
  176SOPE  C21520035   3.551   5.726   8.679 -0.2302 -0.0357 -0.3872
  176SOPE  H15R20036   3.470   5.800   8.698  0.1901  0.6581 -1.2189
  176SOPE  H15S20037   3.499   5.630   8.697  1.8574 -1.0540  0.5924
  176SOPE  C21620038   3.583   5.738   8.530 -0.1912 -0.7804 -0.6060
  176SOPE  H16R20039   3.620   5.646   8.479 -0.2854 -1.4164  0.4504
  176SOPE  H16S20040   3.663   5.815   8.524 -2.1000  1.3407  0.1014
  176SOPE  C21720041   3.459   5.793   8.450 -0.3449  0.6482 -0.4535
  176SOPE  H17R20042   3.428   5.891   8.490 -0.0737  1.7056 -2.6828
  176SOPE  H17S20043   3.372   5.723   8.456 -1.3479  1.9577  1.2488
  176SOPE  C21820044   3.498   5.809   8.302  0.3243 -0.1785  0.3610
  176SOPE  H18R20045   3.411   5.854   8.251 -0.2561 -1.0077  0.5915
  176SOPE  H18S20046   3.514   5.707   8.261 -3.4872 -0.1920 -1.5427
  176SOPE  H18T20047   3.579   5.883   8.288  0.2355  0.2411  1.8769
  176SOPE   C3320048   4.266   5.860   9.625 -0.2631 -0.6627  0.0430
  176SOPE   H3X20049   4.285   5.800   9.534 -0.1960 -0.4104 -0.1128
  176SOPE   H3Y20050   4.354   5.860   9.692 -0.1146  0.8759 -0.1093
  176SOPE   C3420051   4.233   6.009   9.587  0.0738 -0.0802 -0.5448
  176SOPE   H4X20052   4.227   6.083   9.669 -1.8437 -0.5973 -0.1508
  176SOPE   H4Y20053   4.128   6.010   9.551 -0.6158 -0.5181  1.3363
  176SOPE   C3520054   4.320   6.067   9.471  0.5080 -0.3264 -0.1118
  176SOPE   H5X20055   4.427   6.084   9.498  0.5572  0.7837 -0.9255
  176SOPE   H5Y20056   4.298   6.170   9.435 -1.2702 -0.2833  1.0112
  176SOPE   C3620057   4.316   5.976   9.354  0.6626  0.3014 -0.1759
  176SOPE   H6X20058   4.215   5.929   9.349  1.4161 -1.4872  0.6139
  176SOPE   H6Y20059   4.383   5.888   9.362 -0.2445 -0.3450  0.4973
  176SOPE   C3720060   4.346   6.051   9.217  0.1737  0.3653  0.8029
  176SOPE   H7X20061   4.457   6.058   9.216  0.0714  2.8221 -0.1305
  176SOPE   H7Y20062   4.312   6.157   9.225  0.5369  0.7371 -1.7414
  176SOPE   C3820063   4.306   5.969   9.091 -0.5412 -0.1002  0.2896
  176SOPE   H8X20064   4.198   5.945   9.089 -0.1609 -2.3088  2.0394
  176SOPE   H8Y20065   4.348   5.867   9.098 -0.8308 -0.1801  0.8153
  176SOPE   C3920066   4.353   6.037   8.952  0.1249  0.3187 -0.7554
  176SOPE   H9X20067   4.464   6.035   8.959  0.1810 -2.7540 -1.2468
  176SOPE   H9Y20068   4.310   6.139   8.941  0.2170  0.3981 -0.3969
  176SOPE  C31020069   4.304   5.963   8.826 -0.6932  1.0440 -0.9193
  176SOPE  H10X20070   4.194   5.951   8.826 -0.5663 -0.4796 -0.3392
  176SOPE  H10Y20071   4.344   5.859   8.834  0.5778  1.3989 -2.1482
  176SOPE  C31120072   4.346   6.023   8.695 -0.4983 -0.6754  0.1808
  176SOPE  H11X20073   4.454   6.002   8.677 -0.2553 -0.4973  1.3653
  176SOPE  H11Y20074   4.352   6.133   8.712  0.0686 -0.2990 -2.0407
  176SOPE  C31220075   4.251   5.999   8.576  0.0936  0.4028  0.6546
  176SOPE  H12X20076   4.298   6.041   8.484 -0.0282 -0.8053  0.0247
  176SOPE  H12Y20077   4.159   6.056   8.600 -0.7382 -0.9543  0.8015
  176SOPE  C31320078   4.202   5.855   8.554  0.5862 -0.0160 -0.3180
  176SOPE  H13X20079   4.176   5.803   8.649  0.7385 -0.7487 -0.6726
  176SOPE  H13Y20080   4.278   5.788   8.510  2.6368  2.1592 -0.2314
  176SOPE  C31420081   4.079   5.848   8.467 -0.3729  0.0917 -0.2613
  176SOPE  H14X20082   4.111   5.873   8.364 -1.2251 -0.6426 -0.7160
  176SOPE  H14Y20083   3.998   5.913   8.507 -1.9092 -0.9651 -1.5409
  176SOPE  C31520084   4.029   5.703   8.467  0.8576  0.3578  1.0957
  176SOPE  H15X20085   3.986   5.689   8.569  0.3165 -0.9439  0.7195
  176SOPE  H15Y20086   4.104   5.624   8.445 -0.0870 -0.5983  1.2384
  176SOPE  C31620087   3.910   5.693   8.370  0.7023 -0.3759 -0.3260
  176SOPE  H16X20088   3.846   5.784   8.375 -0.3599 -0.9514 -2.2962
  176SOPE  H16Y20089   3.846   5.607   8.400  1.6535 -0.1503  2.7226
  176SOPE  C31720090   3.936   5.675   8.223  0.1506  1.2965 -0.5454
  176SOPE  H17X20091   3.993   5.580   8.215 -2.8446 -0.8455  1.2899
  176SOPE  H17Y20092   3.996   5.762   8.189 -1.7544  1.9872 -2.3873
  176SOPE  C31820093   3.807   5.665   8.143 -0.5946  0.2104 -0.1897
  176SOPE  H18X20094   3.744   5.585   8.187  1.2601 -1.7796 -0.9734
  176SOPE  H18Y20095   3.824   5.645   8.035  1.6876 -1.5601  0.4129
  176SOPE  H18Z20096   3.755   5.761   8.163  1.3401  1.2097  0.2328
  177SOPE     N20097   1.977   4.404  10.720  0.1958 -0.4602 -0.1139
  177SOPE   HN120098   2.048   4.471  10.755  0.0634 -0.0010 -0.7005
  177SOPE   HN220099   1.999   4.313  10.765 -0.7684 -0.8963 -0.4801
  177SOPE   HN320100   1.965   4.382  10.619 -1.0919  1.1054 -0.3450
  177SOPE   C1220101   1.841   4.454  10.771  0.0669  0.2088  0.6362
  177SOPE  H12A20102   1.849   4.456  10.882  2.8933 -1.7653  0.5890
  177SOPE  H12B20103   1.759   4.388  10.736 -0.6484  1.7538 -0.7464
  177SOPE   C1120104   1.815   4.592  10.705  0.0146 -0.7857  0.0540
  177SOPE  H11A20105   1.909   4.648  10.726 -0.7848  0.6594 -0.0530
  177SOPE  H11B20106   1.720   4.637  10.743 -0.2759 -1.8502  0.6377
  177SOPE     P20107   1.777   4.682  10.474 -0.1327  0.2955  0.1528
  177SOPE   O1320108   1.861   4.799  10.508  0.5248  0.3687  0.5085
  177SOPE   O1420109   1.632   4.704  10.493  0.1829 -0.5376 -0.0341
  177SOPE   O1220110   1.808   4.561  10.567 -0.0936 -0.1581  0.0796
  177SOPE   O1120111   1.798   4.632  10.324  0.0728 -0.2166  0.4462
  177SOPE    C120112   1.921   4.575  10.285 -0.2395 -0.6070  0.3560
  177SOPE    HA20113   1.896   4.468  10.267  0.9500 -0.7509 -0.5304
  177SOPE    HB20114   2.007   4.591  10.353 -0.1102 -0.7063  0.2164
  177SOPE    C220115   1.961   4.629  10.145 -1.3456 -0.2421  0.0980
  177SOPE    HS20116   1.983   4.738  10.154  0.8704 -0.4748 -1.6971
  177SOPE   O2120117   1.863   4.600  10.048  0.2086 -0.0149 -0.4161
  177SOPE   C2120118   1.818   4.707   9.988  1.0046  0.4855  0.1037
  177SOPE   O2220119   1.837   4.819  10.023 -0.1901  0.1673  0.3106
  177SOPE   C2220120   1.734   4.662   9.876 -0.2412  0.0942 -0.1305
  177SOPE   H2R20121   1.681   4.748   9.830 -0.6198 -0.1401 -0.1303
  177SOPE   H2S20122   1.657   4.589   9.909  1.2798 -1.9018 -0.7703
  177SOPE    C320123   2.103   4.583  10.094  0.6643  0.1627 -0.2666
  177SOPE    HX20124   2.108   4.473  10.086 -1.0960  0.1410 -1.7431
  177SOPE    HY20125   2.166   4.616  10.179 -0.8889 -1.2844  1.5435
  177SOPE   O3120126   2.127   4.626   9.958  0.1898  0.2787 -0.3797
  177SOPE   C3120127   2.240   4.697   9.940  0.7230 -0.5127  0.0133
  177SOPE   O3220128   2.317   4.710  10.035  0.4986 -0.8290  0.1432
  177SOPE   C3220129   2.268   4.763   9.800 -0.5958  0.4650 -0.5066
  177SOPE   H2X20130   2.374   4.796   9.807  0.1400 -2.0166  1.3403
  177SOPE   H2Y20131   2.191   4.843   9.796 -1.4651 -0.3422 -0.1882
  177SOPE   C2320132   1.824   4.592   9.769  0.0426  0.3857  0.0245
  177SOPE   H3R20133   1.870   4.508   9.826 -3.4366 -0.7398  1.4788
  177SOPE   H3S20134   1.906   4.663   9.747  0.0824  1.2356  2.5072
  177SOPE   C2420135   1.740   4.537   9.652  0.4544  0.2471  0.9756
  177SOPE   H4R20136   1.675   4.449   9.672 -0.0182  0.6263  1.1201
  177SOPE   H4S20137   1.674   4.617   9.613  1.3653  0.3855 -0.3607
  177SOPE   C2520138   1.848   4.510   9.540  1.0524  0.4304 -0.1115
  177SOPE   H5R20139   1.895   4.607   9.511 -1.0740  1.2355 -1.1554
  177SOPE   H5S20140   1.929   4.445   9.578  0.0484 -1.3435 -0.9148
  177SOPE   C2620141   1.778   4.443   9.423 -0.2069 -0.3612  0.2858
  177SOPE   H6R20142   1.717   4.357   9.457 -1.9448  0.8451  0.3040
  177SOPE   H6S20143   1.709   4.515   9.375 -0.0976  1.5820  2.8072
  177SOPE   C2720144   1.867   4.405   9.310 -1.0770  0.2759 -0.1702
  177SOPE   H7R20145   1.898   4.498   9.259 -1.9364  0.5989 -0.1066
  177SOPE   H7S20146   1.960   4.356   9.347 -0.8738  0.1524 -0.8318
  177SOPE   C2820147   1.809   4.302   9.200  0.1791  0.2488  0.0943
  177SOPE   H8R20148   1.777   4.210   9.253  0.4181 -0.2819 -0.6607
  177SOPE   H8S20149   1.725   4.357   9.154  1.0147  1.1974 -0.3400
  177SOPE   C2920150   1.904   4.239   9.103 -0.2917 -0.2727  0.4492
  177SOPE   H9120151   1.985   4.189   9.158  1.8835  2.8885  0.3992
  177SOPE  C21020152   1.898   4.230   8.968  0.3732  0.8720 -0.1155
  177SOPE  H10120153   1.983   4.180   8.920 -1.2703 -1.3636 -0.8517
  177SOPE  C21120154   1.810   4.302   8.874 -0.3790 -0.0643 -0.0712
  177SOPE  H11R20155   1.761   4.387   8.926 -1.1167 -1.1855  1.1291
  177SOPE  H11S20156   1.718   4.250   8.839 -0.6263 -1.3946  2.3556
  177SOPE  C21220157   1.881   4.357   8.746 -0.0028  0.9115 -0.5460
  177SOPE  H12R20158   1.960   4.434   8.758 -1.6149  2.8463 -1.8382
  177SOPE  H12S20159   1.795   4.411   8.702  0.3126  0.3714 -1.8677
  177SOPE  C21320160   1.925   4.249   8.644 -0.1441 -0.4459 -0.4456
  177SOPE  H13R20161   1.846   4.177   8.614  0.0583 -1.6918  1.7831
  177SOPE  H13S20162   2.004   4.181   8.682 -0.2609 -1.2120 -1.5363
  177SOPE  C21420163   1.977   4.302   8.508  0.1146  0.6183 -0.2587
  177SOPE  H14R20164   2.014   4.213   8.453 -0.2629 -0.3575  1.0162
  177SOPE  H14S20165   2.067   4.361   8.535  0.2967 -1.2736  4.2042
  177SOPE  C21520166   1.881   4.388   8.422 -0.2135  0.0849 -0.6487
  177SOPE  H15R20167   1.866   4.482   8.481  0.5723 -0.5586  0.6299
  177SOPE  H15S20168   1.785   4.332   8.414 -0.2381 -0.5873  2.7202
  177SOPE  C21620169   1.943   4.426   8.290 -0.0263 -0.1013  0.1496
  177SOPE  H16R20170   2.049   4.447   8.315 -0.3319 -0.8597  2.3630
  177SOPE  H16S20171   1.890   4.520   8.265 -1.0149  0.0137  2.3824
  177SOPE  C21720172   1.931   4.316   8.185 -1.0236 -0.0651  0.1801
  177SOPE  H17R20173   1.823   4.312   8.158 -1.5481 -2.2373  2.2564
  177SOPE  H17S20174   1.961   4.222   8.237  1.6504 -0.9708 -2.6822
  177SOPE  C21820175   2.025   4.343   8.071 -0.0552  0.5472 -0.5563
  177SOPE  H18R20176   1.988   4.284   7.985 -1.9135 -1.6032  1.5740
  177SOPE  H18S20177   2.127   4.303   8.089 -0.5340 -0.7605 -0.6843
  177SOPE  H18T20178   2.024   4.444   8.025  0.6169  0.5876 -0.4898
  177SOPE   C3320179   2.244   4.672   9.684  0.3988  0.7315  0.2752
  177SOPE   H3X20180   2.161   4.598   9.687  2.3898 -1.6124  1.1456
  177SOPE   H3Y20181   2.329   4.601   9.683 -0.7319 -0.6994 -1.8132
  177SOPE   C3420182   2.230   4.745   9.552  0.1431 -0.3958 -0.1377
  177SOPE   H4X20183   2.320   4.809   9.538 -0.5173  0.1118 -2.4898
  177SOPE   H4Y20184   2.147   4.818   9.568  0.4863 -0.3522  1.5675
  177SOPE   C3520185   2.209   4.651   9.422  0.3718  0.1349 -0.3302
  177SOPE   H5X20186   2.118   4.588   9.429  0.9998 -1.3981 -3.9017
  177SOPE   H5Y20187   2.295   4.582   9.416  1.6687  1.7479 -1.0768
  177SOPE   C3620188   2.203   4.733   9.293 -0.1211 -0.2486  0.1734
  177SOPE   H6X20189   2.297   4.790   9.276 -0.6569  0.6780  0.2269
  177SOPE   H6Y20190   2.124   4.808   9.316 -0.2325 -0.3760  0.2041
  177SOPE   C3720191   2.163   4.669   9.159 -0.3450  0.1033 -0.1374
  177SOPE   H7X20192   2.132   4.751   9.091 -1.1339  0.4776  0.6484
  177SOPE   H7Y20193   2.075   4.605   9.181 -1.5376  1.9254  0.6403
  177SOPE   C3820194   2.292   4.606   9.100 -0.5783  0.0394  0.1500
  177SOPE   H8X20195   2.323   4.521   9.166  0.6154 -0.1299 -0.6076
  177SOPE   H8Y20196   2.368   4.686   9.098 -0.7678  0.1996 -1.6196
  177SOPE   C3920197   2.281   4.557   8.959  0.7644 -0.4941  0.2613
  177SOPE   H9X20198   2.224   4.628   8.896 -2.1435 -0.7732  2.3706
  177SOPE   H9Y20199   2.221   4.464   8.970  2.2481 -1.4791  0.3046
  177SOPE  C31020200   2.413   4.523   8.903  0.5999 -0.4540 -0.4249
  177SOPE  H10X20201   2.466   4.443   8.958  1.1905  1.6888  2.3643
  177SOPE  H10Y20202   2.482   4.610   8.894  1.6310 -1.0533  1.1482
  177SOPE  C31120203   2.398   4.478   8.749 -0.1209 -0.5287 -0.0787
  177SOPE  H11X20204   2.358   4.563   8.691  1.1006 -0.1459 -0.4001
  177SOPE  H11Y20205   2.326   4.399   8.719 -0.5778 -0.7774  1.5353
  177SOPE  C31220206   2.538   4.438   8.694  0.2301  0.7833  0.2943
  177SOPE  H12X20207   2.578   4.346   8.742 -2.0854  0.2390  1.3573
  177SOPE  H12Y20208   2.613   4.514   8.725  4.2870 -2.3072 -1.0515
  177SOPE  C31320209   2.531   4.426   8.537 -0.4095  0.0408  0.3583
  177SOPE  H13X20210   2.521   4.528   8.494 -1.6460  0.3034  1.2229
  177SOPE  H13Y20211   2.451   4.361   8.496  0.2847  0.2768 -1.4750
  177SOPE  C31420212   2.663   4.365   8.471 -0.3313 -0.1751  0.3541
  177SOPE  H14X20213   2.696   4.266   8.509  0.0773 -0.3404 -0.4031
  177SOPE  H14Y20214   2.749   4.430   8.496  0.6299 -1.2560 -0.0279
  177SOPE  C31520215   2.661   4.352   8.316 -0.3419 -0.4125 -0.6522
  177SOPE  H15X20216   2.696   4.444   8.265  2.5853  0.3899  2.4257
  177SOPE  H15Y20217   2.556   4.330   8.289 -0.6511  0.4080 -0.1446
  177SOPE  C31620218   2.752   4.242   8.271  0.3431  0.3207 -0.4884
  177SOPE  H16X20219   2.716   4.141   8.299 -0.2334  0.7323  0.3076
  177SOPE  H16Y20220   2.853   4.252   8.318  0.7553  1.7648 -1.6012
  177SOPE  C31720221   2.768   4.237   8.123 -0.3784 -0.9290  0.5782
  177SOPE  H17X20222   2.840   4.319   8.105  1.7882 -2.6669  0.8686
  177SOPE  H17Y20223   2.677   4.258   8.062  0.7458 -1.0798 -1.2014
  177SOPE  C31820224   2.849   4.112   8.074 -0.3991 -0.3353 -0.2461
  177SOPE  H18X20225   2.840   4.131   7.965  0.0184 -1.2115 -0.4468
  177SOPE  H18Y20226   2.802   4.017   8.109 -0.7053 -0.6310 -1.4036
  177SOPE  H18Z20227   2.957   4.126   8.093 -0.1726 -1.2984 -0.7201
  178SOPE     N20228   0.735   1.779  10.680  0.3634 -0.2194 -0.2759
  178SOPE   HN120229   0.823   1.770  10.626 -0.4419 -0.1708 -1.6416
  178SOPE   HN220230   0.735   1.846  10.759 -1.2296 -1.1843  0.6254
  178SOPE   HN320231   0.705   1.686  10.716 -0.3554  0.3893  0.7607
  178SOPE   C1220232   0.627   1.836  10.585 -0.8980  0.0804  0.2057
  178SOPE  H12A20233   0.528   1.826  10.634  0.3413 -1.2596  2.6385
  178SOPE  H12B20234   0.628   1.781  10.489 -2.6941 -0.7784  0.6397
  178SOPE   C1120235   0.656   1.988  10.569 -0.5763  0.5073 -0.0715
  178SOPE  H11A20236   0.572   2.015  10.501 -0.2640  1.0434 -0.2563
  178SOPE  H11B20237   0.750   2.012  10.515 -0.6647  3.4573  0.8985
  178SOPE     P20238   0.577   2.212  10.685  0.2848 -0.5297  0.4149
  178SOPE   O1320239   0.659   2.304  10.769 -0.5174  0.1232  0.1349
  178SOPE   O1420240   0.434   2.207  10.717 -0.2736 -0.8699  0.3511
  178SOPE   O1220241   0.642   2.070  10.688 -0.4183  0.1362  0.1699
  178SOPE   O1120242   0.592   2.257  10.528 -0.5423  0.1734 -0.0283
  178SOPE    C120243   0.725   2.303  10.487  0.5782 -0.4732  0.4577
  178SOPE    HA20244   0.808   2.245  10.534  1.2435 -0.2357 -0.4106
  178SOPE    HB20245   0.731   2.408  10.522  0.5118 -0.8409  1.6194
  178SOPE    C220246   0.744   2.313  10.331 -0.1472  0.3199 -0.0869
  178SOPE    HS20247   0.770   2.210  10.297 -1.0193 -0.4269  1.3586
  178SOPE   O2120248   0.842   2.416  10.298  0.3415  0.1343 -0.6087
  178SOPE   C2120249   0.967   2.369  10.306 -0.2399  0.4838  0.4266
  178SOPE   O2220250   0.998   2.267  10.362  0.3454  0.0270 -0.4040
  178SOPE   C2220251   1.062   2.452  10.227 -0.0569  0.0757  0.5630
  178SOPE   H2R20252   1.150   2.389  10.203  0.3900 -0.2848  2.9034
  178SOPE   H2S20253   1.099   2.533  10.294  1.6836 -1.8715  2.0967
  178SOPE    C320254   0.607   2.334  10.261  0.7731  0.2219  0.5302
  178SOPE    HX20255   0.568   2.424  10.314 -0.4264 -0.8844  1.6062
  178SOPE    HY20256   0.535   2.256  10.295 -0.1168  0.6773 -0.2676
  178SOPE   O3120257   0.618   2.362  10.116  0.7819  0.1138  0.1734
  178SOPE   C3120258   0.563   2.265  10.051  0.5711  0.3457  0.1561
  178SOPE   O3220259   0.516   2.162  10.098  0.5563 -0.1126  0.1115
  178SOPE   C3220260   0.569   2.299   9.901  0.0256 -0.3486  0.1693
  178SOPE   H2X20261   0.671   2.275   9.865  0.9906  0.9258  1.9111
  178SOPE   H2Y20262   0.552   2.406   9.876  0.8351  0.0360  1.1867
  178SOPE   C2320263   1.007   2.516  10.092  0.0181  0.0004 -0.2969
  178SOPE   H3R20264   1.052   2.611  10.054 -2.3071  0.4157 -2.3107
  178SOPE   H3S20265   0.903   2.547  10.112  0.4311 -0.3223  2.8097
  178SOPE   C2420266   1.010   2.418   9.965  0.1465  0.1247 -0.1754
  178SOPE   H4R20267   1.120   2.401   9.964 -0.0057 -1.8228 -4.1185
  178SOPE   H4S20268   0.953   2.329   9.996  1.5120 -0.7977 -0.2365
  178SOPE   C2520269   0.957   2.469   9.833 -0.9382  0.5438  0.7237
  178SOPE   H5R20270   0.861   2.524   9.839  0.8157  3.8050  1.5179
  178SOPE   H5S20271   1.032   2.541   9.794 -0.9472  0.5829  0.7785
  178SOPE   C2620272   0.958   2.363   9.726  0.4046 -1.3584  0.1965
  178SOPE   H6R20273   1.059   2.319   9.730  0.8761 -0.2678  1.3238
  178SOPE   H6S20274   0.886   2.283   9.754 -0.0062 -0.7138  1.0529
  178SOPE   C2720275   0.939   2.427   9.586  0.4523 -0.9817  0.1538
  178SOPE   H7R20276   0.840   2.476   9.589  1.0741  0.8694 -3.7554
  178SOPE   H7S20277   1.007   2.515   9.580 -1.0511  0.3038  1.0737
  178SOPE   C2820278   0.932   2.339   9.463 -0.6975  0.1089  0.5356
  178SOPE   H8R20279   0.873   2.249   9.491  1.3799 -1.9194 -1.1703
  178SOPE   H8S20280   0.873   2.389   9.383  1.0952  0.3496 -0.6929
  178SOPE   C2920281   1.066   2.298   9.400 -0.9131  0.3420  0.0262
  178SOPE   H9120282   1.133   2.253   9.474 -1.6764 -0.1731  0.4166
  178SOPE  C21020283   1.103   2.311   9.265  0.2506 -0.1624  0.9308
  178SOPE  H10120284   1.204   2.285   9.230  0.1900  0.0820  0.5718
  178SOPE  C21120285   1.017   2.370   9.157  0.7785 -0.3589  0.2278
  178SOPE  H11R20286   1.057   2.471   9.135  1.0017 -1.0092 -2.8206
  178SOPE  H11S20287   0.913   2.379   9.194  1.1386 -2.7559  2.1221
  178SOPE  C21220288   1.022   2.291   9.028 -0.3958  0.2606 -0.0544
  178SOPE  H12R20289   0.971   2.192   9.038  0.1380  0.1682  2.1382
  178SOPE  H12S20290   1.128   2.287   8.996 -0.0344  1.5161  0.9232
  178SOPE  C21320291   0.938   2.360   8.918 -0.1309 -0.3290 -1.0718
  178SOPE  H13R20292   0.985   2.461   8.913  1.0622 -0.7942  0.1967
  178SOPE  H13S20293   0.837   2.374   8.964  0.6454 -3.4204  1.9924
  178SOPE  C21420294   0.938   2.280   8.797  0.1872 -0.2974  0.1832
  178SOPE  H14R20295   0.881   2.184   8.797 -1.5186  0.6631  0.5503
  178SOPE  H14S20296   1.041   2.250   8.771 -0.4140 -2.0078 -0.3622
  178SOPE  C21520297   0.877   2.369   8.677 -0.1630 -0.5247 -0.0099
  178SOPE  H15R20298   0.916   2.472   8.684  0.3903 -0.6658 -0.8523
  178SOPE  H15S20299   0.767   2.368   8.687 -0.1391  3.2532  2.1938
  178SOPE  C21620300   0.918   2.317   8.541  0.1176 -0.1495  0.4859
  178SOPE  H16R20301   0.841   2.355   8.470  0.2160 -0.6236  0.1205
  178SOPE  H16S20302   0.918   2.206   8.534  0.0506 -0.3236  2.6205
  178SOPE  C21720303   1.054   2.382   8.498  0.9562  0.5969  0.0384
  178SOPE  H17R20304   1.125   2.395   8.582 -2.0249  3.6815  2.4066
  178SOPE  H17S20305   1.029   2.485   8.462 -1.6426 -0.3286 -1.0827
  178SOPE  C21820306   1.123   2.312   8.381 -0.4639  0.4884 -0.2127
  178SOPE  H18R20307   1.092   2.205   8.384 -1.9646  0.6477 -3.9756
  178SOPE  H18S20308   1.233   2.320   8.384 -0.6006  3.5623  0.2692
  178SOPE  H18T20309   1.079   2.344   8.284 -2.1514  0.2421  0.4310
  178SOPE   C3320310   0.469   2.200   9.827  0.0774 -0.2331  0.5672
  178SOPE   H3X20311   0.382   2.182   9.894 -0.0203 -4.0104 -0.3091
  178SOPE   H3Y20312   0.513   2.099   9.812 -0.4544 -0.6395  1.6236
  178SOPE   C3420313   0.410   2.251   9.700 -0.1482 -0.3605 -0.8659
  178SOPE   H4X20314   0.341   2.334   9.725  0.8567  0.6092 -1.2092
  178SOPE   H4Y20315   0.350   2.167   9.660  2.3073 -2.5649 -0.2016
  178SOPE   C3520316   0.529   2.283   9.602  0.0861  0.3445 -0.2872
  178SOPE   H5X20317   0.587   2.189   9.590  0.9933  0.7190  0.9599
  178SOPE   H5Y20318   0.589   2.372   9.632  1.3115  0.2039 -2.1495
  178SOPE   C3620319   0.467   2.326   9.469  0.6093  0.3197 -0.5762
  178SOPE   H6X20320   0.413   2.423   9.479 -0.1814 -0.2764  1.4804
  178SOPE   H6Y20321   0.400   2.239   9.445  0.0099  0.7192 -0.3808
  178SOPE   C3720322   0.567   2.339   9.355  0.5217 -0.1524  0.1882
  178SOPE   H7X20323   0.634   2.252   9.366  1.1407  0.2010 -0.6241
  178SOPE   H7Y20324   0.621   2.433   9.380  1.3481 -0.8448  1.1018
  178SOPE   C3820325   0.516   2.347   9.205  0.3074  0.0224  0.2265
  178SOPE   H8X20326   0.600   2.356   9.133 -0.9307 -0.9809 -1.3990
  178SOPE   H8Y20327   0.437   2.422   9.183  0.7179 -0.2927 -2.7024
  178SOPE   C3920328   0.445   2.214   9.178  0.8891 -0.2156  0.1826
  178SOPE   H9X20329   0.346   2.209   9.228 -0.8598  1.6888 -2.8081
  178SOPE   H9Y20330   0.503   2.124   9.209  1.3442 -0.5164 -1.4593
  178SOPE  C31020331   0.404   2.209   9.031  0.5658 -0.4172  0.7912
  178SOPE  H10X20332   0.374   2.313   9.005 -0.4168 -0.8721  0.0426
  178SOPE  H10Y20333   0.308   2.154   9.021  1.3792 -1.5937 -0.8733
  178SOPE  C31120334   0.496   2.156   8.926 -0.0030 -0.3249  1.1932
  178SOPE  H11X20335   0.497   2.045   8.926 -0.4734 -0.3323  1.8227
  178SOPE  H11Y20336   0.598   2.196   8.947  0.4066  0.0132 -1.1891
  178SOPE  C31220337   0.462   2.199   8.784  0.0428  0.2650  0.4656
  178SOPE  H12X20338   0.461   2.310   8.783  2.1782  0.3268 -0.3918
  178SOPE  H12Y20339   0.358   2.160   8.775 -0.4442  1.5606  0.1674
  178SOPE  C31320340   0.543   2.142   8.666 -0.7936 -0.2002  0.3900
  178SOPE  H13X20341   0.539   2.034   8.640  0.9400  0.1257 -1.4617
  178SOPE  H13Y20342   0.651   2.166   8.682 -0.4292 -1.7779  0.5011
  178SOPE  C31420343   0.505   2.206   8.533 -0.2137  0.6800  0.4075
  178SOPE  H14X20344   0.517   2.316   8.541  0.7761  0.7684 -1.6493
  178SOPE  H14Y20345   0.397   2.190   8.511 -0.4228  0.6014  1.4380
  178SOPE  C31520346   0.571   2.153   8.405 -1.0353 -0.0018  0.7901
  178SOPE  H15X20347   0.560   2.044   8.390 -2.4198  0.3440 -1.0144
  178SOPE  H15Y20348   0.679   2.176   8.418 -0.6962  0.3444 -1.9887
  178SOPE  C31620349   0.527   2.220   8.271 -0.1601  0.1760  0.5700
  178SOPE  H16X20350   0.553   2.328   8.278  1.1384 -0.1697  1.7466
  178SOPE  H16Y20351   0.417   2.206   8.266 -0.1240  0.3531 -1.0211
  178SOPE  C31720352   0.572   2.144   8.145  0.4379 -0.8145  0.0274
  178SOPE  H17X20353   0.544   2.201   8.054  0.8460  0.5335  0.7237
  178SOPE  H17Y20354   0.516   2.048   8.151 -1.9264  0.4608 -0.3782
  178SOPE  C31820355   0.720   2.109   8.136 -0.1754 -0.3876  0.0238
  178SOPE  H18X20356   0.746   2.038   8.218 -1.1439 -1.7275 -0.7852
  178SOPE  H18Y20357   0.778   2.203   8.146 -0.6248 -0.1934  0.8623
  178SOPE  H18Z20358   0.747   2.064   8.038  0.1082  0.5010 -0.3144
  179SOPE     N20359   6.505   6.284   6.054  0.2581  0.1792  0.4745
  179SOPE   HN120360   6.599   6.293   6.012  0.5624 -0.8922  0.8972
  179SOPE   HN220361   6.458   6.377   6.047 -0.3763 -0.2260 -1.0705
  179SOPE   HN320362   6.522   6.272   6.156 -0.5988  0.0991  0.6162
  179SOPE   C1220363   6.434   6.163   5.989 -0.2355  0.0398 -0.0426
  179SOPE  H12A20364   6.504   6.079   6.010 -0.3779 -0.2023 -0.5037
  179SOPE  H12B20365   6.426   6.168   5.878 -0.2406 -1.0149 -0.1041
  179SOPE   C1120366   6.303   6.139   6.049 -0.1003  0.4512 -1.0026
  179SOPE  H11A20367   6.290   6.110   6.156  0.3822 -0.4467 -1.1758
  179SOPE  H11B20368   6.267   6.048   5.996  0.9300 -0.4411 -0.2364
  179SOPE     P20369   6.066   6.236   6.026  0.1023  0.2508  0.4340
  179SOPE   O1320370   6.032   6.103   5.976 -0.8191  0.1925 -0.5634
  179SOPE   O1420371   6.001   6.346   5.959  0.3225 -1.0406  0.0955
  179SOPE   O1220372   6.225   6.255   6.026 -0.4400 -0.1728  0.2990
  179SOPE   O1120373   6.026   6.233   6.179  0.0636 -0.4602  0.5388
  179SOPE    C120374   6.051   6.337   6.276  0.0908 -0.1297 -0.0071
  179SOPE    HA20375   5.979   6.320   6.358  1.2974  1.4142  1.4297
  179SOPE    HB20376   6.013   6.433   6.236 -0.0712 -0.2594 -0.1654
  179SOPE    C220377   6.202   6.352   6.316  0.9786 -0.3227  0.3249
  179SOPE    HS20378   6.257   6.367   6.221  0.1593  1.7693  0.1264
  179SOPE   O2120379   6.240   6.240   6.392 -0.4453 -0.1614 -0.1037
  179SOPE   C2120380   6.368   6.232   6.399  0.2649 -0.0841  0.1572
  179SOPE   O2220381   6.448   6.294   6.330  0.5377 -0.1893  0.0399
  179SOPE   C2220382   6.401   6.141   6.514 -0.0674  0.8294 -0.0235
  179SOPE   H2R20383   6.431   6.210   6.595  1.0937  3.7425 -2.7500
  179SOPE   H2S20384   6.479   6.071   6.478 -2.1629 -2.5045  1.4067
  179SOPE    C320385   6.222   6.481   6.404  0.0778 -0.3425 -0.1217
  179SOPE    HX20386   6.187   6.567   6.342  0.2631 -0.0551  0.1641
  179SOPE    HY20387   6.330   6.490   6.427  0.5068 -2.2032 -1.2815
  179SOPE   O3120388   6.137   6.481   6.523  0.3364  0.6195 -0.5942
  179SOPE   C3120389   6.201   6.477   6.640 -0.2498  0.3913 -0.1274
  179SOPE   O3220390   6.323   6.467   6.658 -0.5319  0.0319  0.1428
  179SOPE   C3220391   6.085   6.492   6.740 -0.1786  0.0389  0.0805
  179SOPE   H2X20392   6.004   6.429   6.700 -1.3478  0.8050  1.1689
  179SOPE   H2Y20393   6.061   6.601   6.733  1.9049  0.5574  0.0883
  179SOPE   C2320394   6.285   6.058   6.576 -0.2124 -0.0561 -0.1405
  179SOPE   H3R20395   6.225   6.017   6.491 -0.7072  0.5959 -0.1186
  179SOPE   H3S20396   6.215   6.124   6.632 -0.3651 -2.5516  2.8419
  179SOPE   C2420397   6.328   5.952   6.679 -0.3131 -0.0145 -0.3809
  179SOPE   H4R20398   6.254   5.870   6.688  1.2572 -1.3106  1.9465
  179SOPE   H4S20399   6.410   5.889   6.639  0.9701 -0.3209  2.4544
  179SOPE   C2520400   6.375   6.006   6.814  0.0874 -0.3632 -0.3301
  179SOPE   H5R20401   6.404   5.927   6.886  0.7287  0.0165 -0.1641
  179SOPE   H5S20402   6.468   6.066   6.810 -0.4437  0.5313  0.3231
  179SOPE   C2620403   6.263   6.078   6.892 -0.4276  0.2808  0.5979
  179SOPE   H6R20404   6.255   6.182   6.852 -1.5179 -0.5462 -1.4657
  179SOPE   H6S20405   6.163   6.032   6.874  0.4062 -0.5085 -2.7986
  179SOPE   C2720406   6.280   6.092   7.041  0.6204 -0.0034  0.2293
  179SOPE   H7R20407   6.388   6.108   7.060  0.4528  2.6254 -0.5616
  179SOPE   H7S20408   6.225   6.181   7.077 -0.6694 -1.4806  2.1235
  179SOPE   C2820409   6.228   5.971   7.130  0.6753 -0.0645 -0.3847
  179SOPE   H8R20410   6.118   5.970   7.118  0.5111  1.1164  0.6920
  179SOPE   H8S20411   6.258   5.874   7.087 -0.4773  0.0352 -1.4890
  179SOPE   C2920412   6.254   5.988   7.280 -0.1577  1.0393  0.1547
  179SOPE   H9120413   6.361   5.977   7.303 -0.3517 -2.6560 -0.0548
  179SOPE  C21020414   6.165   5.985   7.390  0.4286 -0.1284  0.1009
  179SOPE  H10120415   6.211   5.981   7.490 -2.2972  0.5450  1.4877
  179SOPE  C21120416   6.012   5.994   7.393 -0.1479  0.4618  0.3399
  179SOPE  H11R20417   5.969   6.023   7.295 -1.8973 -0.8306  0.6647
  179SOPE  H11S20418   5.986   6.068   7.472 -0.0541  0.1840  0.6344
  179SOPE  C21220419   5.959   5.858   7.441  0.5693  0.5314 -0.3286
  179SOPE  H12R20420   6.001   5.839   7.542  4.6343  1.2344 -1.6927
  179SOPE  H12S20421   6.007   5.776   7.383  1.4031  0.1111  0.9088
  179SOPE  C21320422   5.803   5.835   7.444 -0.0923 -0.3126  0.0929
  179SOPE  H13R20423   5.793   5.743   7.505 -0.0675 -0.6856 -0.4566
  179SOPE  H13S20424   5.762   5.818   7.342 -0.6986 -0.5877  0.3770
  179SOPE  C21420425   5.734   5.957   7.510  0.0451  0.2833 -0.3698
  179SOPE  H14R20426   5.753   6.049   7.450  1.3534  0.8799  0.8960
  179SOPE  H14S20427   5.777   5.972   7.612 -1.5144  0.9713  0.2175
  179SOPE  C21520428   5.582   5.939   7.532 -0.0144 -0.3799  0.1859
  179SOPE  H15R20429   5.583   5.851   7.600  1.7995  0.5282  1.4307
  179SOPE  H15S20430   5.531   5.908   7.438 -0.5904  1.1149 -0.0189
  179SOPE  C21620431   5.523   6.077   7.577  0.3079  0.4397 -1.0782
  179SOPE  H16R20432   5.412   6.071   7.574  0.2102  1.3904 -0.0606
  179SOPE  H16S20433   5.557   6.155   7.505  1.5770  1.5257  0.6239
  179SOPE  C21720434   5.562   6.116   7.722  0.4783  0.0581  0.6197
  179SOPE  H17R20435   5.672   6.119   7.731  0.6277  1.2094 -1.0411
  179SOPE  H17S20436   5.527   6.035   7.789 -0.6855 -1.7432 -1.9935
  179SOPE  C21820437   5.506   6.256   7.757 -0.4155  0.1547 -0.1663
  179SOPE  H18R20438   5.397   6.240   7.744 -0.5295 -0.6148  1.4809
  179SOPE  H18S20439   5.542   6.337   7.690 -0.0427 -2.1278 -2.8912
  179SOPE  H18T20440   5.532   6.278   7.863 -0.0823 -0.9879  0.0012
  179SOPE   C3320441   6.116   6.463   6.883 -0.0301 -0.2614 -0.6721
  179SOPE   H3X20442   6.170   6.366   6.886 -1.4762 -1.0884 -0.6575
  179SOPE   H3Y20443   6.019   6.440   6.932  1.0486 -1.8533  0.8063
  179SOPE   C3420444   6.201   6.576   6.952 -0.0049  0.4373  0.1008
  179SOPE   H4X20445   6.166   6.679   6.929 -1.1575 -0.2103 -1.2286
  179SOPE   H4Y20446   6.297   6.559   6.899 -0.2662  2.1188 -0.9938
  179SOPE   C3520447   6.219   6.557   7.108 -0.5036  0.2343  0.5558
  179SOPE   H5X20448   6.196   6.451   7.129 -1.4000  0.2858 -0.0873
  179SOPE   H5Y20449   6.133   6.604   7.160 -0.2416  2.3052 -0.7433
  179SOPE   C3620450   6.359   6.594   7.153 -0.4164  0.2525 -0.2770
  179SOPE   H6X20451   6.376   6.701   7.130  1.0239 -0.3078 -2.1058
  179SOPE   H6Y20452   6.438   6.538   7.098  1.1196  3.4126 -1.4968
  179SOPE   C3720453   6.370   6.565   7.301  0.5579  0.4882 -0.1149
  179SOPE   H7X20454   6.271   6.570   7.351 -0.7472  2.4978 -2.6692
  179SOPE   H7Y20455   6.430   6.642   7.353  0.4628  0.4691  0.0230
  179SOPE   C3820456   6.434   6.428   7.318 -0.3417  0.1131  0.4152
  179SOPE   H8X20457   6.538   6.426   7.279 -0.9450  0.6751 -1.3388
  179SOPE   H8Y20458   6.386   6.363   7.242 -0.9848  1.7265 -0.6158
  179SOPE   C3920459   6.432   6.378   7.461  0.1897 -0.1789  1.0074
  179SOPE   H9X20460   6.468   6.456   7.531  0.9432 -0.0298  0.4721
  179SOPE   H9Y20461   6.490   6.284   7.467  3.0324  1.2653 -0.9107
  179SOPE  C31020462   6.286   6.350   7.506 -0.3368  0.4875 -0.3081
  179SOPE  H10X20463   6.231   6.295   7.426 -0.0738 -0.3094  0.0505
  179SOPE  H10Y20464   6.228   6.444   7.518 -1.3102  0.0718 -1.4547
  179SOPE  C31120465   6.292   6.260   7.629  0.2672 -0.4123  0.0464
  179SOPE  H11X20466   6.359   6.310   7.702 -2.0866  0.2270  1.8821
  179SOPE  H11Y20467   6.318   6.157   7.595 -0.1529  0.6714 -4.1723
  179SOPE  C31220468   6.153   6.259   7.700  0.1997 -0.3022  0.4739
  179SOPE  H12X20469   6.071   6.240   7.628  0.3683  0.2148  0.1410
  179SOPE  H12Y20470   6.129   6.361   7.737  1.7708  0.8054 -1.3564
  179SOPE  C31320471   6.137   6.156   7.814  0.0625 -0.4789 -0.2306
  179SOPE  H13X20472   6.202   6.178   7.902  0.1494  0.3317 -0.4861
  179SOPE  H13Y20473   6.170   6.059   7.772  0.3060 -1.5143  2.1832
  179SOPE  C31420474   5.998   6.150   7.869 -0.2713  0.3668 -0.5930
  179SOPE  H14X20475   5.921   6.123   7.794 -0.0926 -3.2040  0.3110
  179SOPE  H14Y20476   5.968   6.250   7.908  1.5474  1.7969 -2.6478
  179SOPE  C31520477   5.985   6.038   7.975 -0.8814  0.5305 -0.4526
  179SOPE  H15X20478   6.072   6.036   8.045  0.6769 -0.8270 -2.3349
  179SOPE  H15Y20479   5.997   5.941   7.923 -0.9708 -0.2094  0.8661
  179SOPE  C31620480   5.853   6.056   8.046 -0.1235  0.1176  0.2002
  179SOPE  H16X20481   5.779   6.080   7.967 -1.8229 -2.3566  0.9021
  179SOPE  H16Y20482   5.863   6.144   8.113  0.4790 -0.8210  1.3996
  179SOPE  C31720483   5.811   5.933   8.135  0.3542  0.4524 -0.2031
  179SOPE  H17X20484   5.775   5.857   8.061 -0.7334 -0.0400  0.8116
  179SOPE  H17Y20485   5.719   5.942   8.195  1.1458  0.5677  1.0329
  179SOPE  C31820486   5.926   5.874   8.212 -0.6646  0.9403  0.6657
  179SOPE  H18X20487   6.016   5.847   8.153 -0.5149 -1.6008  1.9629
  179SOPE  H18Y20488   5.901   5.783   8.269  1.2142  0.2981  0.5172
  179SOPE  H18Z20489   5.962   5.963   8.270  0.4159  1.0448 -0.1427
  180SOPE     N20490   0.009   0.093   5.986 -0.1227  0.4627 -0.4459
  180SOPE   HN120491  -0.061   0.143   6.044 -1.1717  0.5404 -1.7321
  180SOPE   HN220492   0.099   0.143   5.996  0.4844 -1.0874  3.5799
  180SOPE   HN320493  -0.007   0.091   5.883  1.6276 -0.8197 -0.7457
  180SOPE   C1220494   0.020  -0.050   6.036  0.4288  0.6742 -0.2576
  180SOPE  H12A20495   0.051  -0.053   6.143  0.7437 -0.1336 -0.3721
  180SOPE  H12B20496   0.094  -0.104   5.975 -0.6737 -0.2332 -0.8196
  180SOPE   C1120497  -0.119  -0.126   6.019 -0.6783 -0.1407 -0.4086
  180SOPE  H11A20498  -0.113  -0.231   6.055  0.5877 -0.2587 -0.9195
  180SOPE  H11B20499  -0.131  -0.128   5.909  2.6206  1.7601 -0.9458
  180SOPE     P20500  -0.360  -0.132   6.109 -0.0180 -0.3119  0.0448
  180SOPE   O1320501  -0.359  -0.261   6.044  0.3827  0.3806 -0.0065
  180SOPE   O1420502  -0.471  -0.045   6.071  0.6721 -0.3329  0.5894
  180SOPE   O1220503  -0.223  -0.061   6.079  0.1050 -0.0309 -0.4523
  180SOPE   O1120504  -0.366  -0.160   6.267  0.7862  0.4096  0.0836
  180SOPE    C120505  -0.248  -0.150   6.350  0.3859  0.1546 -0.0466
  180SOPE    HA20506  -0.162  -0.196   6.297 -0.3897 -0.4581 -0.7914
  180SOPE    HB20507  -0.250  -0.216   6.439  2.5649  2.0665  1.5710
  180SOPE    C220508  -0.237  -0.008   6.409  0.1081  0.0544  0.1598
  180SOPE    HS20509  -0.235   0.067   6.327 -0.2630  0.8226  0.8293
  180SOPE   O2120510  -0.116  -0.002   6.495 -0.2597  0.3816  0.4426
  180SOPE   C2120511  -0.053   0.108   6.517 -0.0521 -0.1945  0.3313
  180SOPE   O2220512  -0.069   0.214   6.461 -0.6192  0.6608 -0.0434
  180SOPE   C2220513   0.052   0.098   6.620 -0.4132  0.4286 -0.9506
  180SOPE   H2R20514   0.101   0.194   6.643  0.2621 -0.0920 -0.1410
  180SOPE   H2S20515   0.133   0.029   6.589  0.3918  1.0639 -0.3103
  180SOPE    C320516  -0.361   0.029   6.500 -0.0620 -0.0253  0.3064
  180SOPE    HX20517  -0.347  -0.046   6.581  1.1110  0.7304  0.8369
  180SOPE    HY20518  -0.457   0.023   6.446  0.2233 -0.6162 -0.1479
  180SOPE   O3120519  -0.343   0.154   6.570  0.9919 -0.3140  0.3451
  180SOPE   C3120520  -0.362   0.265   6.496  0.6680 -0.4439 -0.3567
  180SOPE   O3220521  -0.375   0.269   6.376  0.1353  0.0685  0.0574
  180SOPE   C3220522  -0.367   0.383   6.591 -0.3338  0.3884 -0.0068
  180SOPE   H2X20523  -0.262   0.413   6.612 -0.2365  0.1250 -0.1126
  180SOPE   H2Y20524  -0.419   0.357   6.686  0.8473 -0.7871  0.3450
  180SOPE   C2320525   0.007   0.037   6.757  0.0658 -0.1120 -0.0511
  180SOPE   H3R20526   0.095  -0.003   6.812  0.1913 -2.3346 -1.7082
  180SOPE   H3S20527  -0.055  -0.055   6.751  1.1342 -0.8726  0.3533
  180SOPE   C2420528  -0.073   0.135   6.844  0.2415 -0.2126  0.3515
  180SOPE   H4R20529   0.009   0.204   6.874 -0.1384  0.1159  0.6475
  180SOPE   H4S20530  -0.135   0.207   6.787  1.6213 -0.8153 -2.0121
  180SOPE   C2520531  -0.143   0.071   6.968 -0.3822  0.4948 -0.1702
  180SOPE   H5R20532  -0.192   0.155   7.020  1.7470  0.5008  1.9976
  180SOPE   H5S20533  -0.222  -0.005   6.944  0.5285 -0.4396 -0.2927
  180SOPE   C2620534  -0.052  -0.007   7.063 -0.3907 -1.2929  0.3685
  180SOPE   H6R20535  -0.000  -0.084   7.002  1.2932  1.3672 -1.7894
  180SOPE   H6S20536   0.027   0.066   7.087 -1.4043  0.5733 -1.5828
  180SOPE   C2720537  -0.116  -0.060   7.192 -0.0265  0.4011  0.1015
  180SOPE   H7R20538  -0.210  -0.103   7.152 -0.1552  0.8453 -0.0834
  180SOPE   H7S20539  -0.055  -0.140   7.239  2.4824  1.2346 -1.5124
  180SOPE   C2820540  -0.170   0.044   7.292 -1.1239 -0.2793  0.6579
  180SOPE   H8R20541  -0.204   0.136   7.241 -1.1136 -0.8027 -0.3325
  180SOPE   H8S20542  -0.259  -0.001   7.341 -2.3771 -0.6487 -1.8278
  180SOPE   C2920543  -0.054   0.066   7.386 -0.3673 -0.5878  0.9016
  180SOPE   H9120544   0.025   0.123   7.334 -1.6847  0.5284  0.0532
  180SOPE  C21020545  -0.038   0.011   7.508 -0.0111 -0.3285 -0.3291
  180SOPE  H10120546   0.027   0.057   7.584  0.2472 -0.2775 -0.5805
  180SOPE  C21120547  -0.142  -0.082   7.568 -0.3439 -0.7109 -0.8432
  180SOPE  H11R20548  -0.150  -0.167   7.496  2.4611  0.3798 -2.5995
  180SOPE  H11S20549  -0.245  -0.042   7.562  0.2220  1.2892  1.2399
  180SOPE  C21220550  -0.097  -0.114   7.711 -0.8084 -0.1442 -0.4310
  180SOPE  H12R20551   0.013  -0.127   7.718 -0.7270  1.1384  1.3399
  180SOPE  H12S20552  -0.142  -0.208   7.750  6.4011 -4.1671 -0.0194
  180SOPE  C21320553  -0.127   0.003   7.800 -0.8300  0.0163  0.1739
  180SOPE  H13R20554  -0.237   0.012   7.809 -0.6590  1.1698  1.3742
  180SOPE  H13S20555  -0.091   0.099   7.758  1.5584 -1.2786 -0.9571
  180SOPE  C21420556  -0.046  -0.004   7.939  0.8452 -0.0334 -0.2114
  180SOPE  H14R20557  -0.084   0.080   8.002 -1.2210 -1.8784  1.1625
  180SOPE  H14S20558   0.060   0.019   7.917  0.0603  1.2571 -3.0426
  180SOPE  C21520559  -0.063  -0.138   8.012  0.2896  0.0378  0.1930
  180SOPE  H15R20560  -0.007  -0.226   7.974  0.1642 -1.1160  2.4952
  180SOPE  H15S20561  -0.172  -0.162   8.007  0.3146  0.1763 -1.8511
  180SOPE  C21620562  -0.022  -0.143   8.163 -0.1830  0.4321  0.5565
  180SOPE  H16R20563  -0.049  -0.049   8.215 -0.8556  0.0664  0.8792
  180SOPE  H16S20564   0.086  -0.161   8.183 -0.5349 -1.0068  1.3225
  180SOPE  C21720565  -0.092  -0.255   8.242  0.6332  1.1745  0.2864
  180SOPE  H17R20566  -0.092  -0.354   8.192  0.9312  0.5342  1.5155
  180SOPE  H17S20567  -0.199  -0.228   8.255  1.0124  2.7981  0.1741
  180SOPE  C21820568  -0.036  -0.270   8.383  0.5049  0.5228 -0.6183
  180SOPE  H18R20569  -0.057  -0.192   8.459  1.2518 -0.3672  0.5330
  180SOPE  H18S20570   0.074  -0.283   8.385  0.4103 -0.2501  0.6896
  180SOPE  H18T20571  -0.077  -0.365   8.424 -0.8951  0.5673 -1.7964
  180SOPE   C3320572  -0.429   0.509   6.516  0.1553  0.0020 -0.3205
  180SOPE   H3X20573  -0.533   0.486   6.483 -0.1973  3.3251 -1.8977
  180SOPE   H3Y20574  -0.357   0.546   6.439 -0.1275  1.3121  0.0262
  180SOPE   C3420575  -0.435   0.629   6.611  0.6398 -0.7590 -0.5966
  180SOPE   H4X20576  -0.475   0.708   6.544 -1.6202 -0.7765  0.6338
  180SOPE   H4Y20577  -0.332   0.666   6.632 -0.2872  2.3225 -1.0115
  180SOPE   C3520578  -0.523   0.605   6.732  0.1261  0.7580  0.4318
  180SOPE   H5X20579  -0.493   0.519   6.795  0.8986  0.6284 -0.0964
  180SOPE   H5Y20580  -0.628   0.579   6.706  0.4837 -0.8528  0.5075
  180SOPE   C3620581  -0.540   0.735   6.814 -0.1436  0.2046 -0.2037
  180SOPE   H6X20582  -0.572   0.823   6.754 -0.1249  1.2798  1.2993
  180SOPE   H6Y20583  -0.437   0.763   6.845  1.0137 -2.5145 -1.3288
  180SOPE   C3720584  -0.618   0.729   6.947 -0.2974  0.0729  0.5572
  180SOPE   H7X20585  -0.706   0.668   6.917  1.5758 -1.4752 -2.1410
  180SOPE   H7Y20586  -0.655   0.833   6.963 -1.0586  0.0178 -0.7495
  180SOPE   C3820587  -0.539   0.688   7.070  0.3096 -0.0960 -0.0087
  180SOPE   H8X20588  -0.460   0.766   7.080 -0.3641  0.8756 -1.8078
  180SOPE   H8Y20589  -0.488   0.592   7.044  1.1383  0.3812 -0.1947
  180SOPE   C3920590  -0.639   0.676   7.194 -0.1238  0.8847  0.3212
  180SOPE   H9X20591  -0.721   0.612   7.157  1.3014 -0.5379 -0.4944
  180SOPE   H9Y20592  -0.675   0.776   7.228  1.4788  0.6836  2.8925
  180SOPE  C31020593  -0.586   0.603   7.328 -0.3681  0.7484 -0.1885
  180SOPE  H10X20594  -0.497   0.654   7.371 -0.6838 -1.6770  3.8590
  180SOPE  H10Y20595  -0.535   0.508   7.305 -1.6600 -0.8357  2.8674
  180SOPE  C31120596  -0.684   0.593   7.444  0.5571  0.3528 -1.0498
  180SOPE  H11X20597  -0.620   0.564   7.529 -1.2104 -1.0250 -0.1160
  180SOPE  H11Y20598  -0.756   0.509   7.427  0.2858  0.1621  0.8978
  180SOPE  C31220599  -0.757   0.719   7.477  0.3523 -0.6838  0.7835
  180SOPE  H12X20600  -0.834   0.738   7.399  1.8858  0.1443 -0.5741
  180SOPE  H12Y20601  -0.692   0.809   7.475  0.1512 -0.5171 -1.7148
  180SOPE  C31320602  -0.851   0.707   7.602  0.0183  0.0942 -0.0063
  180SOPE  H13X20603  -0.935   0.635   7.590 -1.2969  1.1815  1.9926
  180SOPE  H13Y20604  -0.905   0.802   7.622 -0.0848 -0.0077  0.2146
  180SOPE  C31420605  -0.770   0.660   7.731 -0.4812 -0.1376  0.0907
  180SOPE  H14X20606  -0.717   0.563   7.714  0.1696  0.3502 -0.7834
  180SOPE  H14Y20607  -0.855   0.652   7.802 -0.1318  2.5506  0.9004
  180SOPE  C31520608  -0.664   0.765   7.767 -0.2523 -0.2388 -0.3293
  180SOPE  H15X20609  -0.715   0.863   7.766 -0.6373 -0.3262  2.9374
  180SOPE  H15Y20610  -0.574   0.769   7.701  0.0226  1.9469  0.1199
  180SOPE  C31620611  -0.631   0.756   7.921 -0.2096 -0.0545  0.8983
  180SOPE  H16X20612  -0.631   0.650   7.953  1.0100  0.2616  2.0375
  180SOPE  H16Y20613  -0.711   0.809   7.978 -0.8236  0.1384 -0.1282
  180SOPE  C31720614  -0.500   0.828   7.957 -0.5989  0.3948 -0.1067
  180SOPE  H17X20615  -0.506   0.934   7.923  1.4152  0.8445  0.8202
  180SOPE  H17Y20616  -0.424   0.773   7.898 -1.5366 -0.8894 -0.1797
  180SOPE  C31820617  -0.463   0.815   8.115 -0.0321 -0.2377  0.1283
  180SOPE  H18X20618  -0.461   0.714   8.161  1.2704  0.1985  1.0924
  180SOPE  H18Y20619  -0.533   0.880   8.171 -0.3215  0.9223 -1.5134
  180SOPE  H18Z20620  -0.360   0.857   8.123 -0.4792  1.1562 -1.0606
  181SOPE     N20621   3.909   4.508   5.391  0.2971  0.3736  0.1312
  181SOPE   HN120622   4.011   4.490   5.382  0.4009  1.5542 -1.4722
  181SOPE   HN220623   3.858   4.443   5.327  0.5200 -0.8035  1.1006
  181SOPE   HN320624   3.892   4.603   5.354 -0.4396  0.6875  1.2111
  181SOPE   C1220625   3.866   4.505   5.535 -0.1759  0.2190  0.4744
  181SOPE  H12A20626   3.872   4.399   5.568  0.1642 -0.0163 -0.3220
  181SOPE  H12B20627   3.762   4.545   5.542  0.4047  1.6070  1.8232
  181SOPE   C1120628   3.956   4.593   5.622 -0.3846 -0.0728 -0.2292
  181SOPE  H11A20629   3.923   4.580   5.727  0.2765  0.0843  0.0011
  181SOPE  H11B20630   3.939   4.698   5.592  0.4030  0.1731  0.1854
  181SOPE     P20631   4.204   4.613   5.681 -0.0338  0.1245 -0.0604
  181SOPE   O1320632   4.229   4.741   5.610 -0.0896  0.2874 -0.3444
  181SOPE   O1420633   4.322   4.519   5.701 -0.3776 -0.4589 -0.1684
  181SOPE   O1220634   4.094   4.547   5.611  0.3531  0.1402  0.3930
  181SOPE   O1120635   4.142   4.645   5.823  0.1605 -0.3723 -0.7781
  181SOPE    C120636   4.141   4.537   5.919 -0.3686  0.6652 -0.5468
  181SOPE    HA20637   4.167   4.437   5.877  1.1963  0.9745 -0.3780
  181SOPE    HB20638   4.036   4.519   5.952 -0.1594  0.5557  0.0579
  181SOPE    C220639   4.219   4.581   6.044  0.0764  0.1328 -0.8656
  181SOPE    HS20640   4.324   4.548   6.038  0.4874  1.3232 -0.4570
  181SOPE   O2120641   4.173   4.516   6.161 -1.0042  0.5415 -0.2023
  181SOPE   C2120642   4.200   4.384   6.180 -0.0684 -0.5150  0.2359
  181SOPE   O2220643   4.249   4.313   6.098 -0.7086  0.4191  0.1747
  181SOPE   C2220644   4.156   4.344   6.326  0.2792  0.0896 -0.5465
  181SOPE   H2R20645   4.056   4.380   6.359  0.7437  0.1616  0.8589
  181SOPE   H2S20646   4.217   4.407   6.394  0.1243  1.0610 -1.2816
  181SOPE    C320647   4.225   4.733   6.063  0.3214 -0.0770 -0.2208
  181SOPE    HX20648   4.117   4.757   6.069  0.4360  1.0390 -1.8481
  181SOPE    HY20649   4.282   4.779   5.979 -0.3836  3.0085  0.8703
  181SOPE   O3120650   4.290   4.767   6.183  0.0167  0.1561  0.3553
  181SOPE   C3120651   4.232   4.879   6.251  0.3604 -0.0219  0.6037
  181SOPE   O3220652   4.141   4.938   6.202 -0.2548 -0.5756 -0.2477
  181SOPE   C3220653   4.320   4.914   6.368  0.5236  0.5719 -0.0562
  181SOPE   H2X20654   4.422   4.878   6.344 -0.9429 -1.7736 -3.6504
  181SOPE   H2Y20655   4.289   4.851   6.454  1.3261 -1.4714 -1.1964
  181SOPE   C2320656   4.162   4.196   6.344  0.0392 -0.4549  0.1929
  181SOPE   H3R20657   4.268   4.164   6.327  0.0258 -1.0514  1.1929
  181SOPE   H3S20658   4.091   4.147   6.274 -1.1389 -0.7293  1.5509
  181SOPE   C2420659   4.123   4.145   6.485  0.2735 -0.0245 -0.0148
  181SOPE   H4R20660   4.019   4.164   6.518  0.2959  0.6578 -0.3134
  181SOPE   H4S20661   4.129   4.035   6.474 -0.1486  0.1085 -2.1559
  181SOPE   C2520662   4.208   4.222   6.585  0.2229 -0.5192 -0.2237
  181SOPE   H5R20663   4.309   4.235   6.539  0.4172 -0.3317  0.2547
  181SOPE   H5S20664   4.165   4.323   6.600  2.0022  0.0381  1.5159
  181SOPE   C2620665   4.226   4.150   6.716 -0.2347  0.1038  0.4279
  181SOPE   H6R20666   4.309   4.201   6.769  1.8791  0.4206 -2.8640
  181SOPE   H6S20667   4.140   4.145   6.786 -0.5794  1.4057  0.1346
  181SOPE   C2720668   4.270   4.006   6.697 -0.5531  0.1281  0.0687
  181SOPE   H7R20669   4.182   3.943   6.674  0.0551 -0.9286  0.5620
  181SOPE   H7S20670   4.341   4.007   6.611 -1.8046  1.1146 -0.9861
  181SOPE   C2820671   4.335   3.956   6.824  0.3241  0.1748 -0.5842
  181SOPE   H8R20672   4.376   3.856   6.797 -1.2826 -0.9698  0.9832
  181SOPE   H8S20673   4.420   4.023   6.851 -0.5483  0.8279  0.6336
  181SOPE   C2920674   4.241   3.945   6.942  0.3504 -0.6487  0.0165
  181SOPE   H9120675   4.136   3.937   6.913  0.2134  2.9482 -0.9785
  181SOPE  C21020676   4.281   3.947   7.070 -0.4488 -0.2012 -0.5795
  181SOPE  H10120677   4.212   3.944   7.155  3.5459  0.7691  3.0117
  181SOPE  C21120678   4.426   3.953   7.121  0.3074 -0.2527 -0.1144
  181SOPE  H11R20679   4.490   4.024   7.064  2.7393 -0.3706  2.3050
  181SOPE  H11S20680   4.473   3.853   7.108 -0.9347 -0.7685 -0.8262
  181SOPE  C21220681   4.436   3.989   7.269  0.0256  0.6773  0.0202
  181SOPE  H12R20682   4.353   3.935   7.318 -0.0645  0.7464 -0.0566
  181SOPE  H12S20683   4.424   4.098   7.286  0.3496  0.5845  0.9157
  181SOPE  C21320684   4.565   3.948   7.345 -0.2960 -1.0201  0.7907
  181SOPE  H13R20685   4.649   4.007   7.302 -1.7171  1.6898  1.5582
  181SOPE  H13S20686   4.578   3.838   7.338 -1.6002 -1.1783  0.6089
  181SOPE  C21420687   4.566   3.980   7.491  0.1401 -0.4903 -1.0142
  181SOPE  H14R20688   4.483   3.925   7.539 -0.2171  1.0690  0.2424
  181SOPE  H14S20689   4.548   4.089   7.505  1.0834 -0.3833 -0.5623
  181SOPE  C21520690   4.699   3.934   7.558  0.0506 -0.8591 -1.3509
  181SOPE  H15R20691   4.791   3.977   7.512 -1.4121  2.3110 -1.5381
  181SOPE  H15S20692   4.704   3.823   7.545 -1.8028 -1.0698 -0.5729
  181SOPE  C21620693   4.698   3.969   7.707 -0.6337  0.3103 -0.5411
  181SOPE  H16R20694   4.622   3.917   7.770  0.8943  0.2411  1.3283
  181SOPE  H16S20695   4.691   4.078   7.725 -0.6074  0.3658 -0.8676
  181SOPE  C21720696   4.829   3.928   7.779 -0.0387  0.6199  0.2844
  181SOPE  H17R20697   4.920   3.971   7.732 -1.3835  0.3633 -2.8241
  181SOPE  H17S20698   4.842   3.821   7.752 -1.0002 -0.0394  2.2105
  181SOPE  C21820699   4.841   3.947   7.931 -0.0517 -0.0558 -0.2716
  181SOPE  H18R20700   4.859   4.055   7.951 -0.5534 -0.2469  1.3688
  181SOPE  H18S20701   4.923   3.888   7.979 -1.3651  0.5532  3.0186
  181SOPE  H18T20702   4.744   3.919   7.978  0.2558 -0.1105  0.3456
  181SOPE   C3320703   4.311   5.063   6.402 -0.2237 -0.8111  0.3009
  181SOPE   H3X20704   4.209   5.094   6.435  0.2357 -0.8299  1.8556
  181SOPE   H3Y20705   4.346   5.123   6.315  2.6589 -1.1638  1.1120
  181SOPE   C3420706   4.410   5.098   6.519 -0.2965  0.1138 -0.0613
  181SOPE   H4X20707   4.428   5.207   6.506  1.1259 -0.3457 -2.5197
  181SOPE   H4Y20708   4.510   5.051   6.518 -1.0823 -1.7780  1.9578
  181SOPE   C3520709   4.362   5.068   6.662 -0.0322  0.1442  0.6093
  181SOPE   H5X20710   4.323   4.964   6.656  0.9557 -0.1971 -0.0681
  181SOPE   H5Y20711   4.267   5.123   6.682 -1.8322 -2.3273 -0.5317
  181SOPE   C3620712   4.459   5.089   6.777 -1.0229 -0.6805  0.4655
  181SOPE   H6X20713   4.488   5.196   6.771 -1.0438 -0.5867  1.7422
  181SOPE   H6Y20714   4.543   5.018   6.779 -0.5877 -0.1576  1.1080
  181SOPE   C3720715   4.388   5.080   6.914 -0.0812  0.3459 -0.2258
  181SOPE   H7X20716   4.332   4.984   6.913 -0.3342  0.4902  0.2174
  181SOPE   H7Y20717   4.317   5.164   6.925 -2.6280 -1.7109 -0.1664
  181SOPE   C3820718   4.471   5.081   7.042  0.0455 -0.3810 -0.3688
  181SOPE   H8X20719   4.419   5.134   7.124  1.2211 -0.1624  0.2599
  181SOPE   H8Y20720   4.554   5.153   7.028  0.9953 -1.4561 -0.4756
  181SOPE   C3920721   4.534   4.948   7.078  0.7059 -0.1999  0.5054
  181SOPE   H9X20722   4.580   4.897   6.991 -0.2498  0.2582 -0.2897
  181SOPE   H9Y20723   4.458   4.887   7.131  2.5472 -0.1638  3.4097
  181SOPE  C31020724   4.641   4.954   7.189 -0.4935 -0.2908 -0.2813
  181SOPE  H10X20725   4.721   5.026   7.161  0.8226 -1.6696 -0.1709
  181SOPE  H10Y20726   4.687   4.855   7.206  1.2379  0.7690  1.7885
  181SOPE  C31120727   4.578   5.014   7.319  0.5524  0.8191 -0.2334
  181SOPE  H11X20728   4.483   4.963   7.346  1.5019 -0.1054  1.6210
  181SOPE  H11Y20729   4.564   5.124   7.318 -0.6421  0.6858 -1.6079
  181SOPE  C31220730   4.667   4.985   7.443 -0.0858 -0.7746 -0.5324
  181SOPE  H12X20731   4.760   5.047   7.437  1.3145 -2.6075  1.0835
  181SOPE  H12Y20732   4.696   4.878   7.448 -1.0228 -0.9789  0.9616
  181SOPE  C31320733   4.594   5.022   7.569  0.1096 -0.4743  0.8660
  181SOPE  H13X20734   4.494   4.975   7.565 -1.2924  2.3540 -1.5315
  181SOPE  H13Y20735   4.570   5.131   7.567 -0.3643 -0.5424  2.1367
  181SOPE  C31420736   4.679   5.000   7.697 -0.3971  0.1765  0.7750
  181SOPE  H14X20737   4.775   5.054   7.681 -0.1116 -0.7852 -1.0193
  181SOPE  H14Y20738   4.692   4.891   7.709 -0.9903  0.1217  0.9440
  181SOPE  C31520739   4.621   5.059   7.823  0.3507  0.5313 -0.2575
  181SOPE  H15X20740   4.518   5.022   7.839  0.6838 -0.8725 -1.1600
  181SOPE  H15Y20741   4.618   5.168   7.801  2.7927  0.4213 -1.5978
  181SOPE  C31620742   4.684   5.034   7.955 -0.4157 -0.1005  0.2310
  181SOPE  H16X20743   4.790   5.064   7.941 -0.5533 -0.7489 -3.3689
  181SOPE  H16Y20744   4.691   4.925   7.978 -0.7900  0.1432  1.5558
  181SOPE  C31720745   4.610   5.115   8.061  0.6757  0.4100  0.2182
  181SOPE  H17X20746   4.639   5.084   8.164 -1.3995  1.8843  1.3176
  181SOPE  H17Y20747   4.501   5.093   8.061  0.9585 -1.4759  2.8818
  181SOPE  C31820748   4.624   5.268   8.053 -1.3984 -0.3918 -0.3451
  181SOPE  H18X20749   4.649   5.312   7.955  0.3417  0.4480  0.4345
  181SOPE  H18Y20750   4.710   5.290   8.120 -1.7337 -1.5145  0.4949
  181SOPE  H18Z20751   4.531   5.308   8.099 -1.3667 -0.7642  0.0581
  182SOPE     N20752   5.050   5.140   5.849 -0.3120  0.3055  0.3946
  182SOPE   HN120753   5.033   5.164   5.749  0.2018 -0.5075  0.1097
  182SOPE   HN220754   4.959   5.095   5.873 -0.1436 -1.1753 -1.5235
  182SOPE   HN320755   5.073   5.227   5.901 -0.3209  0.1078  0.7314
  182SOPE   C1220756   5.158   5.033   5.855  0.5564  0.7333 -0.4046
  182SOPE  H12A20757   5.256   5.085   5.856  0.3412  1.1369  0.0354
  182SOPE  H12B20758   5.164   4.968   5.765  1.0764  1.8794 -1.2271
  182SOPE   C1120759   5.164   4.923   5.969 -0.0491 -1.0532 -0.4913
  182SOPE  H11A20760   5.157   4.974   6.068  1.2231 -2.9938  0.6589
  182SOPE  H11B20761   5.265   4.878   5.975 -0.3367 -1.6294  0.2085
  182SOPE     P20762   4.921   4.832   5.981  0.3902 -0.4309  0.3880
  182SOPE   O1320763   4.846   4.719   5.920 -0.1904  0.3587  0.6122
  182SOPE   O1420764   4.866   4.963   5.936 -0.7822  0.2666  0.1207
  182SOPE   O1220765   5.074   4.813   5.960  0.5745  0.0582  0.0971
  182SOPE   O1120766   4.907   4.817   6.143 -0.3443 -0.8259  0.0525
  182SOPE    C120767   4.993   4.731   6.209  0.0399  0.1039 -0.6841
  182SOPE    HA20768   5.099   4.762   6.197 -0.3165  2.3729  1.3009
  182SOPE    HB20769   4.987   4.629   6.167  1.9861 -0.2774 -0.1028
  182SOPE    C220770   4.954   4.727   6.362 -0.2345 -0.6677  0.0633
  182SOPE    HS20771   5.033   4.665   6.410  0.0128 -0.0706  0.4441
  182SOPE   O2120772   4.818   4.677   6.387  0.0326  0.6772 -0.2676
  182SOPE   C2120773   4.789   4.545   6.385  0.1712 -0.1020  0.1440
  182SOPE   O2220774   4.869   4.452   6.386 -0.8226 -1.0194  0.6242
  182SOPE   C2220775   4.636   4.525   6.362 -0.0572 -0.0462  0.2244
  182SOPE   H2R20776   4.616   4.420   6.394  2.3291 -1.3613 -2.1101
  182SOPE   H2S20777   4.614   4.527   6.253 -0.0661  0.6654  0.2395
  182SOPE    C320778   4.955   4.867   6.416 -0.3558 -0.2903  0.2731
  182SOPE    HX20779   4.885   4.935   6.364  0.2508  0.6778  0.6834
  182SOPE    HY20780   5.059   4.902   6.399 -1.1167  1.7764 -0.4923
  182SOPE   O3120781   4.920   4.871   6.556  0.1202 -0.1565 -0.4464
  182SOPE   C3120782   4.894   4.997   6.604 -0.0773 -0.0045 -0.0831
  182SOPE   O3220783   4.899   5.099   6.537  0.4513  0.2422  0.1649
  182SOPE   C3220784   4.865   4.996   6.756 -0.9430  0.2031  0.5298
  182SOPE   H2X20785   4.756   4.977   6.769 -1.7938  0.5020 -4.3183
  182SOPE   H2Y20786   4.888   5.101   6.786 -1.2277  0.3209  0.3394
  182SOPE   C2320787   4.551   4.625   6.434 -0.0159  0.2133  0.3121
  182SOPE   H3R20788   4.446   4.593   6.416  0.2623 -0.2013 -0.6326
  182SOPE   H3S20789   4.562   4.728   6.392  2.8259 -1.2170 -2.9876
  182SOPE   C2420790   4.564   4.638   6.590 -0.0920  1.2300 -0.1589
  182SOPE   H4R20791   4.611   4.548   6.634 -1.6209  0.1495 -0.6352
  182SOPE   H4S20792   4.639   4.714   6.622  1.0490 -0.5343  1.5595
  182SOPE   C2520793   4.430   4.666   6.653  0.2158 -0.1286 -0.2424
  182SOPE   H5R20794   4.400   4.768   6.621  1.4336  0.6332  0.9094
  182SOPE   H5S20795   4.352   4.593   6.625  1.1187 -1.3521  0.3174
  182SOPE   C2620796   4.453   4.686   6.802  0.2935 -0.4059  1.0283
  182SOPE   H6R20797   4.515   4.777   6.820 -2.7723  2.2071 -0.6026
  182SOPE   H6S20798   4.362   4.718   6.857  0.7858 -1.3369  2.4347
  182SOPE   C2720799   4.490   4.562   6.879 -0.1883 -0.3590  0.5718
  182SOPE   H7R20800   4.427   4.474   6.853  0.3387 -0.7557  0.6114
  182SOPE   H7S20801   4.593   4.531   6.851 -0.4545 -1.5188  0.8341
  182SOPE   C2820802   4.488   4.575   7.032  0.1038  0.2104  0.2235
  182SOPE   H8R20803   4.576   4.638   7.061 -0.3868  1.1424 -0.2661
  182SOPE   H8S20804   4.391   4.621   7.061  0.0301  0.4974 -0.4680
  182SOPE   C2920805   4.505   4.443   7.101  0.1769 -0.2046  0.5280
  182SOPE   H9120806   4.433   4.362   7.081  0.5469 -0.1417 -1.1727
  182SOPE  C21020807   4.603   4.409   7.183 -0.1229 -0.3607 -0.7318
  182SOPE  H10120808   4.589   4.310   7.229  0.9933 -0.7177 -1.1286
  182SOPE  C21120809   4.720   4.482   7.241  0.3209  0.1821 -0.1741
  182SOPE  H11R20810   4.729   4.586   7.204 -0.5900  0.7410  1.1119
  182SOPE  H11S20811   4.815   4.437   7.204  0.5832  0.8030 -0.2703
  182SOPE  C21220812   4.711   4.482   7.398 -0.4924  0.0097  0.1482
  182SOPE  H12R20813   4.616   4.523   7.440 -0.5113  0.9705 -0.7885
  182SOPE  H12S20814   4.786   4.549   7.444 -0.9110  1.0653 -0.6674
  182SOPE  C21320815   4.738   4.342   7.455 -0.5420  0.0481  0.0891
  182SOPE  H13R20816   4.642   4.293   7.429 -0.4682  0.2738 -0.6150
  182SOPE  H13S20817   4.745   4.340   7.566  0.7517  0.9608  0.0476
  182SOPE  C21420818   4.856   4.259   7.394  0.1559 -0.6123  0.4513
  182SOPE  H14R20819   4.830   4.252   7.286 -2.6416  1.4522  0.8910
  182SOPE  H14S20820   4.853   4.155   7.433 -0.9763 -0.3976  0.9642
  182SOPE  C21520821   4.995   4.316   7.400  0.4338  0.4113 -0.1867
  182SOPE  H15R20822   5.009   4.333   7.509 -1.4938  0.0861  0.1514
  182SOPE  H15S20823   5.003   4.416   7.352  0.3366 -0.4101 -1.9871
  182SOPE  C21620824   5.098   4.216   7.355  0.5307 -0.2831  0.5025
  182SOPE  H16R20825   5.084   4.189   7.248 -0.0973  2.8006 -0.2813
  182SOPE  H16S20826   5.081   4.123   7.415  0.2654  0.2036  1.1937
  182SOPE  C21720827   5.239   4.257   7.383  0.1694  0.1786 -0.3937
  182SOPE  H17R20828   5.248   4.308   7.482 -0.8409 -2.7025  1.3011
  182SOPE  H17S20829   5.276   4.335   7.313 -0.6995  1.4803  0.5431
  182SOPE  C21820830   5.340   4.146   7.393 -0.6110  0.5283 -0.0776
  182SOPE  H18R20831   5.439   4.188   7.418 -0.7731  0.3747  0.8747
  182SOPE  H18S20832   5.343   4.104   7.290 -1.1405  1.5824 -0.5428
  182SOPE  H18T20833   5.306   4.075   7.471  1.6812  0.6407  1.0851
  182SOPE   C3320834   4.952   4.896   6.843  0.1748  0.0681  0.5100
  182SOPE   H3X20835   5.056   4.932   6.850  0.0782  0.6054 -0.6367
  182SOPE   H3Y20836   4.951   4.795   6.795  2.1856 -0.3529  1.2866
  182SOPE   C3420837   4.907   4.888   6.989  0.2042 -0.5385 -0.6717
  182SOPE   H4X20838   4.812   4.833   7.007  0.0773  0.3680  1.7523
  182SOPE   H4Y20839   4.887   4.988   7.032  0.6397 -0.6521 -0.1970
  182SOPE   C3520840   5.007   4.811   7.077 -0.0070  0.3207 -0.9320
  182SOPE   H5X20841   5.108   4.850   7.051  0.9029  0.1965  2.0276
  182SOPE   H5Y20842   5.013   4.703   7.051  2.7594  0.0959  0.3412
  182SOPE   C3620843   4.989   4.823   7.223  0.3009 -0.5814  0.7005
  182SOPE   H6X20844   4.883   4.804   7.250 -0.2735  0.1505 -0.9148
  182SOPE   H6Y20845   5.005   4.930   7.247 -0.1134 -0.5874  1.0148
  182SOPE   C3720846   5.096   4.744   7.299 -0.2924 -0.1368 -0.3439
  182SOPE   H7X20847   5.184   4.774   7.238 -1.3678  2.6854 -0.6284
  182SOPE   H7Y20848   5.084   4.635   7.280  0.7045 -0.7269  2.0304
  182SOPE   C3820849   5.113   4.797   7.444 -0.2852 -0.0596 -0.7729
  182SOPE   H8X20850   5.133   4.906   7.435  0.1132  0.1691  2.0827
  182SOPE   H8Y20851   5.203   4.746   7.485  1.3919  1.7651 -1.9602
  182SOPE   C3920852   5.002   4.778   7.543  0.9239 -0.3610  0.6013
  182SOPE   H9X20853   4.907   4.789   7.487  1.7132  0.5867 -0.6112
  182SOPE   H9Y20854   4.989   4.864   7.613  1.4185  2.8530 -2.9160
  182SOPE  C31020855   4.998   4.643   7.612  0.0362 -0.6575 -0.0972
  182SOPE  H10X20856   5.039   4.569   7.539  0.1689 -0.3106 -0.3770
  182SOPE  H10Y20857   4.898   4.624   7.656 -0.6580  2.0968 -0.2973
  182SOPE  C31120858   5.093   4.647   7.740 -0.3990 -0.1248 -0.0211
  182SOPE  H11X20859   5.203   4.636   7.727 -0.2692  0.7021  0.3054
  182SOPE  H11Y20860   5.057   4.557   7.794 -3.3747  0.0070 -1.5493
  182SOPE  C31220861   5.055   4.763   7.833 -0.5026 -0.2578 -0.8613
  182SOPE  H12X20862   4.946   4.771   7.814 -0.7892 -0.1347  0.6771
  182SOPE  H12Y20863   5.095   4.859   7.794  0.8257 -0.2224  0.5166
  182SOPE  C31320864   5.085   4.764   7.982 -0.2970 -0.1881 -0.6004
  182SOPE  H13X20865   5.095   4.656   8.009  3.1621  0.5005  1.5825
  182SOPE  H13Y20866   5.006   4.814   8.041 -0.4012 -0.0962 -0.8157
  182SOPE  C31420867   5.222   4.823   8.020 -0.0093  0.2131 -0.1920
  182SOPE  H14X20868   5.218   4.934   8.020  2.5211  0.3478 -0.5984
  182SOPE  H14Y20869   5.290   4.781   7.943 -1.5497 -1.0545 -0.9312
  182SOPE  C31520870   5.289   4.786   8.152 -0.0135 -0.1637  0.0118
  182SOPE  H15X20871   5.258   4.851   8.237  0.1273 -1.0835  0.7771
  182SOPE  H15Y20872   5.400   4.789   8.146 -0.0431  1.4966 -0.2878
  182SOPE  C31620873   5.257   4.645   8.216  0.1376 -0.4197  0.0732
  182SOPE  H16X20874   5.315   4.567   8.161  1.9956  1.4787 -0.7758
  182SOPE  H16Y20875   5.147   4.632   8.213 -0.2582  2.5223 -1.2259
  182SOPE  C31720876   5.288   4.620   8.369 -0.6370 -0.1869  0.0991
  182SOPE  H17X20877   5.221   4.689   8.424 -0.2398  0.4045 -0.1452
  182SOPE  H17Y20878   5.392   4.648   8.395 -0.7903  0.5525 -0.0850
  182SOPE  C31820879   5.253   4.480   8.420  0.5914 -0.7594 -0.0467
  182SOPE  H18X20880   5.319   4.401   8.378 -1.1442 -2.6120  0.5059
  182SOPE  H18Y20881   5.153   4.455   8.378  0.3512 -2.1677  1.2502
  182SOPE  H18Z20882   5.251   4.484   8.531 -0.6336 -0.0965 -0.0732
  183SOPE     N20883   3.031   2.558   6.051 -0.0500  0.9016  0.2170
  183SOPE   HN120884   3.018   2.655   6.086 -2.3172  0.2214  1.4647
  183SOPE   HN220885   3.108   2.520   6.111  0.7545  2.8602  0.4831
  183SOPE   HN320886   3.065   2.564   5.954 -0.5055 -0.3481 -0.0483
  183SOPE   C1220887   2.893   2.492   6.054 -0.0809 -0.1967  0.2047
  183SOPE  H12A20888   2.896   2.387   6.089 -0.0085 -0.0819  0.5533
  183SOPE  H12B20889   2.841   2.513   5.958 -1.8283 -1.4525  0.8181
  183SOPE   C1120890   2.814   2.576   6.163 -0.1591 -0.2233 -0.6651
  183SOPE  H11A20891   2.878   2.582   6.253 -2.2115  2.5586  0.7659
  183SOPE  H11B20892   2.724   2.522   6.200  1.0087  0.0966  2.9623
  183SOPE     P20893   2.846   2.835   6.152  0.3206  0.1715 -0.2160
  183SOPE   O1320894   2.803   2.936   6.055 -0.1575  0.2138  0.2786
  183SOPE   O1420895   2.990   2.808   6.159 -0.0441  0.2996 -0.0977
  183SOPE   O1220896   2.772   2.700   6.117  0.2070  0.0781  0.1450
  183SOPE   O1120897   2.788   2.871   6.297 -0.6018  0.0998 -0.1534
  183SOPE    C120898   2.651   2.889   6.321  0.0071  0.6227 -0.7929
  183SOPE    HA20899   2.589   2.856   6.235  0.4119 -0.6356 -0.6298
  183SOPE    HB20900   2.632   2.997   6.335  0.0352  0.3340  1.9903
  183SOPE    C220901   2.599   2.812   6.442 -0.2995  0.8004 -0.9623
  183SOPE    HS20902   2.490   2.818   6.420 -0.3301  0.3417 -0.9468
  183SOPE   O2120903   2.629   2.889   6.557 -0.3491 -0.0715  0.6614
  183SOPE   C2120904   2.547   2.879   6.654  0.2674  0.0444 -1.0934
  183SOPE   O2220905   2.437   2.833   6.659  1.1095 -0.3786  0.6093
  183SOPE   C2220906   2.610   2.957   6.775  0.3926 -0.5042  0.5489
  183SOPE   H2R20907   2.613   3.064   6.747  0.0495 -0.7823 -0.5815
  183SOPE   H2S20908   2.717   2.929   6.782  1.3980  2.5797 -0.8400
  183SOPE    C320909   2.655   2.663   6.454  0.5844  0.6524  0.1355
  183SOPE    HX20910   2.766   2.658   6.463  0.4659 -0.2975  1.4427
  183SOPE    HY20911   2.620   2.611   6.362  1.8945  2.6014 -1.5419
  183SOPE   O3120912   2.587   2.591   6.559 -0.0890  0.0469  0.2786
  183SOPE   C3120913   2.636   2.589   6.686  0.0414 -0.4493 -0.4126
  183SOPE   O3220914   2.740   2.651   6.717  0.2355 -0.0343  0.0415
  183SOPE   C3220915   2.557   2.498   6.776  1.0775 -0.0364 -0.2083
  183SOPE   H2X20916   2.569   2.392   6.747  1.1615 -0.4582  1.2590
  183SOPE   H2Y20917   2.450   2.522   6.757  1.1611 -0.2883 -1.0159
  183SOPE   C2320918   2.550   2.929   6.915  0.0820  0.4876  0.2831
  183SOPE   H3R20919   2.489   2.837   6.919  1.4948 -0.4243  2.5625
  183SOPE   H3S20920   2.483   3.014   6.939  0.8335  1.9478 -2.3562
  183SOPE   C2420921   2.655   2.926   7.019  0.2831 -0.0297  0.5015
  183SOPE   H4R20922   2.712   2.832   7.004 -0.0590 -0.2736  0.7288
  183SOPE   H4S20923   2.722   3.015   7.018 -1.0255  0.9906 -1.4712
  183SOPE   C2520924   2.601   2.913   7.159  0.1453 -0.3821 -0.2264
  183SOPE   H5R20925   2.538   3.001   7.186  0.5826  0.9714 -3.1103
  183SOPE   H5S20926   2.531   2.827   7.162 -1.9995  1.1991 -1.4044
  183SOPE   C2620927   2.721   2.900   7.261 -0.3027  0.0844  1.1044
  183SOPE   H6R20928   2.782   2.812   7.231  0.2324  1.2050 -1.3464
  183SOPE   H6S20929   2.786   2.990   7.260 -0.6782  0.3772  2.1302
  183SOPE   C2720930   2.669   2.885   7.402 -0.0691 -0.1944  0.6549
  183SOPE   H7R20931   2.759   2.879   7.466 -0.7086 -0.5996  1.5424
  183SOPE   H7S20932   2.618   2.981   7.425  0.9492  0.3164  0.8012
  183SOPE   C2820933   2.584   2.761   7.433  0.2096 -0.1826  0.5432
  183SOPE   H8R20934   2.565   2.778   7.541 -1.8904 -1.0517  0.3389
  183SOPE   H8S20935   2.482   2.759   7.391 -0.2538 -2.3271  1.6176
  183SOPE   C2920936   2.650   2.628   7.399 -1.3516 -0.0026 -0.2271
  183SOPE   H9120937   2.688   2.632   7.296 -2.2170 -1.2937 -0.6260
  183SOPE  C21020938   2.663   2.519   7.470 -0.4212  0.4450  0.3286
  183SOPE  H10120939   2.725   2.435   7.437 -2.9978 -1.2470 -0.5167
  183SOPE  C21120940   2.611   2.502   7.610 -0.2696  0.8549 -0.4852
  183SOPE  H11R20941   2.612   2.396   7.643 -0.4584  1.2715  0.9509
  183SOPE  H11S20942   2.502   2.522   7.621 -0.6221 -1.7097  1.5762
  183SOPE  C21220943   2.700   2.556   7.732 -0.2399  0.0364  0.6610
  183SOPE  H12R20944   2.710   2.667   7.742 -0.6391  0.0210  1.2180
  183SOPE  H12S20945   2.796   2.511   7.699 -1.1721  0.2088 -2.7084
  183SOPE  C21320946   2.647   2.500   7.869  0.4705  1.0809 -0.3092
  183SOPE  H13R20947   2.724   2.534   7.942  0.7058  0.0148 -0.0531
  183SOPE  H13S20948   2.653   2.389   7.867  0.0670  1.0683 -0.8078
  183SOPE  C21420949   2.503   2.555   7.909 -0.4447  0.2176 -0.2238
  183SOPE  H14R20950   2.429   2.497   7.849 -1.1161  0.1778  0.6196
  183SOPE  H14S20951   2.501   2.658   7.867 -2.7595  0.5722  0.6096
  183SOPE  C21520952   2.478   2.528   8.058  0.5258  0.3073 -0.0914
  183SOPE  H15R20953   2.549   2.582   8.124 -0.1376  0.4592  0.5116
  183SOPE  H15S20954   2.486   2.420   8.082 -0.3003  0.2941  0.1683
  183SOPE  C21620955   2.344   2.576   8.102 -0.1895  0.5393  0.8243
  183SOPE  H16R20956   2.262   2.524   8.046  0.2929  0.9592 -0.2992
  183SOPE  H16S20957   2.331   2.683   8.076  1.5397  0.2594 -1.5245
  183SOPE  C21720958   2.329   2.557   8.253  0.1806  0.4713  0.9424
  183SOPE  H17R20959   2.422   2.595   8.300  0.7049 -0.1098  0.3931
  183SOPE  H17S20960   2.326   2.446   8.257  0.6834  0.2738 -2.2783
  183SOPE  C21820961   2.201   2.625   8.302  0.4577 -0.3302 -0.2041
  183SOPE  H18R20962   2.106   2.609   8.247  0.5216 -0.3500 -0.3088
  183SOPE  H18S20963   2.219   2.735   8.295 -2.6094  0.2299 -0.8139
  183SOPE  H18T20964   2.183   2.596   8.408  1.1952 -0.4751 -0.1162
  183SOPE   C3320965   2.596   2.507   6.926  0.1785 -0.0175 -0.0652
  183SOPE   H3X20966   2.517   2.453   6.982 -0.7061 -1.1991 -2.3274
  183SOPE   H3Y20967   2.597   2.610   6.968  0.9006 -0.7888  1.9472
  183SOPE   C3420968   2.734   2.436   6.963  0.4377  0.6437 -0.2520
  183SOPE   H4X20969   2.789   2.460   7.057  0.0153 -0.8880  0.4304
  183SOPE   H4Y20970   2.804   2.460   6.881  0.0233 -0.3345 -0.9158
  183SOPE   C3520971   2.721   2.278   6.951  0.3335 -0.8766  0.6080
  183SOPE   H5X20972   2.816   2.229   6.982 -0.8181 -3.2846  0.5106
  183SOPE   H5Y20973   2.694   2.250   6.847 -2.1129  0.0539  0.9497
  183SOPE   C3620974   2.619   2.215   7.045  0.8120  0.0345 -0.4347
  183SOPE   H6X20975   2.605   2.107   7.023  1.5527 -0.2244  0.3226
  183SOPE   H6Y20976   2.518   2.260   7.035 -0.3779 -1.8036  2.1120
  183SOPE   C3720977   2.652   2.238   7.199  0.0798  0.9069  0.3654
  183SOPE   H7X20978   2.644   2.345   7.225  1.6138  0.8516  1.1755
  183SOPE   H7Y20979   2.759   2.216   7.219 -0.1354 -0.9409 -0.2830
  183SOPE   C3820980   2.569   2.144   7.290  0.3264  0.2092 -0.7150
  183SOPE   H8X20981   2.556   2.041   7.250 -3.5887  1.1359 -2.3109
  183SOPE   H8Y20982   2.468   2.191   7.287  0.9993  1.7171 -0.4193
  183SOPE   C3920983   2.609   2.146   7.442 -0.7544 -0.4409  0.3334
  183SOPE   H9X20984   2.634   2.251   7.470  1.0630 -1.0125  0.9703
  183SOPE   H9Y20985   2.703   2.091   7.459 -0.9924 -0.1789  2.9291
  183SOPE  C31020986   2.497   2.093   7.532 -0.5598  0.4022 -0.9249
  183SOPE  H10X20987   2.489   1.986   7.503  1.0044 -0.6428  2.0312
  183SOPE  H10Y20988   2.414   2.164   7.512  0.5167  1.4558 -1.8121
  183SOPE  C31120989   2.538   2.089   7.682 -0.7726 -0.2793  0.2080
  183SOPE  H11X20990   2.549   2.195   7.712 -0.8418 -0.4331  0.7966
  183SOPE  H11Y20991   2.631   2.029   7.686  0.6649  1.4390 -3.4833
  183SOPE  C31220992   2.428   2.029   7.769 -0.0253 -0.7440  0.3532
  183SOPE  H12X20993   2.404   1.921   7.756 -0.6175 -0.7726  1.5219
  183SOPE  H12Y20994   2.333   2.082   7.743  2.0685  1.6995 -3.0716
  183SOPE  C31320995   2.466   2.024   7.915  0.3916  0.4069 -0.2323
  183SOPE  H13X20996   2.449   2.127   7.953 -3.4486  0.4088 -1.5340
  183SOPE  H13Y20997   2.574   1.996   7.921 -0.3595 -2.5044  2.3684
  183SOPE  C31420998   2.389   1.925   8.000 -0.4375  0.3036  0.1693
  183SOPE  H14X20999   2.405   1.819   7.972 -1.1780 -0.5923  2.8628
  183SOPE  H14Y21000   2.279   1.940   7.998 -0.9236 -2.6770 -1.1858
  183SOPE  C31521001   2.443   1.939   8.138 -0.0760 -0.5187 -0.5441
  183SOPE  H15X21002   2.364   1.918   8.213  0.5926  2.7207  1.2697
  183SOPE  H15Y21003   2.474   2.045   8.141  1.6388 -0.9929 -0.6528
  183SOPE  C31621004   2.564   1.851   8.174  0.0608 -1.2081 -0.1853
  183SOPE  H16X21005   2.644   1.871   8.100  0.2328 -0.9701  0.0601
  183SOPE  H16Y21006   2.530   1.747   8.153  1.0401 -1.9704  1.6745
  183SOPE  C31721007   2.618   1.867   8.322  0.0101  0.1181  0.3982
  183SOPE  H17X21008   2.544   1.840   8.401  0.5717 -1.1875  0.5059
  183SOPE  H17Y21009   2.644   1.974   8.332  0.7663  0.0943 -1.0277
  183SOPE  C31821010   2.731   1.771   8.366 -0.2168  0.0704  0.3451
  183SOPE  H18X21011   2.808   1.760   8.287 -0.7116 -2.8594  0.1358
  183SOPE  H18Y21012   2.691   1.667   8.365 -0.1073  0.0218  0.8447
  183SOPE  H18Z21013   2.774   1.787   8.467 -1.6166 -1.0874  1.1602
  184SOPE     N21014   2.281   3.240   5.806 -0.2633 -0.2956  0.9165
  184SOPE   HN121015   2.304   3.333   5.846  1.2228 -0.6464  0.9320
  184SOPE   HN221016   2.357   3.176   5.836 -1.0836 -1.3200  0.8625
  184SOPE   HN321017   2.300   3.254   5.704 -1.7367  0.7016  0.7506
  184SOPE   C1221018   2.153   3.181   5.847  0.1749 -0.5095  0.0743
  184SOPE  H12A21019   2.077   3.253   5.809  2.9731  2.6439 -0.0677
  184SOPE  H12B21020   2.166   3.173   5.957  0.2257 -0.2377  0.0903
  184SOPE   C1121021   2.135   3.037   5.786  0.5409 -0.3285 -0.6201
  184SOPE  H11A21022   2.206   3.032   5.700  0.5822 -0.5834 -0.5708
  184SOPE  H11B21023   2.033   3.030   5.743 -0.5089  1.3456  1.4302
  184SOPE     P21024   2.067   2.813   5.914  0.2035  0.3608  0.4307
  184SOPE   O1321025   2.135   2.726   6.010 -0.7210 -0.1799  0.5243
  184SOPE   O1421026   2.012   2.745   5.796  0.6882 -0.2266 -0.3359
  184SOPE   O1221027   2.165   2.928   5.877  0.0726  0.0177  0.0849
  184SOPE   O1121028   1.948   2.885   5.984  0.1440 -0.2491  0.2864
  184SOPE    C121029   1.956   2.991   6.082 -0.7608  0.2748 -0.4695
  184SOPE    HA21030   1.881   3.066   6.049  0.1152  1.1774 -0.4382
  184SOPE    HB21031   2.059   3.031   6.078  1.4165 -4.6651 -2.7035
  184SOPE    C221032   1.917   2.940   6.224  0.1773  0.1437  0.0670
  184SOPE    HS21033   1.986   2.857   6.249  1.0225  1.4547  2.4371
  184SOPE   O2121034   1.781   2.896   6.217  0.0596  0.9394  0.1598
  184SOPE   C2121035   1.742   2.813   6.314  0.0642 -0.0157  0.2763
  184SOPE   O2221036   1.816   2.743   6.381 -0.0418  0.5160 -0.1846
  184SOPE   C2221037   1.593   2.798   6.295 -0.3636 -0.1321  1.0823
  184SOPE   H2R21038   1.557   2.699   6.331 -2.0725 -0.3800 -1.1412
  184SOPE   H2S21039   1.567   2.811   6.188 -0.7877 -1.7879  0.9495
  184SOPE    C321040   1.938   3.044   6.331  0.2767  0.7919  0.0982
  184SOPE    HX21041   1.877   3.130   6.298  0.0087  0.6829  0.3011
  184SOPE    HY21042   2.042   3.081   6.323  1.1097 -1.0953  1.2051
  184SOPE   O3121043   1.891   3.015   6.460 -0.3080  0.4942  0.4884
  184SOPE   C3121044   1.993   2.976   6.540  0.9435 -0.0090  0.1557
  184SOPE   O3221045   2.108   2.986   6.514  0.2776 -0.2524 -0.2672
  184SOPE   C3221046   1.934   2.908   6.662 -0.4424  1.0613 -0.0219
  184SOPE   H2X21047   1.884   2.811   6.641  2.4946 -0.7450  0.6508
  184SOPE   H2Y21048   1.859   2.978   6.702  1.0599  1.2233  2.7642
  184SOPE   C2321049   1.514   2.906   6.364  0.2999 -0.2726 -0.4948
  184SOPE   H3R21050   1.411   2.908   6.322 -0.0220 -1.1552  0.2172
  184SOPE   H3S21051   1.562   3.005   6.348 -0.5707  0.1928 -0.2713
  184SOPE   C2421052   1.490   2.889   6.513  0.6070 -0.2519 -0.2707
  184SOPE   H4R21053   1.583   2.878   6.573  1.4145  2.5049 -0.8393
  184SOPE   H4S21054   1.446   2.988   6.538 -0.3310 -0.7057 -0.1077
  184SOPE   C2521055   1.385   2.780   6.544 -0.4227  0.4150 -0.2779
  184SOPE   H5R21056   1.310   2.790   6.463  2.3523  1.3018 -2.9424
  184SOPE   H5S21057   1.424   2.676   6.538 -0.6762  0.3734 -1.4645
  184SOPE   C2621058   1.309   2.794   6.676  0.3430 -0.5530  0.2604
  184SOPE   H6R21059   1.391   2.789   6.751  0.7742 -2.6012 -0.2787
  184SOPE   H6S21060   1.266   2.895   6.688 -2.1408 -1.6269  0.9443
  184SOPE   C2721061   1.190   2.701   6.672  0.2856 -0.2670 -0.0436
  184SOPE   H7R21062   1.127   2.738   6.589 -0.0850 -2.1687 -0.6471
  184SOPE   H7S21063   1.224   2.598   6.647 -0.5857 -0.4180 -0.6352
  184SOPE   C2821064   1.110   2.720   6.801 -0.6059 -0.0110  0.2963
  184SOPE   H8R21065   1.055   2.815   6.813 -0.4429 -0.1698  2.7399
  184SOPE   H8S21066   1.040   2.634   6.808  0.1144 -0.7943 -1.3882
  184SOPE   C2921067   1.200   2.702   6.919 -0.6647 -0.1284 -0.2531
  184SOPE   H9121068   1.262   2.611   6.913  0.4516  0.5869  0.1808
  184SOPE  C21021069   1.206   2.781   7.031  0.5094  0.1900  0.1534
  184SOPE  H10121070   1.279   2.760   7.111  2.0835  1.4632 -0.8895
  184SOPE  C21121071   1.118   2.901   7.065 -0.3637  0.8243 -0.4882
  184SOPE  H11R21072   1.074   2.945   6.973  3.4817  1.9332 -1.9936
  184SOPE  H11S21073   1.183   2.973   7.119  1.9588 -2.8207  2.1122
  184SOPE  C21221074   0.979   2.880   7.138  0.8683  0.0062 -0.3448
  184SOPE  H12R21075   0.925   2.810   7.072 -0.3265 -2.5623  3.0792
  184SOPE  H12S21076   0.928   2.979   7.135 -0.3301 -0.5961 -0.4629
  184SOPE  C21321077   0.975   2.835   7.281 -0.1417  0.3904 -0.1734
  184SOPE  H13R21078   0.985   2.725   7.288 -0.8002  0.2523 -1.2289
  184SOPE  H13S21079   0.879   2.860   7.330  0.4931  0.6405  0.9791
  184SOPE  C21421080   1.097   2.896   7.367 -0.0200 -0.3726 -0.3635
  184SOPE  H14R21081   1.079   3.004   7.381  0.3865 -0.3382 -0.1054
  184SOPE  H14S21082   1.191   2.887   7.309  0.9016  0.0426  1.0230
  184SOPE  C21521083   1.098   2.846   7.512 -0.5253  0.0708 -0.0121
  184SOPE  H15R21084   1.184   2.881   7.573  0.1903  0.1258 -1.0307
  184SOPE  H15S21085   1.107   2.735   7.518  0.1909 -0.0144 -1.9985
  184SOPE  C21621086   0.970   2.878   7.591  0.0343  0.0054 -0.5038
  184SOPE  H16R21087   0.889   2.805   7.569  0.2520 -1.0223  1.8440
  184SOPE  H16S21088   0.946   2.984   7.568  1.1102  0.4909  0.4973
  184SOPE  C21721089   0.996   2.852   7.745  0.2223 -0.0047  0.4625
  184SOPE  H17R21090   1.083   2.916   7.771 -1.0771  3.1816 -2.3427
  184SOPE  H17S21091   1.025   2.746   7.759  2.9134  0.8319  1.8198
  184SOPE  C21821092   0.882   2.901   7.837  0.6431  0.2457  0.1433
  184SOPE  H18R21093   0.786   2.849   7.816  1.1479 -0.4305 -0.5361
  184SOPE  H18S21094   0.874   3.010   7.815 -1.7813  0.0251 -0.2713
  184SOPE  H18T21095   0.900   2.884   7.946  1.5099 -0.0154 -0.0317
  184SOPE   C3321096   2.032   2.888   6.777  0.3460  0.7889  0.0897
  184SOPE   H3X21097   2.121   2.831   6.744 -0.4968 -1.5845  1.6473
  184SOPE   H3Y21098   1.985   2.829   6.859 -1.1168  3.0843  0.9969
  184SOPE   C3421099   2.082   3.019   6.838 -0.1673  0.1151 -0.2534
  184SOPE   H4X21100   2.007   3.095   6.866  0.6587  2.1752 -3.1714
  184SOPE   H4Y21101   2.146   3.064   6.760 -1.0184  2.3522  0.2591
  184SOPE   C3521102   2.174   2.991   6.959 -0.3046  0.4445 -0.8153
  184SOPE   H5X21103   2.211   3.091   6.988  0.9508 -0.0881 -0.5034
  184SOPE   H5Y21104   2.251   2.918   6.925 -0.8593 -1.3769  1.5552
  184SOPE   C3621105   2.102   2.946   7.090  0.1143  0.1840 -0.2217
  184SOPE   H6X21106   2.047   2.850   7.081 -0.1002  0.2333  0.5205
  184SOPE   H6Y21107   2.026   3.023   7.117 -0.4585  0.3916 -2.2182
  184SOPE   C3721108   2.200   2.944   7.205 -0.1900  0.3505  0.4769
  184SOPE   H7X21109   2.229   3.050   7.221  1.4732  0.3796 -2.1013
  184SOPE   H7Y21110   2.283   2.875   7.176 -0.6276 -0.6829  1.6221
  184SOPE   C3821111   2.130   2.890   7.329 -0.1464 -0.9312 -0.8817
  184SOPE   H8X21112   2.139   2.780   7.319  0.9845 -1.0883  1.2306
  184SOPE   H8Y21113   2.022   2.915   7.329 -0.6048 -2.7582 -0.2071
  184SOPE   C3921114   2.196   2.945   7.457  0.1361  0.1981 -1.0216
  184SOPE   H9X21115   2.175   3.054   7.466  2.0081  0.4666  0.4050
  184SOPE   H9Y21116   2.306   2.934   7.449  0.4428  3.0551 -2.1206
  184SOPE  C31021117   2.155   2.881   7.592  0.3971 -0.3826 -0.3645
  184SOPE  H10X21118   2.205   2.782   7.583 -1.0587 -0.9416 -4.7982
  184SOPE  H10Y21119   2.047   2.870   7.611  0.3667  2.9253  2.5005
  184SOPE  C31121120   2.217   2.958   7.714 -0.2021  0.1671  0.1709
  184SOPE  H11X21121   2.173   2.922   7.809 -0.9268  0.7323  0.0617
  184SOPE  H11Y21122   2.192   3.066   7.700  0.5277  0.5241  1.5051
  184SOPE  C31221123   2.368   2.939   7.716  0.1024  0.0940 -0.1937
  184SOPE  H12X21124   2.421   2.984   7.629  1.3187  4.7096  2.5561
  184SOPE  H12Y21125   2.393   2.831   7.704 -0.8287  0.0255 -1.7130
  184SOPE  C31321126   2.435   2.988   7.843 -0.4198  0.0570 -0.0444
  184SOPE  H13X21127   2.397   2.924   7.926 -1.3873  0.7560  0.0668
  184SOPE  H13Y21128   2.386   3.085   7.864  2.5294  1.3370  1.7126
  184SOPE  C31421129   2.591   3.000   7.840  0.8149  0.0772 -0.3403
  184SOPE  H14X21130   2.633   3.060   7.757 -0.8095  3.6933  1.2119
  184SOPE  H14Y21131   2.630   2.896   7.850  0.8540  0.2395  1.4881
  184SOPE  C31521132   2.636   3.073   7.972  0.2823  0.2771 -0.1949
  184SOPE  H15X21133   2.600   3.178   7.984  0.9467  0.5674 -0.6610
  184SOPE  H15Y21134   2.747   3.082   7.974  0.3245 -0.0068 -0.8701
  184SOPE  C31621135   2.607   2.995   8.106 -0.0295  0.8937 -0.5827
  184SOPE  H16X21136   2.608   2.885   8.092 -1.9311  0.5958  1.2821
  184SOPE  H16Y21137   2.502   3.014   8.134  0.3200  1.9852  0.0564
  184SOPE  C31721138   2.700   3.031   8.220 -0.5083 -0.2622  0.0145
  184SOPE  H17X21139   2.681   3.139   8.237 -0.5535 -0.6356  2.7851
  184SOPE  H17Y21140   2.806   3.012   8.195 -0.7683  0.7177 -2.0624
  184SOPE  C31821141   2.677   2.957   8.350  0.4097  0.2862  0.4829
  184SOPE  H18X21142   2.727   3.010   8.433 -1.2344  0.9286  1.1165
  184SOPE  H18Y21143   2.711   2.851   8.349  4.3432  1.4220 -0.0969
  184SOPE  H18Z21144   2.568   2.965   8.370 -0.0317  2.3410 -2.2117
  185SAPI   C1221145   2.098   5.787  10.149 -0.5005  0.4401 -0.2167
  185SAPI    H221146   2.029   5.871  10.124  2.1055  2.5454 -0.7283
  185SAPI    O221147   2.049   5.724  10.274 -0.2345  0.3133  0.2964
  185SAPI   HO221148   2.016   5.791  10.334  1.7679  2.6575 -1.0228
  185SAPI   C1321149   2.062   5.696  10.028  0.0931  1.2023  0.2012
  185SAPI    H321150   2.091   5.748   9.934 -0.6673  3.2702  1.0602
  185SAPI    O321151   1.922   5.669  10.017  0.2235 -0.2704  0.7473
  185SAPI   HO321152   1.889   5.612  10.086 -1.1978 -0.3982 -0.0221
  185SAPI   C1421153   2.150   5.573  10.031  0.9862  0.1317 -0.6805
  185SAPI    H421154   2.112   5.531  10.127  0.4308  0.3795 -0.7870
  185SAPI    O421155   2.116   5.476   9.927  0.4206 -0.4270 -0.2576
  185SAPI   HO421156   2.113   5.392   9.974 -1.0038  0.3165  1.0711
  185SAPI   C1521157   2.305   5.593  10.054  0.2680  0.0053 -0.2384
  185SAPI    H521158   2.337   5.610   9.949  0.6879  1.6083  0.1210
  185SAPI    O521159   2.361   5.470  10.104 -0.5229 -0.0811  0.1979
  185SAPI   HO521160   2.394   5.417  10.032  0.9063 -1.7642  1.9753
  185SAPI   C1621161   2.340   5.706  10.152 -0.0909 -0.1819 -0.0742
  185SAPI    H621162   2.323   5.666  10.255 -0.3389  1.6621  0.6306
  185SAPI    O621163   2.473   5.752  10.141 -0.2334 -0.1583  0.3836
  185SAPI   HO621164   2.469   5.846  10.160 -1.4082 -0.0916 -0.1453
  185SAPI   C1121165   2.244   5.823  10.151  0.0231  0.0776  0.9626
  185SAPI    H121166   2.257   5.863  10.049  0.2723 -4.7623 -1.1700
  185SAPI     P21167   2.281   6.078  10.208  0.1497  0.0154 -0.2251
  185SAPI   O1321168   2.312   6.165  10.326 -0.5048  0.4388  0.4251
  185SAPI   O1421169   2.160   6.109  10.128  0.1123  0.4123 -0.5196
  185SAPI   O1221170   2.279   5.919  10.256  0.6730  0.1608  0.2994
  185SAPI   O1121171   2.408   6.075  10.108  0.7118  0.4959  0.2375
  185SAPI    C121172   2.535   6.129  10.146  0.4322 -0.0930 -0.9227
  185SAPI    HA21173   2.525   6.230  10.190 -0.0562 -1.1318  1.5418
  185SAPI    HB21174   2.577   6.061  10.224 -2.5113  0.1304  0.9944
  185SAPI    C221175   2.625   6.119  10.019  0.2599  0.4314 -0.8969
  185SAPI    HS21176   2.704   6.198  10.022  1.5178 -0.7677 -1.2965
  185SAPI   O2121177   2.552   6.144   9.896  0.2084  0.0585 -0.0558
  185SAPI   C2121178   2.502   6.267   9.888  0.0483  0.4755 -0.5078
  185SAPI   O2221179   2.532   6.355   9.968 -0.2584  0.2784 -0.1602
  185SAPI   C2221180   2.401   6.280   9.775  0.0441 -0.2889  0.0618
  185SAPI   H2R21181   2.393   6.379   9.725  0.4113 -0.7062 -0.8416
  185SAPI   H2S21182   2.432   6.206   9.699 -0.0286 -0.6618  0.3899
  185SAPI    C321183   2.696   5.984  10.017 -0.0534 -0.2338  0.0318
  185SAPI    HX21184   2.727   5.972   9.911  2.1704 -1.0220  0.7220
  185SAPI    HY21185   2.620   5.909  10.050  2.5385 -1.4105  4.0521
  185SAPI   O3121186   2.807   5.980  10.108  0.1177  0.3531 -0.2359
  185SAPI   C3121187   2.902   5.903  10.060 -0.8612  0.5148 -0.9162
  185SAPI   O3221188   2.898   5.840   9.954 -0.2165  0.1575 -0.2012
  185SAPI   C3221189   3.014   5.893  10.159  0.1358 -0.3579  0.4592
  185SAPI   H2X21190   2.991   5.813  10.232  0.0852  1.0695  2.0709
  185SAPI   H2Y21191   3.013   5.979  10.229  1.9984  0.2815 -0.2459
  185SAPI   C2321192   2.263   6.232   9.815 -0.8348  0.2048 -0.0713
  185SAPI   H3R21193   2.235   6.298   9.900  2.8180 -0.9978  2.2753
  185SAPI   H3S21194   2.259   6.132   9.864  1.1127  0.8745  1.5773
  185SAPI   C2421195   2.169   6.236   9.696  0.2482 -0.2773 -0.0179
  185SAPI   H4R21196   2.210   6.182   9.608 -0.8060 -0.0676 -0.6603
  185SAPI   H4S21197   2.167   6.343   9.664  3.3932  0.5195  2.0042
  185SAPI   C2521198   2.028   6.185   9.719  0.3038  0.0853 -0.3483
  185SAPI   H5R21199   1.953   6.265   9.718 -0.0243 -0.2214 -0.6066
  185SAPI   C2621200   1.994   6.058   9.726  0.2866 -0.0883 -0.8677
  185SAPI   H6R21201   1.887   6.039   9.743  0.5439  0.6063  2.0962
  185SAPI   C2721202   2.089   5.943   9.707 -0.2218  0.5003  0.1685
  185SAPI   H7R21203   2.126   5.919   9.808 -1.1562 -0.5295  0.2791
  185SAPI   H7S21204   2.172   5.976   9.640 -0.6262 -1.9848 -1.7163
  185SAPI   C2821205   2.028   5.821   9.650  0.5372 -0.8369  0.7700
  185SAPI   H8R21206   2.017   5.737   9.720  0.1384 -0.6431  0.9385
  185SAPI   C2921207   1.994   5.789   9.527 -0.8326  0.4560  0.1125
  185SAPI   H9R21208   1.949   5.690   9.511  0.7463 -0.9327  3.4065
  185SAPI  C21021209   2.001   5.887   9.418  0.1640 -0.3393 -0.3794
  185SAPI  H10R21210   2.085   5.961   9.417  0.6169 -0.6965  2.4941
  185SAPI  H10S21211   1.913   5.951   9.441  0.8383  0.1795  0.8409
  185SAPI  C21121212   1.951   5.831   9.287  1.1230 -0.1484 -0.3738
  185SAPI  H11R21213   1.911   5.729   9.299 -0.8506  0.5261 -0.7983
  185SAPI  C21221214   1.944   5.891   9.173  0.6205  0.2440 -0.0507
  185SAPI  H12R21215   1.903   5.842   9.084 -1.8634 -0.7682  1.5168
  185SAPI  C21321216   1.981   6.038   9.159 -0.1076 -0.4970 -0.1603
  185SAPI  H13R21217   2.092   6.047   9.160 -0.2079  4.0584 -2.4060
  185SAPI  H13S21218   1.939   6.099   9.241 -2.8667 -0.0175 -1.8143
  185SAPI  C21421219   1.925   6.112   9.031 -0.5080 -0.3107  0.7191
  185SAPI  H14R21220   1.817   6.131   9.021 -0.3821  0.2036  0.3127
  185SAPI  C21521221   1.996   6.143   8.918  0.1493  0.3752  0.1972
  185SAPI  H15R21222   1.960   6.205   8.834  0.8379  0.2134 -0.2289
  185SAPI  C21621223   2.145   6.122   8.887 -0.5659  0.2881  1.1183
  185SAPI  H16R21224   2.202   6.100   8.980  2.2735 -0.2468 -0.5839
  185SAPI  H16S21225   2.201   6.211   8.849  1.3490 -1.0582  0.6002
  185SAPI  C21721226   2.167   6.002   8.798 -0.2878  0.7098 -0.3340
  185SAPI  H17R21227   2.159   6.032   8.691  0.1642 -0.6843 -0.7863
  185SAPI  H17S21228   2.097   5.920   8.822  1.1405 -0.0206  1.5795
  185SAPI  C21821229   2.307   5.942   8.800 -0.5063 -0.0935  0.6762
  185SAPI  H18R21230   2.317   5.861   8.725 -1.5688  0.1235  0.2749
  185SAPI  H18S21231   2.308   5.905   8.904 -1.8995 -0.5970  0.5402
  185SAPI  C21921232   2.420   6.051   8.772  1.1534  0.2445 -0.0195
  185SAPI  H19R21233   2.396   6.146   8.825 -2.9441 -1.5813  1.7903
  185SAPI  H19S21234   2.411   6.089   8.668 -2.3458 -0.1824  0.0165
  185SAPI  C22021235   2.548   6.000   8.813 -0.5750  0.0145 -0.8078
  185SAPI  H20R21236   2.618   6.087   8.813 -0.8783  0.4992  3.6871
  185SAPI  H20S21237   2.595   5.921   8.751 -0.7365  0.3045 -1.3035
  185SAPI  H20T21238   2.544   5.965   8.919  2.7322  0.4676 -0.4054
  185SAPI   C3321239   3.157   5.872  10.099 -0.2477 -0.2623 -0.5641
  185SAPI   H3X21240   3.157   5.782  10.033  1.7132 -0.7469  0.0440
  185SAPI   H3Y21241   3.229   5.868  10.183 -1.7207 -0.4567  0.7475
  185SAPI   C3421242   3.190   5.991  10.012  0.7533 -0.3347  0.2643
  185SAPI   H4X21243   3.178   6.087  10.067 -0.6863  0.6329 -1.6317
  185SAPI   H4Y21244   3.120   5.995   9.926  2.3776 -1.6514 -1.2159
  185SAPI   C3521245   3.334   5.990   9.950 -0.2381 -0.1313  0.6462
  185SAPI   H5X21246   3.348   5.887   9.910 -0.3857  0.4077 -0.8657
  185SAPI   H5Y21247   3.404   6.005  10.034  0.6160 -1.0146  0.1173
  185SAPI   C3621248   3.352   6.082   9.829 -0.0344 -0.2897  0.0487
  185SAPI   H6X21249   3.456   6.119   9.816 -0.0321 -0.7907 -1.7043
  185SAPI   H6Y21250   3.285   6.169   9.846  0.9843  0.4773  0.2691
  185SAPI   C3721251   3.308   6.008   9.704  0.1270 -0.0491  0.5947
  185SAPI   H7X21252   3.206   5.970   9.726  1.2267 -2.9532  1.2007
  185SAPI   H7Y21253   3.374   5.921   9.686 -0.2375 -0.0476 -0.8753
  185SAPI   C3821254   3.322   6.103   9.579  0.7249  0.0605  0.1370
  185SAPI   H8X21255   3.421   6.097   9.528  1.1265  3.3048  0.3378
  185SAPI   H8Y21256   3.311   6.205   9.621 -0.6951  0.2775 -0.7133
  185SAPI   C3921257   3.210   6.084   9.472  0.1912  0.0662  0.9110
  185SAPI   H9X21258   3.135   6.166   9.471 -0.0968 -0.1227  3.1198
  185SAPI   H9Y21259   3.155   5.990   9.493 -2.9083  1.5810  0.0789
  185SAPI  C31021260   3.254   6.068   9.324 -0.6372  0.6883  0.2336
  185SAPI  H10X21261   3.309   5.972   9.313  0.0261  1.1560 -0.6697
  185SAPI  H10Y21262   3.319   6.156   9.302  0.7197  0.2998  2.3863
  185SAPI  C31121263   3.124   6.058   9.238 -0.4590 -0.2595  0.4235
  185SAPI  H11X21264   3.067   6.151   9.257  1.2412  1.1721 -1.0718
  185SAPI  H11Y21265   3.061   5.972   9.268  0.2253 -1.9792 -2.6068
  185SAPI  C31221266   3.159   6.060   9.084 -0.0070  0.6015 -0.0572
  185SAPI  H12X21267   3.224   5.976   9.054  0.3786  1.0395 -0.4584
  185SAPI  H12Y21268   3.220   6.151   9.064  2.1302 -0.6398  0.5058
  185SAPI  C31321269   3.047   6.059   8.985 -0.1255  0.0073  0.1194
  185SAPI  H13X21270   2.988   6.153   8.991 -0.6096 -0.2992  0.2863
  185SAPI  H13Y21271   2.971   5.980   9.002 -1.1127  0.8813 -0.1035
  185SAPI  C31421272   3.092   6.028   8.839  0.1867 -0.2852  0.7817
  185SAPI  H14X21273   2.995   6.031   8.783  1.3165 -1.5930 -1.3923
  185SAPI  H14Y21274   3.129   5.923   8.832 -1.9577 -1.1411  1.3671
  185SAPI  C31521275   3.195   6.123   8.771  0.3426  0.6980  0.6580
  185SAPI  H15X21276   3.204   6.090   8.666  0.2941 -0.2707  0.9478
  185SAPI  H15Y21277   3.289   6.103   8.826  0.4270 -0.4521  0.1260
  185SAPI  C31621278   3.170   6.274   8.777 -0.1696 -0.2474 -0.7626
  185SAPI  H16X21279   3.269   6.317   8.750 -0.4367  0.7480 -0.2052
  185SAPI  H16Y21280   3.143   6.308   8.879 -2.6051 -0.8388 -1.1369
  185SAPI  C31721281   3.062   6.328   8.679 -0.4000 -0.3586 -0.0769
  185SAPI  H17X21282   2.958   6.301   8.707 -0.5385  1.3732  1.2805
  185SAPI  H17Y21283   3.081   6.278   8.582 -0.6647 -0.7073  0.0489
  185SAPI  C31821284   3.061   6.479   8.657  0.1828  0.0726 -0.0009
  185SAPI  H18X21285   3.029   6.521   8.754  0.5953 -0.8931  0.5705
  185SAPI  H18Y21286   2.983   6.501   8.581  0.2255 -2.1791 -0.7899
  185SAPI  H18Z21287   3.161   6.510   8.622  0.0568  0.5358  0.0427
  186SAPI   C1221288   2.600   4.029  10.280  0.7019  0.3890 -0.1201
  186SAPI    H221289   2.552   4.006  10.182  0.5971 -0.3051  0.0878
  186SAPI    O221290   2.733   3.977  10.269  0.1197  0.1392  0.3575
  186SAPI   HO221291   2.719   3.886  10.296 -1.7751  0.4860  0.7375
  186SAPI   C1321292   2.600   4.180  10.289  0.5020  0.0977  0.2578
  186SAPI    H321293   2.491   4.203  10.293 -0.1841 -2.6135 -0.5002
  186SAPI    O321294   2.666   4.238  10.178  0.0754  0.4712  0.0147
  186SAPI   HO321295   2.761   4.222  10.175  0.3730  1.3815  2.2272
  186SAPI   C1421296   2.665   4.220  10.419 -0.1457 -0.2964 -0.2088
  186SAPI    H421297   2.773   4.197  10.425  0.1830  1.3557  0.9984
  186SAPI    O421298   2.661   4.361  10.439  0.4220 -0.3891  0.1513
  186SAPI   HO421299   2.732   4.401  10.389  0.5246 -2.3253 -1.3603
  186SAPI   C1521300   2.614   4.146  10.545  0.4616  0.5801  0.5054
  186SAPI    H521301   2.519   4.198  10.571  1.2755  3.3016 -1.5431
  186SAPI    O521302   2.687   4.159  10.668 -0.2539 -0.0438 -0.2746
  186SAPI   HO521303   2.725   4.071  10.671 -1.6038 -0.6324  0.2283
  186SAPI   C1621304   2.570   4.001  10.522 -0.6625  0.1969  0.4377
  186SAPI    H621305   2.663   3.940  10.529  0.3495  1.7817  1.3296
  186SAPI    O621306   2.493   3.953  10.625 -0.3305 -0.1795 -0.4099
  186SAPI   HO621307   2.422   3.899  10.590  0.4388 -0.8434 -1.0096
  186SAPI   C1121308   2.516   3.964  10.387  0.0530  0.5511 -0.1357
  186SAPI    H121309   2.419   4.016  10.372  0.6526  2.0381  0.9685
  186SAPI     P21310   2.384   3.719  10.386 -0.3346 -0.0281 -0.0774
  186SAPI   O1321311   2.283   3.793  10.462  0.6436  0.0650  0.3842
  186SAPI   O1421312   2.439   3.598  10.455 -0.9066 -0.1537  0.4088
  186SAPI   O1221313   2.515   3.823  10.367 -0.3966  0.2438  0.3571
  186SAPI   O1121314   2.336   3.686  10.242 -0.0501  0.1001  0.3974
  186SAPI    C121315   2.310   3.787  10.137  0.0976 -0.1140 -0.2232
  186SAPI    HA21316   2.222   3.847  10.167 -0.9908 -0.1529 -3.0066
  186SAPI    HB21317   2.397   3.855  10.124 -0.8863  0.8331 -2.2924
  186SAPI    C221318   2.271   3.720  10.003 -0.3538  0.7677  0.0041
  186SAPI    HS21319   2.204   3.638  10.037  0.3989  0.5071  0.8893
  186SAPI   O2121320   2.393   3.671   9.943  0.2116 -0.0853 -0.0353
  186SAPI   C2121321   2.389   3.543   9.919  0.1496 -0.0638  0.8620
  186SAPI   O2221322   2.290   3.474   9.931  0.1224  0.0111  0.3138
  186SAPI   C2221323   2.523   3.482   9.878 -0.3156  0.0725  1.0005
  186SAPI   H2R21324   2.551   3.407   9.955 -0.1656  1.1292  2.0059
  186SAPI   H2S21325   2.509   3.420   9.787 -5.1442  0.5320  1.1737
  186SAPI    C321326   2.196   3.812   9.911 -0.7082  0.1612 -0.1986
  186SAPI    HX21327   2.270   3.890   9.882 -0.6359 -0.1453 -0.8503
  186SAPI    HY21328   2.113   3.856   9.971  1.2658  2.5380  0.9515
  186SAPI   O3121329   2.152   3.747   9.790 -0.0021 -0.3876  0.2661
  186SAPI   C3121330   2.054   3.661   9.819  0.1922 -0.7553 -0.2031
  186SAPI   O3221331   2.007   3.629   9.923  0.4425 -0.1603  0.5314
  186SAPI   C3221332   2.021   3.589   9.681 -0.4388  0.6520 -0.0411
  186SAPI   H2X21333   2.113   3.585   9.620 -0.5630 -2.4427 -0.1470
  186SAPI   H2Y21334   1.958   3.664   9.628 -1.7961  0.6491  1.4789
  186SAPI   C2321335   2.652   3.577   9.844 -0.1321 -0.1268  0.1258
  186SAPI   H3R21336   2.745   3.528   9.879 -0.1453  0.1615  0.5821
  186SAPI   H3S21337   2.644   3.671   9.902 -1.2150  0.4457 -0.8984
  186SAPI   C2421338   2.670   3.630   9.701  0.0041 -0.1700 -0.4723
  186SAPI   H4R21339   2.759   3.698   9.707 -0.4134  0.2937  0.9580
  186SAPI   H4S21340   2.583   3.694   9.675  0.4366  0.6848  0.1321
  186SAPI   C2521341   2.691   3.519   9.598 -0.2744 -0.7690  0.3559
  186SAPI   H5R21342   2.791   3.473   9.599  1.1443  2.1080 -0.0093
  186SAPI   C2621343   2.598   3.467   9.517 -0.2567  0.1757  0.3614
  186SAPI   H6R21344   2.615   3.376   9.457  2.7934 -0.3692  1.8607
  186SAPI   C2721345   2.449   3.501   9.505  0.1509 -0.3554  0.1401
  186SAPI   H7R21346   2.412   3.518   9.608  0.2767 -0.6536  0.2345
  186SAPI   H7S21347   2.403   3.415   9.454 -0.2722 -0.1342  0.1466
  186SAPI   C2821348   2.406   3.624   9.415 -0.5707 -0.1672 -0.4084
  186SAPI   H8R21349   2.362   3.705   9.475  0.7182  0.3283 -0.1195
  186SAPI   C2921350   2.405   3.621   9.278  0.5626 -0.2630  0.5425
  186SAPI   H9R21351   2.361   3.697   9.213  0.4302 -0.3560  0.5224
  186SAPI  C21021352   2.442   3.499   9.193 -0.1710  0.2037  0.1432
  186SAPI  H10R21353   2.365   3.421   9.212  0.4598 -0.4180  0.2111
  186SAPI  H10S21354   2.529   3.449   9.240 -0.3852 -0.9103 -0.6187
  186SAPI  C21121355   2.471   3.519   9.049 -0.1152 -0.5731  0.2590
  186SAPI  H11R21356   2.388   3.497   8.981 -0.1307  1.1469 -0.3294
  186SAPI  C21221357   2.598   3.552   9.000  0.0586  0.4362  0.0835
  186SAPI  H12R21358   2.604   3.559   8.890 -3.2976  0.7119 -0.2003
  186SAPI  C21321359   2.725   3.584   9.082  0.3934 -0.4099 -0.2918
  186SAPI  H13R21360   2.800   3.507   9.053 -1.3917 -2.0838 -0.7262
  186SAPI  H13S21361   2.724   3.572   9.192  1.4140  0.4258 -0.1709
  186SAPI  C21421362   2.785   3.723   9.049 -0.2424  0.4499 -0.6384
  186SAPI  H14R21363   2.771   3.805   9.121  1.2489 -0.6690  1.0264
  186SAPI  C21521364   2.863   3.750   8.946 -0.5660 -0.1464  0.5264
  186SAPI  H15R21365   2.880   3.858   8.930 -0.2994 -0.4311 -1.3337
  186SAPI  C21621366   2.906   3.659   8.835  0.7139  0.7419  0.5197
  186SAPI  H16R21367   2.834   3.577   8.816  1.6492  0.1501 -0.5707
  186SAPI  H16S21368   2.994   3.601   8.871 -0.0639 -0.5884  0.3649
  186SAPI  C21721369   2.944   3.727   8.695 -0.2047  0.2534  0.1519
  186SAPI  H17R21370   2.847   3.775   8.667  0.1937  0.7217 -0.4515
  186SAPI  H17S21371   2.967   3.650   8.619  0.0293  0.3260  0.1491
  186SAPI  C21821372   3.047   3.832   8.707  0.0040 -0.8664  0.3682
  186SAPI  H18R21373   3.137   3.788   8.755  0.2341 -0.1030  0.6639
  186SAPI  H18S21374   3.021   3.921   8.768  0.6983 -0.4503  0.0790
  186SAPI  C21921375   3.092   3.898   8.572 -0.2511  0.0750  0.7392
  186SAPI  H19R21376   3.002   3.956   8.542  0.9465  1.7445  0.2176
  186SAPI  H19S21377   3.130   3.824   8.499 -0.6179  0.6652 -0.0586
  186SAPI  C22021378   3.201   4.005   8.599 -0.4510 -0.2950 -0.4863
  186SAPI  H20R21379   3.297   3.957   8.627 -0.1426  0.7223  0.2422
  186SAPI  H20S21380   3.182   4.063   8.691 -0.7253  2.2197 -2.0339
  186SAPI  H20T21381   3.235   4.080   8.524  2.3328  1.4462  2.2967
  186SAPI   C3321382   1.962   3.448   9.688  0.0119 -0.2805  0.0897
  186SAPI   H3X21383   1.863   3.455   9.738  0.7787 -0.5527  1.7278
  186SAPI   H3Y21384   2.022   3.385   9.758 -2.6855 -1.7655  1.2326
  186SAPI   C3421385   1.950   3.362   9.562  0.5501 -0.2142 -0.1412
  186SAPI   H4X21386   1.918   3.260   9.593 -2.0541 -0.0137 -1.8971
  186SAPI   H4Y21387   2.056   3.351   9.532  0.6701  0.2574  0.0915
  186SAPI   C3521388   1.841   3.409   9.467  0.0319 -0.2056 -0.4043
  186SAPI   H5X21389   1.841   3.520   9.453 -0.6825 -0.3404 -1.6140
  186SAPI   H5Y21390   1.742   3.384   9.511 -0.9277  2.6394 -0.7097
  186SAPI   C3621391   1.857   3.333   9.334  0.2835 -0.5010  0.1075
  186SAPI   H6X21392   1.770   3.352   9.267 -0.4498 -1.0268  0.8993
  186SAPI   H6Y21393   1.862   3.224   9.351  1.3498 -0.2175  1.8692
  186SAPI   C3721394   1.982   3.375   9.251 -0.6004 -0.2721  0.7074
  186SAPI   H7X21395   2.080   3.375   9.303  1.2816  3.3267 -2.3129
  186SAPI   H7Y21396   1.968   3.483   9.228 -0.3101 -0.1514  1.0818
  186SAPI   C3821397   1.992   3.318   9.111  0.0885 -0.0407 -0.8257
  186SAPI   H8X21398   1.886   3.309   9.078 -0.2774  1.7507 -0.2349
  186SAPI   H8Y21399   2.021   3.210   9.109 -1.2270 -0.4067 -2.1505
  186SAPI   C3921400   2.084   3.397   9.020  0.6497  0.3271  0.0412
  186SAPI   H9X21401   2.169   3.420   9.087  1.0619 -0.3508 -0.2429
  186SAPI   H9Y21402   2.040   3.497   8.999  1.7933  1.8076  3.8374
  186SAPI  C31021403   2.129   3.325   8.894  0.1173  0.1290 -0.1303
  186SAPI  H10X21404   2.192   3.241   8.933 -1.0319 -1.2409 -1.1245
  186SAPI  H10Y21405   2.184   3.392   8.824  2.5708  1.5934  2.9170
  186SAPI  C31121406   2.018   3.262   8.798 -0.2867  0.2026  0.0682
  186SAPI  H11X21407   1.937   3.333   8.773 -0.3642 -0.3773 -1.3895
  186SAPI  H11Y21408   1.965   3.184   8.857  1.0680  1.2394  2.8435
  186SAPI  C31221409   2.074   3.200   8.673  0.4791  0.1244 -1.0748
  186SAPI  H12X21410   2.117   3.100   8.696  0.5633  0.2767 -0.5625
  186SAPI  H12Y21411   2.162   3.254   8.633  1.5057 -1.7491 -1.4193
  186SAPI  C31321412   1.962   3.181   8.568  0.2720  0.0591 -0.1077
  186SAPI  H13X21413   1.915   3.279   8.544  2.0566  0.6118 -1.6098
  186SAPI  H13Y21414   1.888   3.127   8.629 -1.6384  3.1259  0.5245
  186SAPI  C31421415   1.994   3.106   8.443 -0.0286  0.9354 -0.2503
  186SAPI  H14X21416   1.906   3.111   8.375 -0.2066  1.3303  0.0030
  186SAPI  H14Y21417   2.008   2.998   8.466 -0.1611  0.9380 -0.1550
  186SAPI  C31521418   2.125   3.162   8.376  1.2190 -0.3446 -0.3832
  186SAPI  H15X21419   2.203   3.149   8.454 -0.7138 -4.1378  1.1729
  186SAPI  H15Y21420   2.109   3.271   8.361  0.8061 -0.3404  0.0473
  186SAPI  C31621421   2.163   3.097   8.251 -0.8351 -0.0722  0.4355
  186SAPI  H16X21422   2.066   3.060   8.211  1.7241 -2.5275 -4.4157
  186SAPI  H16Y21423   2.222   3.005   8.269 -1.4877 -0.7315 -0.6876
  186SAPI  C31721424   2.217   3.195   8.144 -0.3109 -0.4546 -0.4161
  186SAPI  H17X21425   2.298   3.147   8.084 -0.6220 -1.4145 -0.0942
  186SAPI  H17Y21426   2.258   3.286   8.193  0.4312  0.1544 -2.1018
  186SAPI  C31821427   2.108   3.233   8.045 -0.3893 -0.6531 -0.4266
  186SAPI  H18X21428   2.028   3.281   8.105  0.9806  1.0155  0.1461
  186SAPI  H18Y21429   2.064   3.149   7.987 -1.5237 -0.3166 -0.0806
  186SAPI  H18Z21430   2.149   3.294   7.962  0.4329 -2.0426 -1.0796
  187SAPI   C1221431   0.275   5.599   5.988  0.5295  0.1578 -0.6313
  187SAPI    H221432   0.262   5.693   5.929 -1.5148  0.1144 -0.3081
  187SAPI    O221433   0.240   5.642   6.122  0.2131  0.1753 -0.1032
  187SAPI   HO221434   0.306   5.709   6.139 -0.2403  1.2737 -2.2821
  187SAPI   C1321435   0.185   5.496   5.933  0.3385 -0.0050 -0.0047
  187SAPI    H321436   0.220   5.469   5.831 -0.9906 -2.5369  0.1144
  187SAPI    O321437   0.053   5.542   5.916 -0.2617  0.4872 -0.4529
  187SAPI   HO321438   0.001   5.466   5.892 -1.0424  1.5331 -2.2994
  187SAPI   C1421439   0.189   5.367   6.016  0.1152  0.0836  0.0203
  187SAPI    H421440   0.147   5.401   6.112  1.5654  1.2322  0.2905
  187SAPI    O421441   0.099   5.263   5.971  0.2972 -0.4257 -0.3001
  187SAPI   HO421442   0.088   5.202   6.045 -1.5290  1.0162  0.6947
  187SAPI   C1521443   0.327   5.313   6.047  0.1080 -0.1592 -0.3558
  187SAPI    H521444   0.347   5.267   5.949 -1.4798 -1.1574 -0.2458
  187SAPI    O521445   0.327   5.210   6.146 -0.6114  0.0937  0.1881
  187SAPI   HO521446   0.335   5.121   6.111 -3.2066 -0.4172  0.6890
  187SAPI   C1621447   0.439   5.419   6.065 -0.4754  0.0189  0.1486
  187SAPI    H621448   0.442   5.445   6.173 -0.1212  0.3141  0.0680
  187SAPI    O621449   0.574   5.372   6.051  0.1360 -0.1551 -0.6126
  187SAPI   HO621450   0.628   5.450   6.065 -2.1002  1.2956  0.6821
  187SAPI   C1121451   0.421   5.545   5.991  0.0041 -0.5024  0.5994
  187SAPI    H121452   0.457   5.522   5.889  0.5613  0.2188  0.6260
  187SAPI     P21453   0.520   5.795   5.982 -0.2104 -0.4418  0.2888
  187SAPI   O1321454   0.477   5.794   5.835 -1.0589 -0.3247  0.0918
  187SAPI   O1421455   0.653   5.834   6.024 -0.4879 -0.1507  0.6210
  187SAPI   O1221456   0.504   5.646   6.046 -0.4433 -0.0548 -0.0524
  187SAPI   O1121457   0.408   5.871   6.075  0.3771  0.3937  0.2595
  187SAPI    C121458   0.457   5.944   6.185  0.1342 -0.0681 -0.8015
  187SAPI    HA21459   0.529   6.022   6.154  0.6921 -0.0114  0.5685
  187SAPI    HB21460   0.378   6.006   6.233 -0.4497  0.4066 -2.2978
  187SAPI    C221461   0.525   5.859   6.299  0.3913  0.3279 -0.2027
  187SAPI    HS21462   0.627   5.827   6.272  0.3967 -0.5856  0.8305
  187SAPI   O2121463   0.441   5.746   6.325  0.1323  0.3232  0.6253
  187SAPI   C2121464   0.499   5.638   6.369 -0.3668 -0.1445  0.8248
  187SAPI   O2221465   0.618   5.623   6.378  0.2399 -0.3429  1.0250
  187SAPI   C2221466   0.403   5.531   6.416 -0.3750 -0.3496  0.7949
  187SAPI   H2R21467   0.317   5.528   6.346 -0.0633 -0.9534  0.4302
  187SAPI   H2S21468   0.458   5.436   6.399  0.4532  0.1451  0.6762
  187SAPI    C321469   0.553   5.950   6.423 -0.3571  0.2258  0.0493
  187SAPI    HX21470   0.448   5.974   6.449 -0.5011  0.7379 -0.9629
  187SAPI    HY21471   0.626   6.028   6.390 -1.1203  1.0461  0.2707
  187SAPI   O3121472   0.608   5.883   6.539 -0.0657  0.2979  0.0140
  187SAPI   C3121473   0.741   5.884   6.546  0.2570  0.7056 -0.1337
  187SAPI   O3221474   0.820   5.936   6.467  0.3792  0.0294 -0.3593
  187SAPI   C3221475   0.785   5.814   6.674 -0.4748 -0.1819  0.3412
  187SAPI   H2X21476   0.846   5.727   6.640 -1.2064  0.0660 -1.7023
  187SAPI   H2Y21477   0.690   5.783   6.723  0.4886 -0.4707  2.1215
  187SAPI   C2321478   0.357   5.587   6.552  0.0773 -0.2548  0.0242
  187SAPI   H3R21479   0.271   5.522   6.581  0.6959 -0.5706  1.2228
  187SAPI   H3S21480   0.317   5.690   6.542  4.2162  1.4426 -1.1646
  187SAPI   C2421481   0.462   5.587   6.670  0.4090  0.1294  0.6335
  187SAPI   H4R21482   0.404   5.638   6.749  2.7766  0.7162  2.0805
  187SAPI   H4S21483   0.547   5.654   6.642  1.0921 -1.4994 -1.5173
  187SAPI   C2521484   0.519   5.454   6.707 -0.1919  0.0455 -0.6232
  187SAPI   H5R21485   0.522   5.382   6.624 -1.7920 -0.7179 -0.0599
  187SAPI   C2621486   0.546   5.405   6.831  0.1650  1.0897 -0.0137
  187SAPI   H6R21487   0.578   5.301   6.841 -1.6142  0.6828  2.1836
  187SAPI   C2721488   0.552   5.480   6.957  0.4206  0.1943 -0.1493
  187SAPI   H7R21489   0.504   5.421   7.039 -0.5760 -0.6105 -1.2653
  187SAPI   H7S21490   0.489   5.570   6.941  1.5988  0.9347 -0.7130
  187SAPI   C2821491   0.695   5.522   6.992 -0.4715  0.3075  0.6094
  187SAPI   H8R21492   0.747   5.584   6.918 -1.0370  1.6547  1.2922
  187SAPI   C2921493   0.766   5.489   7.102 -0.1309 -0.0957  0.1569
  187SAPI   H9R21494   0.874   5.505   7.109  0.0660 -1.6461  1.3548
  187SAPI  C21021495   0.700   5.433   7.231  0.6133 -0.1325 -0.7946
  187SAPI  H10R21496   0.737   5.332   7.259 -1.5324 -0.4252  1.2566
  187SAPI  H10S21497   0.590   5.422   7.221  0.6523  0.0180 -1.5029
  187SAPI  C21121498   0.716   5.529   7.343 -0.4670  0.3800  1.0774
  187SAPI  H11R21499   0.693   5.632   7.313  0.8197  0.0168 -1.3714
  187SAPI  C21221500   0.731   5.498   7.472 -0.4399  0.2852 -0.0720
  187SAPI  H12R21501   0.741   5.578   7.547 -2.4120 -0.5629  1.1849
  187SAPI  C21321502   0.758   5.365   7.542  0.4596  0.2548  0.2127
  187SAPI  H13R21503   0.844   5.362   7.613 -0.7506  2.2910  1.8892
  187SAPI  H13S21504   0.789   5.292   7.463  1.1650 -1.0338  1.6327
  187SAPI  C21421505   0.628   5.321   7.600 -0.3838  0.1874  0.3900
  187SAPI  H14R21506   0.551   5.281   7.534 -1.0824 -1.7480  2.2764
  187SAPI  C21521507   0.598   5.326   7.732 -0.6246 -1.7889  0.4201
  187SAPI  H15R21508   0.504   5.276   7.761 -2.3101  0.7965 -0.1989
  187SAPI  C21621509   0.674   5.379   7.847  0.5973 -0.3306 -0.3267
  187SAPI  H16R21510   0.625   5.366   7.946  2.1643 -1.3231  0.3652
  187SAPI  H16S21511   0.676   5.488   7.827 -1.5852 -0.2821 -0.5017
  187SAPI  C21721512   0.812   5.326   7.883  0.1775 -0.0034 -0.2470
  187SAPI  H17R21513   0.857   5.400   7.953 -1.4712  0.2280  0.6450
  187SAPI  H17S21514   0.879   5.326   7.795  1.4101  0.4869  0.6675
  187SAPI  C21821515   0.818   5.184   7.937  0.0085 -0.2447 -0.1677
  187SAPI  H18R21516   0.730   5.123   7.905 -0.6583  0.6919 -0.1510
  187SAPI  H18S21517   0.818   5.180   8.048  0.5153 -2.6067 -0.1998
  187SAPI  C21921518   0.943   5.118   7.888 -0.1449 -0.3888 -0.0112
  187SAPI  H19R21519   0.945   5.111   7.777 -2.1026 -0.7187 -0.0678
  187SAPI  H19S21520   0.942   5.016   7.932  0.8209 -0.3467  0.1275
  187SAPI  C22021521   1.081   5.175   7.949 -0.1261  0.4538 -0.1618
  187SAPI  H20R21522   1.168   5.106   7.945 -1.3076 -1.0148 -1.5763
  187SAPI  H20S21523   1.055   5.187   8.057 -1.0617 -1.6953 -0.1083
  187SAPI  H20T21524   1.106   5.275   7.908  3.0090  0.3739  1.2369
  187SAPI   C3321525   0.866   5.904   6.772  0.2482  0.4013  0.5376
  187SAPI   H3X21526   0.803   5.993   6.794  0.3810  0.5351  0.3765
  187SAPI   H3Y21527   0.949   5.946   6.713 -1.3905  0.3139 -1.9943
  187SAPI   C3421528   0.915   5.829   6.903 -0.3833 -0.6541  1.2773
  187SAPI   H4X21529   0.983   5.749   6.868  0.6859  0.6416  0.2639
  187SAPI   H4Y21530   0.823   5.785   6.947 -0.4748 -3.4937 -1.4673
  187SAPI   C3521531   0.990   5.928   6.994 -0.0334  0.3409  0.6285
  187SAPI   H5X21532   0.951   6.032   6.996  1.8056  1.0695  0.3217
  187SAPI   H5Y21533   1.093   5.933   6.954  0.0118  2.5958  0.8700
  187SAPI   C3621534   1.012   5.868   7.136  0.5351 -0.1887  0.6064
  187SAPI   H6X21535   1.105   5.902   7.186 -0.1006  0.7611  1.1686
  187SAPI   H6Y21536   1.014   5.757   7.127  0.0297 -0.2778  1.5184
  187SAPI   C3721537   0.901   5.910   7.236 -0.0501 -1.1555 -0.4218
  187SAPI   H7X21538   0.806   5.859   7.211 -0.3130 -0.1892 -1.4784
  187SAPI   H7Y21539   0.891   6.020   7.228  3.2419 -0.8620 -2.7263
  187SAPI   C3821540   0.941   5.859   7.376 -0.2739  0.6249  0.5392
  187SAPI   H8X21541   1.035   5.899   7.420 -2.0413  0.9776  4.3418
  187SAPI   H8Y21542   0.942   5.748   7.372 -0.8425  0.6332 -0.0436
  187SAPI   C3921543   0.833   5.889   7.480 -0.4955 -0.3041 -0.6598
  187SAPI   H9X21544   0.746   5.829   7.447 -1.9701  1.2471  0.2216
  187SAPI   H9Y21545   0.806   5.997   7.473 -1.4787 -0.4966  0.0790
  187SAPI  C31021546   0.878   5.874   7.627  0.0333  0.8529  0.2210
  187SAPI  H10X21547   0.921   5.970   7.663 -2.2517  1.9272  0.2689
  187SAPI  H10Y21548   0.957   5.797   7.639  0.2314  0.9074 -0.6130
  187SAPI  C31121549   0.759   5.852   7.719 -0.2742 -0.1594 -0.6245
  187SAPI  H11X21550   0.701   5.762   7.688  0.8474 -1.3378  0.5307
  187SAPI  H11Y21551   0.692   5.939   7.707 -0.2368 -0.1711 -0.9253
  187SAPI  C31221552   0.816   5.839   7.867  0.2159 -0.2952  0.2216
  187SAPI  H12X21553   0.876   5.932   7.878  0.3050 -0.1709 -1.0894
  187SAPI  H12Y21554   0.895   5.762   7.877  0.0614 -0.3264  1.2243
  187SAPI  C31321555   0.713   5.811   7.978 -0.0652 -0.2750  0.6402
  187SAPI  H13X21556   0.646   5.733   7.938 -3.7568  2.8331  0.1603
  187SAPI  H13Y21557   0.659   5.904   8.005  0.4198  0.5151 -0.9917
  187SAPI  C31421558   0.774   5.742   8.103 -0.3556  0.0244  0.1941
  187SAPI  H14X21559   0.849   5.816   8.139  0.4076  0.6993 -2.5194
  187SAPI  H14Y21560   0.836   5.656   8.069 -0.8984 -1.6227  3.0385
  187SAPI  C31521561   0.670   5.684   8.206  0.6899  0.1488 -0.1149
  187SAPI  H15X21562   0.598   5.634   8.137  0.3539  0.8325 -0.2588
  187SAPI  H15Y21563   0.631   5.775   8.255  2.0027  0.4941  0.3058
  187SAPI  C31621564   0.726   5.591   8.310  0.2895 -0.2300 -0.3217
  187SAPI  H16X21565   0.640   5.544   8.361 -0.4165  2.1497  0.8240
  187SAPI  H16Y21566   0.775   5.645   8.394 -1.0751 -2.2632  1.8935
  187SAPI  C31721567   0.826   5.485   8.260 -0.2722 -0.4986 -0.6214
  187SAPI  H17X21568   0.914   5.543   8.225 -1.6445  0.3399 -2.9384
  187SAPI  H17Y21569   0.788   5.426   8.174 -0.9107 -0.5995 -0.2796
  187SAPI  C31821570   0.860   5.382   8.371  0.0732  0.8070 -0.4080
  187SAPI  H18X21571   0.837   5.430   8.469  1.4608 -0.4879  0.5996
  187SAPI  H18Y21572   0.969   5.361   8.363 -0.3330 -1.2349 -1.0288
  187SAPI  H18Z21573   0.793   5.294   8.368 -1.5730  1.9930 -0.0457
  188SAPI   C1221574   3.671   1.313   5.952 -0.3348 -0.0505  0.1206
  188SAPI    H221575   3.683   1.310   6.063 -1.0017 -1.8083  0.1836
  188SAPI    O221576   3.802   1.272   5.907  0.4327  0.2980 -0.0943
  188SAPI   HO221577   3.853   1.353   5.904 -1.1154  1.3004 -0.8581
  188SAPI   C1321578   3.556   1.238   5.901  0.5935  0.6377  0.5657
  188SAPI    H321579   3.460   1.287   5.929 -0.2925  1.9983 -4.0664
  188SAPI    O321580   3.560   1.117   5.972 -0.1943 -0.4084  0.1975
  188SAPI   HO321581   3.632   1.056   5.951 -1.1290 -2.0014  1.3592
  188SAPI   C1421582   3.561   1.223   5.750 -0.6975 -0.1742 -0.2884
  188SAPI    H421583   3.657   1.169   5.738 -1.4472 -1.2665 -1.5692
  188SAPI    O421584   3.462   1.141   5.705  0.3393  0.3032 -0.2086
  188SAPI   HO421585   3.502   1.058   5.676 -0.4622 -0.7898  1.5857
  188SAPI   C1521586   3.586   1.355   5.678  0.0091  0.3652  0.3033
  188SAPI    H521587   3.487   1.396   5.647  0.8279  0.5883 -2.3407
  188SAPI    O521588   3.656   1.340   5.555 -0.0663  0.1616 -0.1163
  188SAPI   HO521589   3.745   1.314   5.579  0.4117  0.9935 -0.8960
  188SAPI   C1621590   3.643   1.481   5.756  0.3117 -0.3071  0.0612
  188SAPI    H621591   3.749   1.492   5.727  0.7319  0.7630  1.8392
  188SAPI    O621592   3.588   1.609   5.718 -0.0093  0.3673  0.2898
  188SAPI   HO621593   3.500   1.627   5.754 -0.4618 -0.4478 -0.3789
  188SAPI   C1121594   3.646   1.457   5.910 -0.0067 -0.7010 -0.3707
  188SAPI    H121595   3.545   1.486   5.948  0.7301 -1.2197  2.1634
  188SAPI     P21596   3.708   1.684   6.043 -0.0083  0.1279  0.1030
  188SAPI   O1321597   3.561   1.707   6.068  0.1398  0.2972  0.1927
  188SAPI   O1421598   3.792   1.784   5.976  0.1710  0.0548  0.1044
  188SAPI   O1221599   3.747   1.530   5.987 -0.0251 -0.8062  0.3197
  188SAPI   O1121600   3.768   1.660   6.185  0.0440 -0.2691 -0.8624
  188SAPI    C121601   3.749   1.548   6.278  0.1701  0.3196  0.3822
  188SAPI    HA21602   3.672   1.477   6.241  0.9842 -0.1013 -0.5419
  188SAPI    HB21603   3.839   1.484   6.271  0.2609  0.2858  1.6695
  188SAPI    C221604   3.716   1.590   6.420  0.1535 -0.5125 -1.1680
  188SAPI    HS21605   3.681   1.503   6.479  2.2783 -2.0475 -2.0112
  188SAPI   O2121606   3.623   1.695   6.420  0.2393 -0.7240 -0.2705
  188SAPI   C2121607   3.504   1.667   6.374  0.9635 -0.6765 -0.1662
  188SAPI   O2221608   3.467   1.556   6.343  0.3873  0.3782 -0.4432
  188SAPI   C2221609   3.412   1.788   6.360 -0.1717 -0.0235  0.2997
  188SAPI   H2R21610   3.461   1.874   6.310  1.7206 -0.3058  1.5712
  188SAPI   H2S21611   3.325   1.766   6.295  1.7912 -1.8869 -1.9017
  188SAPI    C321612   3.837   1.637   6.507  0.0486 -0.1683 -0.1422
  188SAPI    HX21613   3.874   1.725   6.452 -0.0981 -0.4125 -0.6398
  188SAPI    HY21614   3.920   1.564   6.493 -0.2612 -0.1973 -2.2011
  188SAPI   O3121615   3.810   1.673   6.647 -0.8414  0.1183 -0.0490
  188SAPI   C3121616   3.779   1.798   6.672  0.3645 -0.7244  0.4066
  188SAPI   O3221617   3.778   1.893   6.591 -0.2066  0.0597 -0.0560
  188SAPI   C3221618   3.758   1.811   6.823 -0.1967  0.1496 -0.7568
  188SAPI   H2X21619   3.834   1.750   6.878 -0.8619 -0.0833 -0.0796
  188SAPI   H2Y21620   3.667   1.749   6.841 -1.4027  2.1564  0.4291
  188SAPI   C2321621   3.377   1.845   6.497 -0.6336 -0.0030  0.2764
  188SAPI   H3R21622   3.305   1.925   6.468  1.2610  1.4673 -0.5955
  188SAPI   H3S21623   3.469   1.891   6.539  1.9050 -2.2692 -2.4086
  188SAPI   C2421624   3.296   1.752   6.592 -0.7761  0.2937  0.3184
  188SAPI   H4R21625   3.229   1.691   6.527  0.3803 -0.1249 -0.5198
  188SAPI   H4S21626   3.237   1.817   6.659  1.0925 -0.2923  2.6770
  188SAPI   C2521627   3.391   1.676   6.679  0.4545  0.2386  0.1209
  188SAPI   H5R21628   3.491   1.659   6.637  0.1807 -0.0308 -0.4276
  188SAPI   C2621629   3.365   1.641   6.803  0.1939  0.0814  0.3542
  188SAPI   H6R21630   3.446   1.595   6.862  1.3952 -1.1772 -2.1204
  188SAPI   C2721631   3.236   1.643   6.876  0.0755 -0.2012 -0.6328
  188SAPI   H7R21632   3.229   1.545   6.926  1.9570  0.1421  0.3693
  188SAPI   H7S21633   3.155   1.666   6.803  1.3865  2.5910 -1.3531
  188SAPI   C2821634   3.231   1.748   6.983 -0.0408  0.0424  0.4603
  188SAPI   H8R21635   3.210   1.852   6.952  1.6478  0.7986  1.6984
  188SAPI   C2921636   3.226   1.722   7.118 -0.0702 -0.0983  0.0240
  188SAPI   H9R21637   3.221   1.811   7.183  1.6478  2.1130 -2.6236
  188SAPI  C21021638   3.250   1.589   7.191  0.0540 -0.3188 -0.1014
  188SAPI  H10R21639   3.356   1.585   7.223 -0.0210 -0.4472  0.1262
  188SAPI  H10S21640   3.250   1.509   7.114  1.4951 -1.1891  0.7634
  188SAPI  C21121641   3.164   1.561   7.314 -0.4018  0.2597  0.0779
  188SAPI  H11R21642   3.080   1.501   7.277 -1.5558  2.5925 -1.3345
  188SAPI  C21221643   3.186   1.579   7.446  0.0386 -0.8776 -0.9598
  188SAPI  H12R21644   3.109   1.543   7.515 -0.9508  2.2032 -0.2961
  188SAPI  C21321645   3.310   1.649   7.496 -0.1071  0.4359 -0.0176
  188SAPI  H13R21646   3.395   1.629   7.427 -0.1007  1.2084 -0.2325
  188SAPI  H13S21647   3.337   1.597   7.591  2.0470 -3.5165 -2.5037
  188SAPI  C21421648   3.284   1.799   7.520 -0.4134  0.1944  0.1178
  188SAPI  H14R21649   3.247   1.855   7.432 -0.5580 -0.3085 -0.1458
  188SAPI  C21521650   3.290   1.862   7.636 -0.4831 -0.0249 -0.7534
  188SAPI  H15R21651   3.261   1.968   7.636 -0.2995  0.0916 -3.1646
  188SAPI  C21621652   3.350   1.801   7.760 -0.3543  0.4661 -0.5920
  188SAPI  H16R21653   3.436   1.733   7.745  0.7661  1.6603  0.2306
  188SAPI  H16S21654   3.263   1.750   7.805  0.2340 -0.4723 -0.5049
  188SAPI  C21721655   3.383   1.903   7.876  0.0952 -0.2193 -0.0824
  188SAPI  H17R21656   3.284   1.948   7.895  0.6739  0.7329  0.7615
  188SAPI  H17S21657   3.454   1.975   7.830  0.2367  1.4088  2.5363
  188SAPI  C21821658   3.439   1.834   8.002 -0.4610  0.2781 -0.4233
  188SAPI  H18R21659   3.536   1.785   7.979 -0.8109 -0.0202 -1.2872
  188SAPI  H18S21660   3.371   1.756   8.042 -1.2823  1.2202  0.0480
  188SAPI  C21921661   3.457   1.931   8.120 -0.0017  0.1500 -0.5716
  188SAPI  H19R21662   3.515   2.019   8.084 -1.1411  2.0900  1.9942
  188SAPI  H19S21663   3.517   1.892   8.205 -2.8640 -0.6373  1.2613
  188SAPI  C22021664   3.329   1.996   8.182 -0.1534 -0.0219 -0.8960
  188SAPI  H20R21665   3.278   2.045   8.096 -0.3962  0.7915 -0.2987
  188SAPI  H20S21666   3.346   2.069   8.263 -1.6676 -0.6485  0.0237
  188SAPI  H20T21667   3.256   1.922   8.221 -0.9642  1.4292  0.4099
  188SAPI   C3321668   3.748   1.958   6.869  0.6647  0.2612  0.9538
  188SAPI   H3X21669   3.664   1.995   6.806 -0.9527 -2.0082  1.6358
  188SAPI   H3Y21670   3.835   2.015   6.831  0.2587  0.6832  0.6475
  188SAPI   C3421671   3.717   1.985   7.012 -1.0446  0.2487 -0.5709
  188SAPI   H4X21672   3.711   2.095   7.025 -0.5362  0.0163  2.1439
  188SAPI   H4Y21673   3.809   1.935   7.048 -2.1506 -2.0136 -0.6470
  188SAPI   C3521674   3.588   1.921   7.064 -0.2402  0.0701 -0.4003
  188SAPI   H5X21675   3.595   1.811   7.048  0.8881 -0.6161  3.7216
  188SAPI   H5Y21676   3.500   1.959   7.008  0.0019 -0.0023 -0.8321
  188SAPI   C3621677   3.569   1.936   7.219  0.3859 -0.4378  0.0814
  188SAPI   H6X21678   3.487   1.866   7.248  0.0931 -0.0272  0.2445
  188SAPI   H6Y21679   3.537   2.038   7.248  1.1137 -0.2365  0.1847
  188SAPI   C3721680   3.691   1.880   7.298  0.1432 -0.2163 -0.3881
  188SAPI   H7X21681   3.774   1.952   7.283  0.9028 -1.0494 -0.2567
  188SAPI   H7Y21682   3.710   1.786   7.240 -1.1765  0.3646 -1.8390
  188SAPI   C3821683   3.664   1.851   7.451 -0.4562 -0.2731  0.1871
  188SAPI   H8X21684   3.582   1.777   7.464  1.0105 -1.8871  0.6511
  188SAPI   H8Y21685   3.620   1.951   7.472 -0.1543 -0.1491  0.2313
  188SAPI   C3921686   3.787   1.826   7.543  0.4005  0.3457 -0.3437
  188SAPI   H9X21687   3.865   1.894   7.503  1.9967 -0.3780  1.3825
  188SAPI   H9Y21688   3.827   1.724   7.526 -0.4122 -0.4211  1.9909
  188SAPI  C31021689   3.753   1.847   7.691 -0.2500 -0.0438 -0.1962
  188SAPI  H10X21690   3.670   1.780   7.722 -1.3173  1.8086  1.1617
  188SAPI  H10Y21691   3.724   1.951   7.717  1.2593 -0.1053  1.9269
  188SAPI  C31121692   3.870   1.812   7.778 -0.3611 -0.2044 -0.2497
  188SAPI  H11X21693   3.949   1.890   7.769  0.3475 -0.9351 -0.4188
  188SAPI  H11Y21694   3.902   1.707   7.760 -0.8725 -0.4265  0.1133
  188SAPI  C31221695   3.835   1.809   7.927 -1.0945 -0.6660 -0.0961
  188SAPI  H12X21696   3.768   1.721   7.938  0.4596 -1.6835  1.6343
  188SAPI  H12Y21697   3.790   1.898   7.978 -0.1083 -0.6720  0.8251
  188SAPI  C31321698   3.959   1.781   8.013 -0.1408 -0.5688  0.4704
  188SAPI  H13X21699   4.013   1.878   8.019  0.2010 -0.7066 -0.2799
  188SAPI  H13Y21700   4.020   1.695   7.979  3.1712  2.2263 -1.4028
  188SAPI  C31421701   3.926   1.739   8.165  0.9125  0.0076 -0.0088
  188SAPI  H14X21702   3.855   1.653   8.164  0.0103  0.7093  0.8363
  188SAPI  H14Y21703   3.877   1.828   8.211  0.7452 -0.0089 -0.1543
  188SAPI  C31521704   4.050   1.707   8.246 -0.6624  0.0010  0.1385
  188SAPI  H15X21705   4.138   1.772   8.224 -1.2100  0.5636 -0.4369
  188SAPI  H15Y21706   4.078   1.601   8.229  0.0451 -0.1884  2.2067
  188SAPI  C31621707   4.034   1.718   8.398 -0.0667 -0.1097 -0.5876
  188SAPI  H16X21708   3.938   1.677   8.434 -0.5367  1.0136 -0.5129
  188SAPI  H16Y21709   4.031   1.826   8.423 -1.6271 -0.2152 -0.2490
  188SAPI  C31721710   4.157   1.651   8.462  0.9126 -0.6839 -0.4157
  188SAPI  H17X21711   4.163   1.691   8.566 -1.0793  1.0777 -0.9205
  188SAPI  H17Y21712   4.248   1.683   8.406 -1.1228  3.0229 -1.9237
  188SAPI  C31821713   4.162   1.501   8.471 -0.3579  0.7466 -0.0190
  188SAPI  H18X21714   4.115   1.449   8.385 -3.7705 -0.4628  2.3452
  188SAPI  H18Y21715   4.086   1.468   8.545 -1.2055  1.3590 -0.5888
  188SAPI  H18Z21716   4.265   1.469   8.497 -0.5295 -0.0935 -0.3433
  189POPC     N21717   1.585   3.382  10.391  0.3689 -0.0405 -0.2120
  189POPC   C1221718   1.496   3.283  10.314  0.0999  0.3709 -0.1928
  189POPC  H12A21719   1.498   3.327  10.215 -0.9300  1.4177  0.2229
  189POPC  H12B21720   1.393   3.302  10.343  0.0257  1.0234 -0.8388
  189POPC   C1321721   1.547   3.372  10.533 -0.1802  0.1786 -0.3472
  189POPC  H13A21722   1.441   3.365  10.552 -0.4512  2.7782 -0.6213
  189POPC  H13B21723   1.588   3.276  10.563  0.6970  0.2378 -1.3042
  189POPC  H13C21724   1.588   3.451  10.593 -1.0456 -0.3926  1.0516
  189POPC   C1421725   1.730   3.351  10.363  0.2332  0.0067 -0.1717
  189POPC  H14A21726   1.762   3.250  10.388  0.0165 -0.1745 -0.6182
  189POPC  H14B21727   1.762   3.373  10.262  0.5150  1.8310  0.2846
  189POPC  H14C21728   1.787   3.424  10.419 -0.2574 -0.8886  1.5936
  189POPC   C1521729   1.557   3.520  10.345  0.2582  0.4998 -0.7510
  189POPC  H15A21730   1.528   3.511  10.241 -2.7004 -0.3706  0.0548
  189POPC  H15B21731   1.634   3.592  10.369  0.1732 -0.2406  2.0193
  189POPC  H15C21732   1.467   3.555  10.392 -0.4642 -4.0761  1.7983
  189POPC   C1121733   1.509   3.130  10.325 -0.3834  0.7216 -0.0112
  189POPC  H11A21734   1.597   3.109  10.260 -0.9682  2.0152 -1.3089
  189POPC  H11B21735   1.432   3.064  10.280  0.2289 -0.4938  0.6938
  189POPC     P21736   1.428   3.060  10.559  0.3017 -0.2061  0.1268
  189POPC   O1321737   1.354   3.184  10.598 -0.5050  0.5704 -0.1496
  189POPC   O1421738   1.485   2.983  10.669 -0.3466 -0.3956 -0.0577
  189POPC   O1221739   1.543   3.084  10.455  0.3803  0.4785 -0.1303
  189POPC   O1121740   1.321   2.972  10.478  0.4421  0.1847 -0.6901
  189POPC    C121741   1.350   2.840  10.439 -0.4782  0.1493 -0.1927
  189POPC    HA21742   1.361   2.783  10.534  1.7266 -0.0694 -0.5236
  189POPC    HB21743   1.441   2.839  10.375 -0.3826  2.1244 -0.1365
  189POPC    C221744   1.246   2.780  10.339 -0.0508  0.0028  0.9233
  189POPC    HS21745   1.257   2.671  10.358 -2.2271 -0.0563  2.0926
  189POPC   O2121746   1.278   2.817  10.205 -0.0695  0.7647  0.0086
  189POPC   C2121747   1.321   2.713  10.130 -0.0026  0.4323  0.8032
  189POPC   O2221748   1.331   2.597  10.170  0.5209 -0.1791  0.4721
  189POPC   C2221749   1.335   2.752   9.974 -0.1467 -0.2870  0.3922
  189POPC   H2R21750   1.407   2.836   9.963  1.5085 -1.6905 -0.0178
  189POPC   H2S21751   1.233   2.786   9.947 -0.4210 -2.0291 -0.8971
  189POPC    C321752   1.107   2.832  10.378  0.7068  0.1795  0.0789
  189POPC    HX21753   1.089   2.941  10.376 -1.8093 -0.1593 -0.0618
  189POPC    HY21754   1.076   2.817  10.484  1.0490  0.3443  0.2031
  189POPC   O3121755   1.006   2.781  10.290  0.2526 -0.2867  0.4013
  189POPC   C3121756   0.880   2.817  10.324 -0.0343  0.5874  0.5068
  189POPC   O3221757   0.850   2.885  10.418 -0.2186 -0.1334 -0.6898
  189POPC   C3221758   0.788   2.777  10.215 -0.0814  0.2568  0.2300
  189POPC   H2X21759   0.717   2.702  10.255  0.6433 -0.6728 -0.1923
  189POPC   H2Y21760   0.853   2.731  10.137  1.6520  1.3481  0.9642
  189POPC   C2321761   1.391   2.635   9.886 -0.4991 -0.4865  0.2191
  189POPC   H3R21762   1.338   2.537   9.886 -1.0213 -0.2094  0.6300
  189POPC   H3S21763   1.491   2.606   9.924 -0.7755 -0.1584  1.2106
  189POPC   C2421764   1.408   2.680   9.733 -0.1694  0.1397 -0.7172
  189POPC   H4R21765   1.460   2.597   9.680 -1.1909 -1.1588  0.2242
  189POPC   H4S21766   1.472   2.771   9.729 -0.6315  0.5309  0.2634
  189POPC   C2521767   1.276   2.704   9.652  0.6745 -0.4057 -0.3210
  189POPC   H5R21768   1.221   2.797   9.679  1.8426  0.2810 -0.2166
  189POPC   H5S21769   1.208   2.618   9.666  2.1965 -1.8450 -1.3908
  189POPC   C2621770   1.310   2.729   9.505  0.4793 -0.4551  0.1704
  189POPC   H6R21771   1.360   2.642   9.457  3.0132  1.2860 -0.5323
  189POPC   H6S21772   1.373   2.819   9.491  1.1251 -1.1581 -1.9174
  189POPC   C2721773   1.184   2.750   9.410  0.2347  0.0580  0.3306
  189POPC   H7R21774   1.130   2.843   9.438 -0.8556 -0.3813 -0.2525
  189POPC   H7S21775   1.109   2.670   9.429  1.1952 -1.0175 -0.3085
  189POPC   C2821776   1.218   2.743   9.265  0.2799 -0.4200 -1.0190
  189POPC   H8R21777   1.273   2.646   9.265  1.1167 -0.0077  1.6320
  189POPC   H8S21778   1.294   2.824   9.255  0.4476 -0.6274 -1.4592
  189POPC   C2921779   1.099   2.732   9.171 -0.1302  0.1418 -0.6555
  189POPC   H9121780   1.017   2.663   9.197 -0.4566 -0.7346 -3.6531
  189POPC  C21021781   1.088   2.795   9.055 -0.2660 -0.7346  1.0865
  189POPC  H10121782   0.996   2.773   8.998 -1.2971  2.5932  1.2314
  189POPC  C21121783   1.196   2.885   8.992  0.9339 -0.2273 -0.3828
  189POPC  H11R21784   1.292   2.876   9.048 -0.2840  0.3904  1.9222
  189POPC  H11S21785   1.159   2.988   8.975 -0.1218 -0.8195 -1.9014
  189POPC  C21221786   1.230   2.836   8.848 -0.2464  0.3612 -0.1035
  189POPC  H12R21787   1.265   2.730   8.848 -0.0284  0.4329 -0.2984
  189POPC  H12S21788   1.317   2.894   8.811 -0.8792  0.2815 -1.8135
  189POPC  C21321789   1.118   2.853   8.749  0.0365  0.3496  0.3264
  189POPC  H13R21790   1.068   2.951   8.762 -0.4839 -0.0056  1.0435
  189POPC  H13S21791   1.041   2.774   8.764 -0.4440  0.5474 -0.9871
  189POPC  C21421792   1.167   2.838   8.597  0.2253  0.7317  0.2662
  189POPC  H14R21793   1.200   2.732   8.585 -1.4840 -0.1306  2.4417
  189POPC  H14S21794   1.251   2.906   8.572  1.9714 -1.6644 -0.9138
  189POPC  C21521795   1.064   2.864   8.484 -0.1783 -0.2610  0.4702
  189POPC  H15R21796   1.092   2.806   8.393 -0.6398 -0.4740  0.4613
  189POPC  H15S21797   1.065   2.972   8.458 -0.4548 -0.2605  0.4538
  189POPC  C21621798   0.923   2.815   8.514 -0.1500 -0.1487  1.0488
  189POPC  H16R21799   0.895   2.868   8.607 -0.4184  2.4706 -0.4264
  189POPC  H16S21800   0.929   2.706   8.534  2.3149 -0.3513 -0.3805
  189POPC  C21721801   0.822   2.861   8.406  0.1005  0.6309  0.7022
  189POPC  H17R21802   0.821   2.790   8.320  1.5288  1.6706 -0.2055
  189POPC  H17S21803   0.847   2.962   8.369 -1.3611  0.2275 -1.5960
  189POPC  C21821804   0.678   2.868   8.455 -0.6975  0.4808  0.1772
  189POPC  H18R21805   0.605   2.894   8.375 -1.2330 -0.3998  0.3676
  189POPC  H18S21806   0.678   2.942   8.537  3.2662  1.9366 -0.9032
  189POPC  H18T21807   0.656   2.768   8.498  1.9324  0.3722  1.4525
  189POPC   C3321808   0.720   2.896  10.151 -0.0368  0.3910  0.4182
  189POPC   H3X21809   0.793   2.965  10.104  0.6949 -0.4194  0.3293
  189POPC   H3Y21810   0.654   2.947  10.224  2.5881  1.4653  2.2213
  189POPC   C3421811   0.623   2.852  10.038  0.0488  0.3680  0.1650
  189POPC   H4X21812   0.576   2.947  10.004  1.4725  0.2657 -2.2897
  189POPC   H4Y21813   0.542   2.795  10.088  1.0286  0.2118  1.6278
  189POPC   C3521814   0.680   2.785   9.916  0.7715  0.1752 -0.0146
  189POPC   H5X21815   0.753   2.706   9.946 -1.1315 -1.0927  1.5233
  189POPC   H5Y21816   0.749   2.858   9.869  1.6515  0.1983  1.2608
  189POPC   C3621817   0.566   2.731   9.819 -0.0048 -0.1470  0.3757
  189POPC   H6X21818   0.496   2.817   9.810  0.4718  0.3354  1.1498
  189POPC   H6Y21819   0.521   2.650   9.879 -2.0140  0.2271 -0.5567
  189POPC   C3721820   0.607   2.671   9.681 -0.3482 -0.4171  0.3249
  189POPC   H7X21821   0.513   2.644   9.628  1.5452 -2.0748 -2.4322
  189POPC   H7Y21822   0.667   2.579   9.699  1.5121  0.5327 -0.7069
  189POPC   C3821823   0.675   2.786   9.603 -0.5486  0.6244 -0.4929
  189POPC   H8X21824   0.764   2.812   9.665 -1.2627  0.9544  0.4138
  189POPC   H8Y21825   0.606   2.872   9.596  0.9582  1.9333  0.0292
  189POPC   C3921826   0.707   2.745   9.461  0.1381 -0.8232 -0.5298
  189POPC   H9X21827   0.617   2.704   9.411 -0.2883 -0.0035 -0.4550
  189POPC   H9Y21828   0.784   2.666   9.449  0.5792 -0.2761 -1.4831
  189POPC  C31021829   0.761   2.867   9.382  0.1989 -1.0056  0.4792
  189POPC  H10X21830   0.863   2.889   9.421  0.5672  2.0535 -1.8267
  189POPC  H10Y21831   0.690   2.952   9.396  0.5511 -0.7620  0.8177
  189POPC  C31121832   0.769   2.837   9.233  0.0374  0.2790  0.0162
  189POPC  H11X21833   0.787   2.728   9.232 -1.7255 -0.1250  2.6408
  189POPC  H11Y21834   0.855   2.891   9.187  0.0158  0.8741  0.6562
  189POPC  C31221835   0.652   2.850   9.154  0.2494  0.7158  0.0648
  189POPC  H12X21836   0.599   2.947   9.162 -0.6563  0.1190  1.7287
  189POPC  H12Y21837   0.581   2.767   9.176 -0.9423  1.4251 -0.9777
  189POPC  C31321838   0.683   2.830   9.005 -0.3373  0.2195  0.0571
  189POPC  H13X21839   0.762   2.752   9.000 -1.6368 -1.2012  1.0009
  189POPC  H13Y21840   0.719   2.914   8.941  1.1684 -0.7116 -0.3752
  189POPC  C31421841   0.558   2.771   8.935  0.4717 -0.5654 -0.4509
  189POPC  H14X21842   0.469   2.834   8.957  1.7618  1.1959 -0.0911
  189POPC  H14Y21843   0.532   2.675   8.985 -2.2851 -1.0530 -2.5682
  189POPC  C31521844   0.577   2.753   8.787  0.8060  0.0702  0.5491
  189POPC  H15X21845   0.682   2.727   8.761 -0.2463 -1.6616 -2.3992
  189POPC  H15Y21846   0.557   2.852   8.741 -2.3290 -0.3858  0.7231
  189POPC  C31621847   0.491   2.638   8.736 -0.0696 -0.1646 -0.6480
  189POPC  H16X21848   0.386   2.658   8.767  0.0927 -1.0877  0.5769
  189POPC  H16Y21849   0.533   2.544   8.778  1.5380  0.6504 -0.3374
  189POPC  H16Z21850   0.489   2.634   8.625 -0.4503 -0.7093 -0.6212
  190POPC     N21851   2.434   5.240  10.391 -0.4300  0.9442  0.6866
  190POPC   C1221852   2.490   5.212  10.249  0.3203 -0.1162 -0.3520
  190POPC  H12A21853   2.446   5.287  10.185 -1.7591 -2.8791 -2.4090
  190POPC  H12B21854   2.446   5.119  10.218  1.1304 -0.7828  0.4503
  190POPC   C1321855   2.285   5.235  10.372 -0.3705 -0.2182  0.0814
  190POPC  H13A21856   2.260   5.308  10.297  0.5725  1.8232  1.6421
  190POPC  H13B21857   2.258   5.135  10.339 -0.9356 -0.1915  0.4461
  190POPC  H13C21858   2.243   5.260  10.469  1.9066  1.4485  0.7179
  190POPC   C1421859   2.478   5.140  10.498 -0.1072  0.2709  0.5529
  190POPC  H14A21860   2.580   5.111  10.482 -0.1500  0.2394  0.3403
  190POPC  H14B21861   2.468   5.189  10.594 -0.2061  1.3691  0.0040
  190POPC  H14C21862   2.406   5.060  10.501  0.9853 -0.8601 -1.5971
  190POPC   C1521863   2.471   5.383  10.432  0.2795  0.0596  0.3124
  190POPC  H15A21864   2.491   5.393  10.537  1.8105 -2.3164  0.3253
  190POPC  H15B21865   2.388   5.446  10.406 -1.1465 -1.9314 -0.1863
  190POPC  H15C21866   2.558   5.421  10.380  0.1052  1.5541  1.0704
  190POPC   C1121867   2.636   5.210  10.213  0.3934  0.2589  0.3577
  190POPC  H11A21868   2.681   5.306  10.246 -0.8819  1.4019 -1.1120
  190POPC  H11B21869   2.655   5.198  10.105 -0.7192  2.0793 -0.0786
  190POPC     P21870   2.765   4.979  10.225 -0.3107  0.0154 -0.3060
  190POPC   O1321871   2.669   4.902  10.144 -0.0928  0.1751 -0.4993
  190POPC   O1421872   2.836   4.910  10.333  0.4470 -0.2398 -0.0283
  190POPC   O1221873   2.698   5.109  10.285  0.3826  0.9762 -0.5753
  190POPC   O1121874   2.869   5.050  10.126  0.0247  0.3059  0.1507
  190POPC    C121875   3.003   5.002  10.098 -0.4802  0.3033  0.1859
  190POPC    HA21876   3.010   4.894  10.074  1.4639  0.4422 -0.0252
  190POPC    HB21877   3.067   5.014  10.188  0.1284  0.4237 -0.2589
  190POPC    C221878   3.063   5.086   9.990  0.5022 -0.6277 -0.3166
  190POPC    HS21879   3.001   5.074   9.899 -0.4782 -0.3528  0.2946
  190POPC   O2121880   3.199   5.048   9.972 -0.0851 -0.3008  0.4149
  190POPC   C2121881   3.240   5.043   9.841  0.0815  0.4899  0.3124
  190POPC   O2221882   3.170   5.051   9.742 -0.2955  0.2446  0.2701
  190POPC   C2221883   3.393   5.025   9.837  0.1568 -0.3795  0.1486
  190POPC   H2R21884   3.425   4.937   9.896  0.5481  0.8116  1.7629
  190POPC   H2S21885   3.436   5.116   9.884  2.5316 -2.1069  1.4765
  190POPC    C321886   3.056   5.244  10.023  0.2106  0.3683 -0.9021
  190POPC    HX21887   3.089   5.256  10.128 -0.1363 -0.1093 -0.7332
  190POPC    HY21888   2.952   5.282  10.011 -0.1910  0.8882  2.9160
  190POPC   O3121889   3.146   5.311   9.930  0.4916 -0.1081 -0.2274
  190POPC   C3121890   3.238   5.388   9.986 -0.2388  1.4533  0.0854
  190POPC   O3221891   3.238   5.433  10.097 -0.0377 -0.2205  0.1149
  190POPC   C3221892   3.365   5.392   9.896  0.4087 -0.3508 -0.0169
  190POPC   H2X21893   3.345   5.326   9.810  1.4567  0.7805 -1.1790
  190POPC   H2Y21894   3.444   5.337   9.952  0.3696  0.4964  0.9061
  190POPC   C2321895   3.451   5.002   9.697 -0.3337 -0.1019 -0.3646
  190POPC   H3R21896   3.374   4.933   9.656 -2.2108 -0.5107  3.4402
  190POPC   H3S21897   3.548   4.949   9.701 -0.7056 -0.8968 -1.4611
  190POPC   C2421898   3.461   5.123   9.605 -0.1144  0.7530  0.8385
  190POPC   H4R21899   3.500   5.207   9.668 -2.7928  1.5613  1.5238
  190POPC   H4S21900   3.363   5.162   9.571  0.5132  2.1762  0.5916
  190POPC   C2521901   3.561   5.118   9.486 -0.3112  0.7331 -0.1570
  190POPC   H5R21902   3.538   5.032   9.420  0.4452  0.0932  0.3969
  190POPC   H5S21903   3.665   5.091   9.515 -0.3419 -1.0816 -1.5546
  190POPC   C2621904   3.555   5.235   9.387 -1.1393 -0.0583 -0.2970
  190POPC   H6R21905   3.579   5.324   9.450  0.5785 -0.7302  0.0624
  190POPC   H6S21906   3.451   5.249   9.352 -0.3906  3.9818 -1.4096
  190POPC   C2721907   3.670   5.230   9.270  0.9420  0.1887 -0.3394
  190POPC   H7R21908   3.656   5.133   9.218 -2.9238 -0.7527  2.0431
  190POPC   H7S21909   3.771   5.219   9.316  0.9326 -0.7651 -0.5112
  190POPC   C2821910   3.662   5.344   9.177 -0.3887 -0.0047  0.1730
  190POPC   H8R21911   3.667   5.446   9.222 -0.1127  0.4675 -0.9054
  190POPC   H8S21912   3.567   5.352   9.121  1.4314  1.5107 -2.9186
  190POPC   C2921913   3.778   5.345   9.075  0.5124 -0.2506  0.4333
  190POPC   H9121914   3.877   5.347   9.121  0.4933  0.1515  0.4623
  190POPC  C21021915   3.773   5.360   8.938 -0.3784  0.3089  0.6224
  190POPC  H10121916   3.871   5.379   8.892  0.0285 -3.4164 -0.3529
  190POPC  C21121917   3.652   5.374   8.851 -0.2905  0.2688 -0.0257
  190POPC  H11R21918   3.645   5.480   8.821 -0.6597  0.1983 -0.2022
  190POPC  H11S21919   3.559   5.341   8.903  0.0664 -2.7417 -1.0700
  190POPC  C21221920   3.653   5.299   8.724 -0.2330 -0.0490  0.6778
  190POPC  H12R21921   3.643   5.189   8.732  0.4352 -0.2777 -1.0587
  190POPC  H12S21922   3.748   5.306   8.666 -0.2489  0.7876  0.7304
  190POPC  C21321923   3.526   5.330   8.636 -0.2622  0.4955 -0.2348
  190POPC  H13R21924   3.526   5.436   8.604 -0.9742  1.4402  2.5907
  190POPC  H13S21925   3.431   5.317   8.691 -0.9287  0.4171 -1.3646
  190POPC  C21421926   3.522   5.259   8.504  0.3024  0.3722 -0.3315
  190POPC  H14R21927   3.425   5.271   8.451  0.2898 -2.5824 -1.1532
  190POPC  H14S21928   3.518   5.152   8.535  2.5314  0.8214  1.8558
  190POPC  C21521929   3.643   5.276   8.412 -1.1953 -0.1099  0.0965
  190POPC  H15R21930   3.736   5.255   8.469 -0.2866  1.7286 -0.6450
  190POPC  H15S21931   3.661   5.380   8.377 -1.2431 -0.1868 -0.1521
  190POPC  C21621932   3.637   5.181   8.289 -0.5301  0.0172 -0.3390
  190POPC  H16R21933   3.639   5.075   8.324 -0.8119 -0.2437 -1.0872
  190POPC  H16S21934   3.732   5.190   8.232 -1.1066  0.1583 -1.2974
  190POPC  C21721935   3.510   5.205   8.204 -0.1973 -0.4115 -0.1632
  190POPC  H17R21936   3.422   5.186   8.269  1.6136 -0.9856  2.2633
  190POPC  H17S21937   3.506   5.122   8.131  0.1140 -1.9057  1.4556
  190POPC  C21821938   3.492   5.340   8.132 -0.4221 -0.1411  0.6352
  190POPC  H18R21939   3.574   5.357   8.059 -0.1219  0.7097  1.1617
  190POPC  H18S21940   3.524   5.420   8.202 -0.7409  0.2834  0.2952
  190POPC  H18T21941   3.390   5.356   8.093 -0.3964 -1.9861 -0.3255
  190POPC   C3321942   3.428   5.535   9.866 -0.1275 -0.2517 -0.7861
  190POPC   H3X21943   3.531   5.520   9.826 -0.0460 -0.1699 -0.6106
  190POPC   H3Y21944   3.437   5.585   9.965  0.0599 -1.8217  0.0314
  190POPC   C3421945   3.360   5.612   9.749 -0.0386  0.3080  0.4737
  190POPC   H4X21946   3.406   5.712   9.733 -1.1284  0.8447  0.5708
  190POPC   H4Y21947   3.256   5.645   9.771 -0.1659  2.1298 -2.3761
  190POPC   C3521948   3.367   5.546   9.613 -0.4519  0.0470  0.4321
  190POPC   H5X21949   3.305   5.454   9.620 -1.1400  0.2590 -2.0094
  190POPC   H5Y21950   3.476   5.532   9.596 -0.3151  0.4387  0.9620
  190POPC   C3621951   3.316   5.637   9.501 -0.0094 -0.1650 -0.3410
  190POPC   H6X21952   3.376   5.731   9.501  2.4251 -1.6173 -1.7209
  190POPC   H6Y21953   3.214   5.669   9.529 -0.0046 -1.7335  1.6534
  190POPC   C3721954   3.321   5.563   9.367 -0.2551  0.1803  0.0987
  190POPC   H7X21955   3.255   5.474   9.362  1.9327 -1.7175  2.1618
  190POPC   H7Y21956   3.428   5.537   9.348  0.0369  0.6196  1.0617
  190POPC   C3821957   3.285   5.657   9.247  0.2782  0.3766 -0.2792
  190POPC   H8X21958   3.365   5.734   9.243  0.2678  0.4294  0.4264
  190POPC   H8Y21959   3.195   5.721   9.260  0.4065  0.6613 -0.7471
  190POPC   C3921960   3.274   5.577   9.121 -0.9930  1.0074  0.3965
  190POPC   H9X21961   3.210   5.490   9.144  0.2014  0.2884  1.1262
  190POPC   H9Y21962   3.377   5.540   9.100 -2.1429 -3.5768  1.6904
  190POPC  C31021963   3.225   5.653   8.998  0.5040 -0.1764  0.9996
  190POPC  H10X21964   3.270   5.754   8.990  0.9953 -0.5006 -1.1828
  190POPC  H10Y21965   3.118   5.677   9.009 -0.0250 -2.4090  1.2612
  190POPC  C31121966   3.236   5.586   8.865  0.2864 -0.2234  0.3500
  190POPC  H11X21967   3.191   5.484   8.865  1.3893 -0.8008  2.7501
  190POPC  H11Y21968   3.343   5.571   8.839  0.1892  1.2153 -0.9925
  190POPC  C31221969   3.170   5.676   8.759 -0.2082 -0.5223  0.8675
  190POPC  H12X21970   3.236   5.764   8.742  0.1004 -0.7887  0.6607
  190POPC  H12Y21971   3.070   5.704   8.796  0.1783  0.5884  1.1114
  190POPC  C31321972   3.136   5.615   8.619  0.0084 -0.5113  0.6622
  190POPC  H13X21973   3.098   5.512   8.637 -1.1568 -0.1237  0.5278
  190POPC  H13Y21974   3.224   5.603   8.553 -0.5041 -1.8860  0.1852
  190POPC  C31421975   3.035   5.708   8.552 -0.3382  0.0440  0.5397
  190POPC  H14X21976   2.946   5.721   8.618 -2.1530  0.0781 -1.7811
  190POPC  H14Y21977   2.993   5.672   8.456  0.0272  1.9107 -0.3578
  190POPC  C31521978   3.094   5.854   8.516  0.7733  1.0681 -0.5556
  190POPC  H15X21979   3.186   5.831   8.457  0.9784  1.3524 -0.3481
  190POPC  H15Y21980   3.110   5.896   8.617 -0.9324  1.8736 -0.5870
  190POPC  C31621981   2.994   5.931   8.423 -0.1591  0.2707 -0.6875
  190POPC  H16X21982   3.002   6.041   8.429 -0.7212  0.2826 -0.0834
  190POPC  H16Y21983   2.886   5.907   8.430 -0.6635  2.4151 -0.6112
  190POPC  H16Z21984   3.021   5.906   8.318 -0.2436  1.1681 -0.9260
  191POPC     N21985   6.232   1.415   6.104 -0.1727  0.6705  0.2540
  191POPC   C1221986   6.375   1.383   6.130 -0.3814 -0.0126  0.2601
  191POPC  H12A21987   6.384   1.303   6.202  2.7024  0.0366  0.0588
  191POPC  H12B21988   6.429   1.463   6.178  0.8161 -0.2282 -0.6600
  191POPC   C1321989   6.220   1.542   6.024  0.0378  0.2487  0.5299
  191POPC  H13A21990   6.117   1.567   6.002  0.5547  1.9224 -0.1328
  191POPC  H13B21991   6.252   1.623   6.088 -0.4537  1.1358 -0.3296
  191POPC  H13C21992   6.277   1.542   5.933  1.9110  0.2567  1.6523
  191POPC   C1421993   6.162   1.305   6.049  1.2969 -0.3011 -0.2546
  191POPC  H14A21994   6.057   1.326   6.031  1.2541 -0.7315 -0.5352
  191POPC  H14B21995   6.211   1.270   5.959  0.7807 -1.2120 -0.1954
  191POPC  H14C21996   6.153   1.219   6.113 -1.3582 -0.3918 -0.6035
  191POPC   C1521997   6.170   1.437   6.239  0.0734 -0.2681 -0.6974
  191POPC  H15A21998   6.194   1.356   6.306 -1.1492 -0.8439 -0.9281
  191POPC  H15B21999   6.064   1.421   6.226  0.2578 -0.4117 -2.2204
  191POPC  H15C22000   6.191   1.532   6.286 -0.3395 -0.3782 -0.2871
  191POPC   C1122001   6.461   1.344   6.005  0.9830  0.3161 -0.3476
  191POPC  H11A22002   6.401   1.280   5.937  2.0420 -0.4242 -0.6088
  191POPC  H11B22003   6.546   1.284   6.042  0.1474 -2.4305 -2.5329
  191POPC     P22004   6.648   1.521   5.946 -0.5132 -0.0936  0.3279
  191POPC   O1322005   6.650   1.643   5.856 -0.2389 -0.2967 -0.1010
  191POPC   O1422006   6.749   1.415   5.917  0.3821 -0.3049 -0.0480
  191POPC   O1222007   6.506   1.454   5.923  0.0765  0.3023 -0.2919
  191POPC   O1122008   6.642   1.553   6.105 -0.2155  0.0238  0.1563
  191POPC    C122009   6.563   1.654   6.170 -0.4118 -0.2280  0.1403
  191POPC    HA22010   6.454   1.634   6.165 -0.6371  0.8832  0.2007
  191POPC    HB22011   6.580   1.746   6.110 -0.4373  0.2871  0.9061
  191POPC    C222012   6.618   1.675   6.319  0.1669 -0.5627 -0.6119
  191POPC    HS22013   6.593   1.581   6.373 -2.5842  0.5115  0.1096
  191POPC   O2122014   6.549   1.786   6.377 -0.9404  0.0810  0.1479
  191POPC   C2122015   6.456   1.772   6.472  0.1887  0.1755  0.3002
  191POPC   O2222016   6.416   1.662   6.509  0.4005 -0.0247 -0.7036
  191POPC   C2222017   6.420   1.913   6.527  0.0526  0.0843  0.3480
  191POPC   H2R22018   6.314   1.923   6.495 -0.0717 -1.2884  0.2805
  191POPC   H2S22019   6.476   1.991   6.471 -1.8618 -0.1338 -2.0294
  191POPC    C322020   6.776   1.703   6.323 -0.2757 -0.9710  0.6676
  191POPC    HX22021   6.783   1.808   6.286 -1.1352 -0.5345  1.7023
  191POPC    HY22022   6.818   1.628   6.253 -0.7692  0.8359 -1.6946
  191POPC   O3122023   6.824   1.691   6.455  0.4617 -0.2487 -0.1190
  191POPC   C3122024   6.890   1.585   6.503  0.7993 -0.4213  0.0691
  191POPC   O3222025   6.916   1.483   6.443  0.6803 -0.4918 -0.3389
  191POPC   C3222026   6.922   1.618   6.654  0.3271 -0.2801  0.8482
  191POPC   H2X22027   6.908   1.725   6.677  1.5322 -0.1023  0.8063
  191POPC   H2Y22028   7.030   1.599   6.669  0.8428  1.9645  0.2036
  191POPC   C2322029   6.430   1.935   6.678  1.0839 -0.5882 -0.5685
  191POPC   H3R22030   6.376   1.857   6.737  1.7126 -1.3644 -0.9973
  191POPC   H3S22031   6.386   2.030   6.712  2.4511 -1.1491  3.2135
  191POPC   C2422032   6.574   1.930   6.738 -0.3684  0.3233  0.6678
  191POPC   H4R22033   6.642   2.001   6.686  0.7374 -1.9820 -1.2606
  191POPC   H4S22034   6.625   1.834   6.720  1.8762  1.6915 -0.7800
  191POPC   C2522035   6.579   1.960   6.890 -0.1716  0.7562  0.2498
  191POPC   H5R22036   6.516   2.052   6.887 -1.8070 -0.3485 -0.5524
  191POPC   H5S22037   6.683   1.978   6.925 -0.5360  1.8689  0.8048
  191POPC   C2622038   6.528   1.843   6.969 -0.3001 -0.6801  0.4365
  191POPC   H6R22039   6.563   1.741   6.942  1.6687 -0.2117  1.0819
  191POPC   H6S22040   6.421   1.840   6.940 -0.2146  2.5561 -0.5114
  191POPC   C2722041   6.527   1.875   7.120  0.1893  0.3800 -0.3711
  191POPC   H7R22042   6.456   1.806   7.170  0.6128  0.1993 -0.0186
  191POPC   H7S22043   6.496   1.979   7.147 -0.7517 -0.3117  1.3301
  191POPC   C2822044   6.666   1.848   7.175 -0.2518  0.0264 -0.7728
  191POPC   H8R22045   6.753   1.889   7.119  1.0584 -0.6964  0.6174
  191POPC   H8S22046   6.680   1.739   7.158 -0.6434 -0.1545  0.0042
  191POPC   C2922047   6.664   1.883   7.325 -0.6164  0.3599 -0.1251
  191POPC   H9122048   6.648   1.989   7.350  1.7537  0.8471 -0.3720
  191POPC  C21022049   6.690   1.803   7.432 -0.9304 -0.7438 -0.1774
  191POPC  H10122050   6.669   1.840   7.533 -1.7136 -0.2733 -0.5010
  191POPC  C21122051   6.715   1.658   7.414  0.4866  0.8232  0.3778
  191POPC  H11R22052   6.815   1.629   7.374 -0.9498 -2.2737 -1.3733
  191POPC  H11S22053   6.636   1.615   7.348 -1.2635 -1.7875  3.8430
  191POPC  C21222054   6.698   1.593   7.553 -0.9347  0.6237 -0.7862
  191POPC  H12R22055   6.700   1.483   7.538 -1.2867  0.4160  0.5649
  191POPC  H12S22056   6.610   1.614   7.617  1.1098 -1.7830  3.2544
  191POPC  C21322057   6.830   1.602   7.642  0.2183  0.2300  0.7608
  191POPC  H13R22058   6.842   1.711   7.659 -0.8340  1.6020 -5.0263
  191POPC  H13S22059   6.917   1.575   7.580 -1.8556 -0.5103 -2.0253
  191POPC  C21422060   6.819   1.517   7.768 -0.1040 -0.1289  0.4840
  191POPC  H14R22061   6.766   1.420   7.756  0.5152 -0.1097 -4.3924
  191POPC  H14S22062   6.760   1.581   7.837  1.0780  2.2343 -0.6044
  191POPC  C21522063   6.956   1.469   7.833 -0.3567 -0.7309  0.6165
  191POPC  H15R22064   7.018   1.560   7.849 -0.7185  0.1587 -2.4290
  191POPC  H15S22065   7.015   1.409   7.761 -0.6457  0.0699 -0.3205
  191POPC  C21622066   6.937   1.404   7.975  0.3458  0.1051 -0.7344
  191POPC  H16R22067   7.038   1.361   7.994 -0.0081 -0.7065 -0.6405
  191POPC  H16S22068   6.868   1.317   7.965 -0.0806  0.3450  0.0419
  191POPC  C21722069   6.874   1.493   8.087  0.3532 -0.4415  0.3886
  191POPC  H17R22070   6.767   1.513   8.062  0.9764  0.8244 -1.5371
  191POPC  H17S22071   6.929   1.590   8.085  0.3762 -0.4646 -0.6563
  191POPC  C21822072   6.871   1.431   8.226 -0.1203 -0.4907  0.2692
  191POPC  H18R22073   6.793   1.354   8.242 -1.4141  0.8647  0.7895
  191POPC  H18S22074   6.846   1.513   8.297 -3.2336 -1.3520  0.3432
  191POPC  H18T22075   6.962   1.370   8.243 -1.8669 -2.9118  1.6215
  191POPC   C3322076   6.853   1.521   6.747  0.0494 -0.5361  0.0070
  191POPC   H3X22077   6.882   1.549   6.850  3.4522 -1.7963 -0.4874
  191POPC   H3Y22078   6.866   1.413   6.725  0.8911 -0.6777  1.0859
  191POPC   C3422079   6.696   1.535   6.740 -0.7681 -0.0378  0.0317
  191POPC   H4X22080   6.666   1.515   6.635  2.1320 -0.5396 -0.7761
  191POPC   H4Y22081   6.681   1.643   6.763 -0.1104  0.2496 -0.8616
  191POPC   C3522082   6.627   1.442   6.837  0.2995  0.6900  0.4282
  191POPC   H5X22083   6.672   1.465   6.936  0.2179 -0.8334  0.8490
  191POPC   H5Y22084   6.650   1.335   6.815 -1.7791 -0.6066  3.8138
  191POPC   C3622085   6.469   1.459   6.833  0.1664  0.8029 -0.1349
  191POPC   H6X22086   6.434   1.444   6.728  0.8611  1.0832 -0.4136
  191POPC   H6Y22087   6.451   1.566   6.857  0.3879  0.6819  0.5995
  191POPC   C3722088   6.402   1.360   6.933 -0.2517  0.3398  0.3087
  191POPC   H7X22089   6.416   1.260   6.887 -0.6442  1.0237 -1.3760
  191POPC   H7Y22090   6.293   1.383   6.930 -0.4924 -0.7517 -2.1737
  191POPC   C3822091   6.451   1.383   7.066 -0.0765  0.0001  0.1875
  191POPC   H8X22092   6.467   1.492   7.076 -0.7700  0.3540 -2.0385
  191POPC   H8Y22093   6.550   1.332   7.071  1.0680  2.1882  1.5509
  191POPC   C3922094   6.372   1.332   7.188 -0.3905 -0.0524 -0.1771
  191POPC   H9X22095   6.342   1.226   7.178  0.7598 -0.3467 -0.6973
  191POPC   H9Y22096   6.283   1.392   7.215 -0.3754  0.1275 -0.5261
  191POPC  C31022097   6.458   1.345   7.316  0.9494 -0.6638  0.1348
  191POPC  H10X22098   6.486   1.452   7.325 -0.2727 -0.3134 -0.0059
  191POPC  H10Y22099   6.549   1.282   7.301  0.1099 -1.6822 -0.8815
  191POPC  C31122100   6.371   1.300   7.440  0.5928 -0.6523  0.0653
  191POPC  H11X22101   6.328   1.198   7.448 -1.9444  0.4475  1.7730
  191POPC  H11Y22102   6.280   1.364   7.450  1.2685  0.3416  0.0173
  191POPC  C31222103   6.445   1.324   7.575  0.6330 -0.5722  0.4443
  191POPC  H12X22104   6.474   1.431   7.573 -0.2084 -0.3510 -0.8733
  191POPC  H12Y22105   6.537   1.262   7.584  0.6111 -0.5569  0.7817
  191POPC  C31322106   6.345   1.311   7.684  0.0211  0.0935 -0.5598
  191POPC  H13X22107   6.299   1.210   7.680 -0.0026  0.0996 -0.4392
  191POPC  H13Y22108   6.260   1.381   7.689  0.7907  0.9495  1.3961
  191POPC  C31422109   6.402   1.316   7.824  0.2937 -0.4837  0.6274
  191POPC  H14X22110   6.468   1.404   7.838  2.1061 -1.9478  1.7939
  191POPC  H14Y22111   6.469   1.227   7.825  1.7111  0.4202 -2.5393
  191POPC  C31522112   6.300   1.298   7.942  0.3719  0.5372 -0.1188
  191POPC  H15X22113   6.361   1.274   8.032 -2.4085 -0.4683  1.6015
  191POPC  H15Y22114   6.234   1.212   7.918  0.4194  0.6231 -0.5723
  191POPC  C31622115   6.230   1.433   7.976 -0.9163 -0.2481  0.7546
  191POPC  H16X22116   6.152   1.425   8.054 -1.4510  0.5862  0.3211
  191POPC  H16Y22117   6.184   1.471   7.882  0.6368 -0.4011 -0.1008
  191POPC  H16Z22118   6.304   1.509   8.009 -0.3797 -0.4113 -0.0249
  192POPC     N22119   1.526   3.980   6.100 -0.4299 -0.6033  0.1143
  192POPC   C1222120   1.583   4.077   5.990  0.0137 -0.3292  0.2578
  192POPC  H12A22121   1.530   4.171   5.993  1.4045  0.4749  1.3033
  192POPC  H12B22122   1.584   4.026   5.895  0.2179 -3.7333  1.9355
  192POPC   C1322123   1.382   3.965   6.089  0.0264  0.1177 -0.5312
  192POPC  H13A22124   1.341   4.064   6.073  1.8580  1.3049  1.6415
  192POPC  H13B22125   1.360   3.906   6.001 -0.4911 -1.2846  0.5120
  192POPC  H13C22126   1.327   3.936   6.177 -1.4382 -0.1156 -1.4827
  192POPC   C1422127   1.603   3.849   6.115  0.2655 -0.1806  0.8952
  192POPC  H14A22128   1.707   3.869   6.135  0.5075  2.5154 -2.1905
  192POPC  H14B22129   1.559   3.784   6.189 -1.2741  0.3805  0.5088
  192POPC  H14C22130   1.609   3.797   6.020  3.2516  2.4813 -0.5704
  192POPC   C1522131   1.545   4.050   6.230  0.1569 -0.4901 -0.0078
  192POPC  H15A22132   1.647   4.078   6.256 -0.4572 -0.0749  2.0839
  192POPC  H15B22133   1.520   3.979   6.306  0.0644  1.3111  1.7271
  192POPC  H15C22134   1.477   4.134   6.235 -0.3604 -0.9083 -0.0245
  192POPC   C1122135   1.734   4.118   6.003  0.4291  0.0132  0.0483
  192POPC  H11A22136   1.777   4.016   6.002 -1.2416 -0.7420  0.8578
  192POPC  H11B22137   1.764   4.174   6.094  2.0813  1.5208 -1.3551
  192POPC     P22138   1.734   4.349   5.873  0.0491  0.4610  0.0122
  192POPC   O1322139   1.589   4.370   5.905 -0.2423 -0.5427  0.2126
  192POPC   O1422140   1.786   4.406   5.746  0.3161  0.3740  0.2784
  192POPC   O1222141   1.759   4.193   5.881  0.4478 -0.2583  0.2103
  192POPC   O1122142   1.829   4.397   5.988 -0.8968 -0.6036  0.3037
  192POPC    C122143   1.971   4.394   5.998 -0.0666  0.2978 -0.1334
  192POPC    HA22144   2.006   4.498   6.011  2.7101 -0.6436  0.6060
  192POPC    HB22145   2.015   4.344   5.910 -0.7189 -0.0387 -0.2788
  192POPC    C222146   2.016   4.323   6.136  0.0279 -1.0711  0.1511
  192POPC    HS22147   1.987   4.218   6.117  1.3705 -1.1386 -1.8949
  192POPC   O2122148   1.950   4.389   6.239  0.3774 -0.5896 -0.2846
  192POPC   C2122149   1.874   4.315   6.322 -0.4168  0.3289  0.7227
  192POPC   O2222150   1.867   4.192   6.320  0.0973  0.0223  0.2235
  192POPC   C2222151   1.813   4.413   6.425 -0.8517 -0.2739 -0.5043
  192POPC   H2R22152   1.730   4.461   6.369 -2.9072 -2.3542  0.5874
  192POPC   H2S22153   1.894   4.481   6.459 -2.0283  1.6601 -1.4160
  192POPC    C322154   2.172   4.325   6.151  0.2089  0.3343  0.1772
  192POPC    HX22155   2.205   4.427   6.121 -2.1228  2.3254  3.6719
  192POPC    HY22156   2.225   4.259   6.079  0.5509  1.8159 -0.9915
  192POPC   O3122157   2.218   4.299   6.284 -0.2975  0.1636  0.7389
  192POPC   C3122158   2.217   4.167   6.318  0.3441 -1.1048 -0.5615
  192POPC   O3222159   2.163   4.080   6.260  0.1861 -0.1206  0.4500
  192POPC   C3222160   2.283   4.153   6.451 -0.3001  0.2790 -0.4423
  192POPC   H2X22161   2.258   4.046   6.469  1.0389 -0.5367 -2.9691
  192POPC   H2Y22162   2.241   4.215   6.533  0.2015 -0.8872  0.7364
  192POPC   C2322163   1.761   4.341   6.550 -0.0069  0.5585 -0.0200
  192POPC   H3R22164   1.828   4.280   6.614 -1.1607 -1.3731 -0.5943
  192POPC   H3S22165   1.678   4.273   6.522  0.3804  0.1116 -0.1007
  192POPC   C2422166   1.703   4.446   6.649  0.3610  0.3051  1.0396
  192POPC   H4R22167   1.610   4.490   6.606  1.6829  2.3355  0.1531
  192POPC   H4S22168   1.782   4.522   6.665  1.1514 -0.0959 -0.7553
  192POPC   C2522169   1.652   4.380   6.774  0.1859 -0.0920  0.3276
  192POPC   H5R22170   1.723   4.321   6.836  0.4648 -1.3217 -1.1105
  192POPC   H5S22171   1.571   4.307   6.757  1.4755 -0.9762 -2.5787
  192POPC   C2622172   1.606   4.492   6.868 -0.0836 -0.0036  0.0655
  192POPC   H6R22173   1.512   4.531   6.824  0.0036 -1.7935 -1.8599
  192POPC   H6S22174   1.677   4.578   6.866  0.0020 -0.0766 -1.8214
  192POPC   C2722175   1.576   4.450   7.016 -0.2016  0.3259 -0.1298
  192POPC   H7R22176   1.518   4.528   7.070 -2.7331 -1.2787 -0.3864
  192POPC   H7S22177   1.679   4.448   7.059 -0.1998  1.2025 -0.0783
  192POPC   C2822178   1.501   4.310   7.041 -0.4170  0.1315  0.3308
  192POPC   H8R22179   1.499   4.291   7.150  0.4674  2.4355  0.8052
  192POPC   H8S22180   1.559   4.227   6.995 -1.3630 -0.4971  0.2555
  192POPC   C2922181   1.361   4.310   6.990 -0.0922  0.4738  0.3564
  192POPC   H9122182   1.345   4.313   6.881  0.1456 -2.0697  0.2014
  192POPC  C21022183   1.255   4.303   7.064  0.6784  0.0933 -0.9888
  192POPC  H10122184   1.153   4.304   7.021  0.0795 -2.0776  0.2150
  192POPC  C21122185   1.252   4.294   7.214 -0.1966  0.8369  0.3247
  192POPC  H11R22186   1.346   4.254   7.259 -2.2129 -1.6106  2.6980
  192POPC  H11S22187   1.167   4.233   7.253  0.2243 -0.4188 -0.6673
  192POPC  C21222188   1.222   4.432   7.273 -0.1084  0.5056 -0.1275
  192POPC  H12R22189   1.125   4.472   7.236  0.0822 -0.6016 -1.9444
  192POPC  H12S22190   1.303   4.503   7.250  1.4159 -1.6020 -1.6382
  192POPC  C21322191   1.216   4.420   7.427 -0.1038  0.5734 -0.0381
  192POPC  H13R22192   1.141   4.340   7.446 -0.3601  0.6012 -0.8927
  192POPC  H13S22193   1.184   4.519   7.467  0.8490  1.4684 -1.4078
  192POPC  C21422194   1.346   4.374   7.500 -0.5132  0.1178  0.0347
  192POPC  H14R22195   1.425   4.414   7.434  0.1712  0.1428  0.8478
  192POPC  H14S22196   1.341   4.264   7.511  1.1990 -0.1628 -1.6676
  192POPC  C21522197   1.372   4.431   7.642 -0.8518  0.4091 -0.1323
  192POPC  H15R22198   1.275   4.430   7.696 -0.9085  0.2930 -0.2352
  192POPC  H15S22199   1.408   4.536   7.647 -1.2118  0.5245  0.1099
  192POPC  C21622200   1.483   4.350   7.712 -0.2126  0.7422 -0.1269
  192POPC  H16R22201   1.557   4.324   7.634 -0.3041 -2.8996  0.8381
  192POPC  H16S22202   1.438   4.257   7.753  1.7575 -0.6766 -1.0667
  192POPC  C21722203   1.533   4.412   7.841 -0.1532  0.1264 -0.2325
  192POPC  H17R22204   1.451   4.407   7.916 -0.8677  2.5181 -0.7509
  192POPC  H17S22205   1.539   4.522   7.826  1.8891  0.0768 -0.0297
  192POPC  C21822206   1.664   4.361   7.899 -0.0802 -0.0311  0.3099
  192POPC  H18R22207   1.698   4.436   7.974  2.9852  0.8692 -1.8105
  192POPC  H18S22208   1.743   4.341   7.824  0.2901  1.4859  0.2694
  192POPC  H18T22209   1.645   4.263   7.949 -0.9422 -1.0489 -1.8690
  192POPC   C3322210   2.435   4.163   6.440 -1.0431 -0.1116 -1.3482
  192POPC   H3X22211   2.477   4.266   6.438  1.5676 -1.1259 -1.7812
  192POPC   H3Y22212   2.469   4.098   6.357 -1.7476 -2.4615  0.0883
  192POPC   C3422213   2.513   4.117   6.574 -0.0133 -0.1125  0.6295
  192POPC   H4X22214   2.621   4.138   6.564  0.4350 -1.6585  1.7663
  192POPC   H4Y22215   2.509   4.006   6.575 -2.0630 -0.1873 -2.1963
  192POPC   C3522216   2.445   4.179   6.698 -0.0700  0.4973 -0.4167
  192POPC   H5X22217   2.345   4.132   6.715 -0.1162  0.6501 -0.2589
  192POPC   H5Y22218   2.434   4.288   6.675  1.4670  0.6111 -0.7178
  192POPC   C3622219   2.538   4.173   6.825  0.3194 -0.1116 -0.2287
  192POPC   H6X22220   2.635   4.215   6.790  1.0087 -1.2454  0.2694
  192POPC   H6Y22221   2.567   4.078   6.874 -0.8589  0.2211  1.1901
  192POPC   C3722222   2.478   4.253   6.940  0.3551 -0.4278  0.8904
  192POPC   H7X22223   2.388   4.205   6.982  1.2703 -2.1228  1.0036
  192POPC   H7Y22224   2.442   4.354   6.912  0.5191 -0.5744  0.1065
  192POPC   C3822225   2.574   4.261   7.058  0.0079 -0.6682 -0.7820
  192POPC   H8X22226   2.675   4.305   7.042 -0.3325  1.4662  1.9683
  192POPC   H8Y22227   2.601   4.160   7.096 -0.3964 -0.3961  0.2792
  192POPC   C3922228   2.516   4.341   7.177 -0.9836 -0.1059 -0.2355
  192POPC   H9X22229   2.421   4.292   7.207  0.2392 -1.4524  1.5581
  192POPC   H9Y22230   2.490   4.442   7.138  1.5271  0.5755 -0.2883
  192POPC  C31022231   2.610   4.346   7.298 -0.2412  0.3052 -1.0734
  192POPC  H10X22232   2.705   4.393   7.265  0.1322  1.6808  1.6921
  192POPC  H10Y22233   2.636   4.245   7.337  0.4947  1.0145  0.3199
  192POPC  C31122234   2.538   4.406   7.424 -0.6423 -0.6790  1.1606
  192POPC  H11X22235   2.442   4.351   7.429 -0.8187 -0.9879 -2.5607
  192POPC  H11Y22236   2.517   4.511   7.394 -1.0547 -0.5820  1.7671
  192POPC  C31222237   2.609   4.398   7.563 -0.5535 -0.3765 -0.3398
  192POPC  H12X22238   2.617   4.296   7.605 -0.5334  0.1712  1.0381
  192POPC  H12Y22239   2.546   4.458   7.632 -2.0124 -0.8338 -1.2539
  192POPC  C31322240   2.754   4.463   7.577 -0.0195  0.5420  0.1544
  192POPC  H13X22241   2.761   4.550   7.509  1.1371 -0.0220 -0.5009
  192POPC  H13Y22242   2.826   4.392   7.530 -2.6574 -1.5782 -0.8888
  192POPC  C31422243   2.795   4.510   7.720 -0.5785 -0.5376  0.3286
  192POPC  H14X22244   2.906   4.511   7.715 -0.5681  2.9620 -1.5910
  192POPC  H14Y22245   2.762   4.447   7.806  0.3011 -2.6217 -0.7726
  192POPC  C31522246   2.753   4.656   7.743 -0.5502  0.2954  0.5759
  192POPC  H15X22247   2.650   4.666   7.704 -0.5763 -2.7143 -0.4246
  192POPC  H15Y22248   2.816   4.724   7.683 -1.6919  0.8742  0.0139
  192POPC  C31622249   2.753   4.691   7.890 -0.7904  0.2547 -1.1674
  192POPC  H16X22250   2.852   4.702   7.939 -0.6992 -3.0496 -0.3305
  192POPC  H16Y22251   2.713   4.605   7.948 -0.0433 -0.0671 -1.1226
  192POPC  H16Z22252   2.697   4.780   7.924  1.1964  1.1188  0.0427
  193SOD    SOD22253   5.481   2.434  16.526  0.0081 -0.4188  0.3847
  194SOD    SOD22254   3.301   3.468  10.892  0.3794 -0.0473  0.6536
  195SOD    SOD22255   6.378   4.899   4.250  0.1007  0.3951 -0.0045
  196SOD    SOD22256   4.206   2.216   5.958 -0.1244 -0.1946 -0.2002
  197SOD    SOD22257   5.123   0.126  17.184  0.4778 -0.2922  0.0240
  198SOD    SOD22258   4.494   3.376  14.223  0.2317 -0.2429  0.3422
  199SOD    SOD22259   2.748   1.804  16.074 -0.0133 -0.1884  0.0253
  200SOD    SOD22260   2.896   1.023   5.392  0.5805 -0.3666  0.2715
  201SOD    SOD22261   5.680   4.330  15.439  0.5221  0.5721  0.0919
  202SOD    SOD22262   1.182   5.704   5.215 -0.6805 -0.4568 -0.1535
  203SOD    SOD22263   6.169   1.902   2.757  0.1257 -0.0576  0.4607
  204SOD    SOD22264   4.905   6.573   5.043  0.0545 -0.1391  0.1961
  205SOD    SOD22265   1.165   6.490   5.127  0.1882  0.3086 -0.0543
  206SOD    SOD22266   6.566   5.846  15.166  0.2284  0.6679 -0.3815
  207SOD    SOD22267   3.772   1.587  12.951 -0.1069  0.1194  0.8337
  208SOD    SOD22268   3.395   4.331  13.345 -0.3491 -0.0556  0.1932
  209SOD    SOD22269   4.800   1.938  12.306 -0.2208 -0.3549 -0.0684
  210SOD    SOD22270   5.337   3.893   5.958  0.2484 -0.3572  0.0782
  211SOD    SOD22271   6.280   3.997  10.352  0.2710  0.0916  0.4723
  212SOD    SOD22272   4.069   3.353   4.786 -0.4325 -0.0007  0.1285
  213SOD    SOD22273   3.116   5.440   0.441 -0.0608  0.0974  0.6212
  214SOD    SOD22274   6.517   1.745   3.805  0.5372 -0.2368 -0.2292
  215SOD    SOD22275   2.773   3.341  10.675 -0.3062  0.4112  0.1496
  216SOD    SOD22276   1.106   1.965   4.177  0.0688 -0.1929 -0.2483
  217SOD    SOD22277   5.198   0.703   4.615  0.0025 -0.1946  0.0357
  218SOD    SOD22278   2.115   4.005  12.706 -0.1619 -0.1099 -0.0463
  219SOD    SOD22279   0.203   4.572  15.680  0.4793 -0.3445  0.7671
  220SOD    SOD22280   4.835   4.176   5.898  0.0454 -0.0379  0.0445
  221SOD    SOD22281   4.183   6.585   1.253  0.6227  0.2596 -0.3371
  222SOD    SOD22282   2.900   4.890  11.059 -0.4260 -0.2166  0.1033
  223SOD    SOD22283   3.599   5.645  13.070 -0.2136  0.1927 -0.1244
  224SOD    SOD22284   6.412   5.523  16.711  0.4409  0.1661 -0.0735
  225SOD    SOD22285   5.612   6.608   5.848  0.0549 -0.5943 -0.3095
  226SOD    SOD22286   1.226   5.350  10.354  0.2742 -0.3333  0.2195
  227SOD    SOD22287   4.196   2.639  14.050  0.0674 -0.1789 -0.3413
  228SOD    SOD22288   6.235   1.404   4.593 -0.4469 -0.2107  0.1891
  229SOD    SOD22289   0.611   3.872   6.414 -0.2866 -0.2363 -0.0615
  230SOD    SOD22290   0.146   2.017  12.025  0.3493  0.0238 -0.0817
  231SOD    SOD22291   5.135   6.274  11.182 -0.1472 -0.0429 -0.1297
  232SOD    SOD22292   2.648   1.730   5.371 -0.1523  0.2341 -0.5919
  233SOD    SOD22293   4.629   0.800   2.781 -0.1817 -0.1334 -0.3591
  234SOD    SOD22294   2.510   2.326   2.014  0.5386 -0.2601  0.0040
  235SOD    SOD22295   2.211   1.514   3.559 -0.0488  0.2598 -0.1102
  236SOD    SOD22296   4.416   5.982  15.495  0.1661 -0.2625  0.7871
  237SOD    SOD22297   3.971   0.814  14.188 -0.0055 -0.1130 -0.0508
  238SOD    SOD22298   3.119   5.034   5.147  0.1807 -0.4039 -0.4708
  239SOD    SOD22299   5.236   0.912  10.919  0.1693 -0.2474  0.0671
  240SOD    SOD22300   3.415   6.368  11.160  0.3112 -0.0694  0.0014
  241SOD    SOD22301   6.370   4.320   2.263  0.2843 -0.3135  0.0644
  242SOD    SOD22302   1.406   1.906  16.769  0.1138 -0.1528 -0.8014
  243SOD    SOD22303   5.598   0.867  13.098 -0.3410 -0.5698 -0.2082
  244SOD    SOD22304   2.085   5.821  14.470 -0.2807  0.1749 -0.1699
  245SOD    SOD22305   6.479   5.388   0.209 -0.6461  0.2033  0.0403
  246SOD    SOD22306   3.740   0.857   2.342  0.4223  0.1165 -0.3024
  247SOD    SOD22307   1.976   0.391   5.175  0.8564  0.3736 -0.3413
  248SOD    SOD22308   2.780   6.093  15.618  0.2135  0.4774 -0.5244
  249SOD    SOD22309   3.442   3.468  10.054 -0.1508  0.5685 -0.1737
  250SOD    SOD22310   4.754   0.393   5.909 -0.0989  0.4228 -0.3770
  251SOD    SOD22311   1.019   0.019  10.215 -0.7768 -0.4193  0.4469
  252SOD    SOD22312   2.140   4.371  15.334  0.2719 -0.1824 -0.0729
  253SOD    SOD22313   5.991   2.528   3.619  0.0579  0.7441 -0.0635
  254SOD    SOD22314   6.074   2.215  15.941 -0.2783 -0.1030 -0.6943
  255SOD    SOD22315   1.936   2.468  15.919  0.1370  0.0151  0.0841
  256SOD    SOD22316   2.426   4.712   2.337 -0.5120 -0.2886 -0.3474
  257SOD    SOD22317   2.238   2.074  14.241 -0.1856  0.0185 -0.0751
  258SOD    SOD22318   3.641   2.479   0.128 -0.3841 -0.9218 -0.2778
  259SOD    SOD22319   1.766   6.221   1.011 -0.2019 -0.3178 -0.2034
  260SOD    SOD22320   0.463   0.538   2.072  0.4001 -0.6297 -0.3294
  261SOD    SOD22321   6.198   4.746  13.499 -0.1790  0.1695 -0.4065
  262SOD    SOD22322   1.075   2.590   5.626 -0.0104 -0.2207  0.4708
  263SOD    SOD22323   0.107   1.273   6.319 -0.0036  0.1089 -0.0107
  264SOD    SOD22324   3.155   5.931  15.056 -0.0960  0.2574  0.1287
  265SOD    SOD22325   0.154   5.314   5.233  0.8859 -0.2285  0.1402
  266SOD    SOD22326   1.464   0.169  13.250 -0.4032  0.2421 -0.1102
  267SOD    SOD22327   4.006   3.033  15.656  0.1158 -0.1429 -0.4025
  268SOD    SOD22328   1.610   0.184  10.515 -0.2943  0.2841 -0.0872
  269SOD    SOD22329   1.492   2.608  11.541 -0.3895  0.2930  0.4964
  270CLA    CLA22330   5.438   1.136   3.157  0.0220  0.2479 -0.0807
  271CLA    CLA22331   3.551   2.630  12.606  0.7195 -0.0193  0.0358
  272CLA    CLA22332   2.000   2.658  16.569  0.3318 -0.4614 -0.1557
  273CLA    CLA22333   6.241   1.099  16.104  0.1327 -0.3704  0.3817
  274CLA    CLA22334   2.611   5.058  11.398  0.1671 -0.1620 -0.0481
  275CLA    CLA22335   1.851   5.036   2.784  0.3226  0.1933  0.2148
  276CLA    CLA22336   2.958   1.758  14.645 -0.0335 -0.0615 -0.0123
  277CLA    CLA22337   6.521   2.492   4.684  0.5668 -0.3142  0.0146
  278CLA    CLA22338   2.569   1.611   4.296  0.3788  0.7409  0.3034
  279CLA    CLA22339   3.001   3.204   5.302 -0.3745 -0.1648  0.3283
  280CLA    CLA22340   1.633   4.745   1.128 -0.3543  0.1454 -0.5772
  281CLA    CLA22341   5.968   5.707  13.649 -0.2722  0.1148 -0.0082
  282CLA    CLA22342   0.933   1.207   2.017  0.1303  0.3577 -0.4278
  283CLA    CLA22343   1.298   0.820  13.056 -0.1290  0.1693  0.0540
  284CLA    CLA22344   5.401   0.683  15.618  0.1933  0.0314  0.2996
  285CLA    CLA22345   2.835   6.612  14.700 -0.0707  0.2382  0.1409
  286CLA    CLA22346   4.613   1.182  13.520  0.0120  0.1913 -0.4709
  287CLA    CLA22347   6.714   2.238  16.298 -0.4032 -0.1369  0.0706
  288CLA    CLA22348   4.516   5.290  14.338 -0.3080 -0.0251 -0.0217
  289CLA    CLA22349   5.124   0.364   5.527  0.0919 -0.2959 -0.0393
  290CLA    CLA22350   2.851   0.551  13.133  0.0776 -0.0027  0.2279
  291CLA    CLA22351   0.370   5.844   1.849  0.0041  0.5565  0.2497
  292CLA    CLA22352   0.858   0.449   2.266  0.3183  0.0535 -0.3694
  293CLA    CLA22353   5.141   4.645   4.732  0.0292  0.1561  0.1224
  294CLA    CLA22354   6.692   4.558   4.552  0.2677  0.1101  0.3488
  295CLA    CLA22355   4.687   5.277   0.313 -0.2500 -0.0476 -0.1843
  296CLA    CLA22356   0.568   5.887  11.586  0.2515  0.0254 -0.4636
  297CLA    CLA22357   2.208   3.987  12.957 -0.6587 -0.1886  0.1239
  298CLA    CLA22358   1.490   5.756  17.021 -0.2328 -0.1085 -0.2606
  299CLA    CLA22359   4.573   3.662   1.349 -0.0791 -0.3688  0.1979
  300CLA    CLA22360   2.989   1.390   3.482 -0.0604  0.2307  0.1956
  301CLA    CLA22361   5.779   1.424  13.965 -0.1257 -0.2013 -0.1492
  302CLA    CLA22362   1.584   0.786  14.789  0.0517 -0.1219  0.3637
  303CLA    CLA22363   3.217   4.967   0.403  0.1536 -0.0533 -0.5584
  304CLA    CLA22364   6.389   1.368   0.894 -0.2839 -0.2894 -0.4209
  305CLA    CLA22365   1.047   0.667   0.907  0.0560 -0.5441  0.5120
  306CLA    CLA22366   2.849   5.114  13.088 -0.7176 -0.0112  0.3021
  307CLA    CLA22367   1.775   4.930   5.177  0.2293  0.1205 -0.2162
  308CLA    CLA22368   2.733   4.145  14.779  0.3735 -0.2476 -0.1635
  309CLA    CLA22369   1.817   5.774  15.510 -0.1855  0.0721  0.1523
  310CLA    CLA22370   5.697   5.634   3.018  0.1378 -0.2311  0.1909
  311CLA    CLA22371   3.412   2.078  16.898 -0.1118 -0.3824 -0.0102
  312CLA    CLA22372   3.862   3.877   2.318  0.5770 -0.1613 -0.0720
  313CLA    CLA22373   3.628   3.534  13.781 -0.2214  0.1119  0.1549
  314CLA    CLA22374   4.123   6.267   5.067  0.3633  0.4119  0.1060
  315CLA    CLA22375   0.787   6.785   1.696 -0.2414 -0.2176  0.1608
  316CLA    CLA22376   0.105   1.101  16.114 -0.0970 -0.2348  0.1056
  317CLA    CLA22377   1.272   6.587   2.616 -0.2953 -0.3993  0.2706
  318CLA    CLA22378   5.154   4.421   0.211 -0.0910  0.2073  0.0723
  319CLA    CLA22379   4.147   4.044  13.565  0.2392  0.1043 -0.2481
  320CLA    CLA22380   0.813   3.098   0.200  0.0664  0.2436 -0.1459
  321CLA    CLA22381   0.163   3.133   3.099 -0.3163  0.2348  0.2792
  322CLA    CLA22382   6.486   6.001  16.578 -0.5889 -0.3738  0.1354
  323TIP3   OH222383   5.956   3.323   0.437  0.0062 -0.5357  0.0774
  323TIP3    H122384   5.903   3.400   0.459  0.9439  0.5959 -1.4273
  323TIP3    H222385   5.975   3.282   0.522  0.1456  1.3465  1.0063
  324TIP3   OH222386   0.234   6.595   5.506 -0.6194 -0.1404 -0.3330
  324TIP3    H122387   0.295   6.529   5.473  0.8585  0.7068  0.5923
  324TIP3    H222388   0.252   6.600   5.600 -2.1209  0.1611 -0.0326
  325TIP3   OH222389   4.127   4.227   3.822  0.0393 -0.0812 -0.5449
  325TIP3    H122390   4.200   4.173   3.855  0.9616 -0.0704 -2.4462
  325TIP3    H222391   4.051   4.170   3.828  0.2344 -0.2126  1.1715
  326TIP3   OH222392   1.267   2.934   5.348 -0.0891  0.0463  0.0483
  326TIP3    H122393   1.197   2.986   5.309 -0.2749 -1.7980 -2.3320
  326TIP3    H222394   1.347   2.982   5.325 -0.1947 -0.9644 -2.8061
  327TIP3   OH222395   0.845   4.934   0.231  0.4516 -0.2078  0.5064
  327TIP3    H122396   0.892   4.862   0.275  3.5234  0.3901 -1.4663
  327TIP3    H222397   0.757   4.899   0.216  0.7671 -2.2158  2.6601
  328TIP3   OH222398   3.649   3.643  15.149  0.1205  0.5777 -0.2085
  328TIP3    H122399   3.616   3.586  15.219  1.9792  0.6226  0.7700
  328TIP3    H222400   3.575   3.699  15.126 -0.9174 -0.3419  0.7718
  329TIP3   OH222401   6.434   3.644  13.950  0.5413 -0.1102 -0.2141
  329TIP3    H122402   6.509   3.613  13.900  0.5249  0.8662 -0.8754
  329TIP3    H222403   6.465   3.723  13.994  0.2396 -0.3600  0.4592
  330TIP3   OH222404   3.788   6.093  16.746 -0.2500  0.0708  0.1036
  330TIP3    H122405   3.878   6.090  16.713 -1.1227 -0.7407 -2.4272
  330TIP3    H222406   3.792   6.154  16.819  2.6702 -1.2321  1.1929
  331TIP3   OH222407   1.712   5.058  11.541  0.0375 -0.8148 -0.4370
  331TIP3    H122408   1.644   5.038  11.605 -0.6653 -0.2800 -1.0043
  331TIP3    H222409   1.665   5.079  11.461  0.7316  1.8010 -0.2600
  332TIP3   OH222410   1.803   2.178   4.432 -0.1367  0.6796 -0.4832
  332TIP3    H122411   1.757   2.165   4.515  0.2270 -0.5588 -0.4596
  332TIP3    H222412   1.820   2.272   4.428 -0.8357  0.8570  0.4777
  333TIP3   OH222413   0.246   6.692   0.813  0.2663 -0.5544 -0.2005
  333TIP3    H122414   0.228   6.605   0.779  1.4985 -0.3505 -1.4683
  333TIP3    H222415   0.180   6.748   0.772  0.4290 -0.6529 -0.6019
  334TIP3   OH222416   0.798   3.170  14.853 -0.2119 -0.4515  0.5066
  334TIP3    H122417   0.764   3.178  14.764  2.0464  1.0295 -0.3065
  334TIP3    H222418   0.751   3.096  14.891 -4.4236  1.4861 -0.3884
  335TIP3   OH222419   4.013   4.288  13.407  0.3675  0.3592  0.4363
  335TIP3    H122420   3.993   4.351  13.477  1.0751  0.1394  0.8559
  335TIP3    H222421   4.044   4.210  13.454 -0.6121 -0.3524 -0.0740
  336TIP3   OH222422   2.919   5.492   4.804  0.5467 -0.1123 -0.0955
  336TIP3    H122423   2.969   5.516   4.882  2.3249 -0.4081 -1.0961
  336TIP3    H222424   2.945   5.557   4.739 -0.3385 -0.3262 -0.6674
  337TIP3   OH222425   2.782   5.373   1.853 -0.2982  0.6316 -0.0145
  337TIP3    H122426   2.853   5.369   1.790  0.0116 -0.5420  0.3932
  337TIP3    H222427   2.786   5.290   1.900 -2.6139  0.0688 -0.6991
  338TIP3   OH222428   2.250   5.045  10.703 -0.4468 -0.5088  0.3870
  338TIP3    H122429   2.306   5.118  10.729  1.2599 -1.1500 -1.2209
  338TIP3    H222430   2.178   5.086  10.655  1.8601  0.1552 -2.8800
  339TIP3   OH222431   6.107   6.082  16.262 -0.2497  0.5172  0.2611
  339TIP3    H122432   6.145   6.081  16.174  0.2709 -1.0708  0.4805
  339TIP3    H222433   6.049   6.159  16.262 -0.2622  0.5484 -1.4536
  340TIP3   OH222434   3.351   3.251   1.501  0.7782 -0.5753  0.3120
  340TIP3    H122435   3.295   3.205   1.564  0.7100  0.3477  0.9563
  340TIP3    H222436   3.290   3.298   1.445  0.7399 -2.8640 -1.7078
  341TIP3   OH222437   0.261   4.109   1.181 -0.4251 -0.1823 -0.6920
  341TIP3    H122438   0.220   4.124   1.267  0.2661  0.7572 -0.5123
  341TIP3    H222439   0.211   4.164   1.121 -0.1046  0.1553 -0.6556
  342TIP3   OH222440   0.973   3.497   4.926  0.1294 -0.2658 -0.0197
  342TIP3    H122441   0.942   3.480   5.015 -1.9359  1.0046 -0.4427
  342TIP3    H222442   0.950   3.419   4.877 -0.6857 -0.1169  0.1101
  343TIP3   OH222443   1.676   0.192  16.886  0.1282 -0.5364 -0.6320
  343TIP3    H122444   1.734   0.264  16.910 -0.0338 -0.6567  0.1608
  343TIP3    H222445   1.671   0.138  16.965 -1.9437  0.0666 -0.2642
  344TIP3   OH222446   6.033   2.231   4.365 -0.1869  0.6317 -0.9767
  344TIP3    H122447   6.057   2.158   4.422 -2.4001 -0.4174 -1.2780
  344TIP3    H222448   6.039   2.308   4.421 -2.9451 -0.4450  0.9948
  345TIP3   OH222449   5.272   1.636   1.302  0.4798 -0.3461  0.7491
  345TIP3    H122450   5.359   1.676   1.300  1.3168 -1.9984 -2.3590
  345TIP3    H222451   5.286   1.550   1.340  0.3996 -0.9360 -0.5242
  346TIP3   OH222452   0.439   1.467   5.686  0.6407  0.1280 -0.0879
  346TIP3    H122453   0.411   1.530   5.619 -1.0011 -0.4377  0.0339
  346TIP3    H222454   0.427   1.514   5.769 -3.7382 -1.2817  0.2826
  347TIP3   OH222455   0.509   1.124  13.321  0.2334 -0.2559 -0.1139
  347TIP3    H122456   0.604   1.130  13.326  0.2282 -0.0173 -0.2987
  347TIP3    H222457   0.479   1.215  13.318 -0.0593 -0.3011  1.0307
  348TIP3   OH222458   3.501   5.680  13.267 -0.4102  0.3853 -0.3076
  348TIP3    H122459   3.533   5.754  13.320 -0.0666 -0.7425  1.1112
  348TIP3    H222460   3.454   5.625  13.329 -1.1299 -0.3353 -1.4649
  349TIP3   OH222461   4.701   0.142   1.026 -0.2654 -0.4749  0.7347
  349TIP3    H122462   4.693   0.220   0.971 -3.4548 -1.6370 -0.7407
  349TIP3    H222463   4.766   0.087   0.981  0.5177  0.4794  0.6791
  350TIP3   OH222464   4.150   5.027  14.271 -0.6582 -0.3161  0.7459
  350TIP3    H122465   4.088   4.963  14.236 -0.2961 -1.5014  2.2036
  350TIP3    H222466   4.102   5.072  14.341  0.4498 -2.1606  2.8008
  351TIP3   OH222467   2.146   6.760  16.271 -0.0627 -0.4053 -0.3612
  351TIP3    H122468   2.155   6.849  16.238 -2.0501 -0.3537 -0.9217
  351TIP3    H222469   2.131   6.707  16.193 -1.0688 -0.8728  0.1253
  352TIP3   OH222470   4.552   1.061  15.317  0.5247  0.0571 -0.1369
  352TIP3    H122471   4.617   1.122  15.352  0.9877 -0.7968  0.5474
  352TIP3    H222472   4.604   0.988  15.283 -0.0587 -1.0327  1.1652
  353TIP3   OH222473   0.982   2.485  16.030  0.0449 -0.0154  0.5200
  353TIP3    H122474   0.972   2.390  16.024 -2.0286  0.0674  1.6247
  353TIP3    H222475   0.897   2.515  16.062  0.0545  2.4002 -1.4778
  354TIP3   OH222476   5.855   2.973   4.736  0.2938  0.6034  0.2121
  354TIP3    H122477   5.914   2.933   4.671  0.2050 -0.2473  0.6379
  354TIP3    H222478   5.828   3.055   4.696  0.5922  0.3031 -0.6381
  355TIP3   OH222479   0.018   5.700   0.134  0.4714  0.2552 -0.3547
  355TIP3    H122480   0.042   5.699   0.227  0.2390  0.7008 -0.2875
  355TIP3    H222481   0.080   5.640   0.093 -1.2741 -2.2943  0.5266
  356TIP3   OH222482   6.478   6.032  11.851  0.3665  0.3601 -0.1428
  356TIP3    H122483   6.460   5.940  11.869  2.5279 -0.0108  0.4224
  356TIP3    H222484   6.546   6.030  11.783  1.8229  1.4497  1.2131
  357TIP3   OH222485   6.681   2.916  12.473  0.1634  0.1534  0.1586
  357TIP3    H122486   6.679   2.824  12.497  1.7505 -0.3862 -1.5416
  357TIP3    H222487   6.641   2.919  12.386  0.6688  0.9533 -0.0642
  358TIP3   OH222488   1.906   6.431   0.614  0.2092 -0.0793 -0.3338
  358TIP3    H122489   1.863   6.396   0.536 -0.7576  0.6606 -0.1401
  358TIP3    H222490   1.961   6.502   0.581  0.9182 -0.6794 -0.5058
  359TIP3   OH222491   6.309   1.651   5.447 -0.1435 -0.0583 -0.6948
  359TIP3    H122492   6.257   1.639   5.527  2.0242  1.8666  1.1601
  359TIP3    H222493   6.379   1.587   5.454  0.4871  0.6242 -0.6344
  360TIP3   OH222494   4.463   3.048   1.517  0.2411  0.6534 -0.4428
  360TIP3    H122495   4.466   2.968   1.569  1.6816 -0.4000 -2.0387
  360TIP3    H222496   4.542   3.096   1.542  0.3023  0.7342 -0.7943
  361TIP3   OH222497   0.526   5.005   3.291 -0.7430  0.1546  0.2911
  361TIP3    H122498   0.524   4.936   3.225 -1.5166  2.2982 -2.0765
  361TIP3    H222499   0.618   5.032   3.294 -0.7901  0.3973 -0.3286
  362TIP3   OH222500   2.297   6.301  16.970  0.4849 -0.3608 -0.1986
  362TIP3    H122501   2.216   6.300  16.921  0.8628 -0.0985 -0.8419
  362TIP3    H222502   2.286   6.233  17.037 -0.0420 -0.6962 -0.6223
  363TIP3   OH222503   0.229   1.504  12.465  0.0699  0.2901 -0.2498
  363TIP3    H122504   0.255   1.487  12.556  2.1259  2.1953 -0.3924
  363TIP3    H222505   0.164   1.574  12.472 -1.1276 -0.7959 -0.1906
  364TIP3   OH222506   6.004   3.647  17.092  0.1842 -0.1749 -0.3859
  364TIP3    H122507   6.058   3.721  17.065 -0.1498  0.4312  0.5444
  364TIP3    H222508   5.922   3.658  17.043  0.0443  0.2149 -0.0673
  365TIP3   OH222509   3.018   4.284   1.610  0.0298  0.0736 -0.1092
  365TIP3    H122510   2.995   4.350   1.545 -2.0899 -0.3344  0.1477
  365TIP3    H222511   2.943   4.224   1.610  0.3729 -0.4234  2.0918
  366TIP3   OH222512   1.467   2.622  16.220  0.2922 -0.2986  0.9633
  366TIP3    H122513   1.380   2.595  16.191  0.8117  0.6617 -1.8244
  366TIP3    H222514   1.452   2.701  16.272 -0.4315  1.8354 -2.2156
  367TIP3   OH222515   5.228   5.071  13.295  0.3917  0.7590  0.5037
  367TIP3    H122516   5.265   4.984  13.283 -0.5139  0.0255  2.5855
  367TIP3    H222517   5.202   5.098  13.207  0.3255 -1.2551 -0.1478
  368TIP3   OH222518   3.621   3.903   5.243  0.4079  0.9626 -0.1234
  368TIP3    H122519   3.654   3.840   5.307  1.7232  3.1595  1.4874
  368TIP3    H222520   3.534   3.871   5.221  1.0391 -1.4440  0.5117
  369TIP3   OH222521   3.112   3.876  13.479 -0.1742 -0.1010  0.2278
  369TIP3    H122522   3.035   3.932  13.473 -0.7461 -1.0201 -1.3756
  369TIP3    H222523   3.162   3.895  13.400  0.2508 -0.9504  0.2820
  370TIP3   OH222524   2.992   2.944  14.193 -0.1260  0.7814 -0.3396
  370TIP3    H122525   3.016   3.016  14.251  1.4636 -0.5671  0.7517
  370TIP3    H222526   2.977   2.870  14.252 -0.0045 -0.2374 -1.5529
  371TIP3   OH222527   0.892   1.613  16.213  0.0006  0.0688  0.0959
  371TIP3    H122528   0.903   1.708  16.227 -1.1976  0.7174 -2.6830
  371TIP3    H222529   0.821   1.607  16.150  2.0145 -2.5426 -2.1364
  372TIP3   OH222530   5.801   3.254  10.620  0.1139 -0.2912  0.5678
  372TIP3    H122531   5.733   3.319  10.639 -2.3544 -2.7640  0.9693
  372TIP3    H222532   5.765   3.204  10.546  1.3924 -1.8428  0.9426
  373TIP3   OH222533   2.728   2.774   3.402  0.5724  0.1227  0.3285
  373TIP3    H122534   2.667   2.828   3.352  0.8166  0.1345  0.0478
  373TIP3    H222535   2.699   2.684   3.385 -0.0395  0.1679  1.0560
  374TIP3   OH222536   5.771   5.937  12.520 -0.2260 -0.1987 -0.4765
  374TIP3    H122537   5.723   6.011  12.483  0.3841  1.1191  1.2871
  374TIP3    H222538   5.857   5.971  12.542 -0.0412 -1.3344  0.6916
  375TIP3   OH222539   5.689   4.310   5.664  0.8677 -0.0340  0.4594
  375TIP3    H122540   5.689   4.220   5.697  0.6209 -0.1271  0.2073
  375TIP3    H222541   5.772   4.318   5.617  0.7149 -0.2533  0.1496
  376TIP3   OH222542   1.616   2.346   0.219  0.2623 -0.8281  0.3991
  376TIP3    H122543   1.537   2.303   0.250 -0.9330  1.2947  0.5099
  376TIP3    H222544   1.620   2.428   0.267  0.9240  0.4364 -1.6512
  377TIP3   OH222545   4.417   4.132  10.523 -0.3107 -0.5584 -0.9034
  377TIP3    H122546   4.371   4.192  10.465 -1.4856 -2.5782 -2.2010
  377TIP3    H222547   4.506   4.127  10.488 -0.0719  0.7229 -0.5069
  378TIP3   OH222548   2.049   3.709  12.997  0.3113  0.2879 -0.8937
  378TIP3    H122549   2.043   3.698  13.092 -0.7298 -0.7966 -1.0618
  378TIP3    H222550   2.095   3.792  12.985  1.4938 -0.1212  0.5515
  379TIP3   OH222551   3.730   0.636  12.763 -0.5707  0.0473  0.4625
  379TIP3    H122552   3.806   0.577  12.754 -0.3106  0.6099 -1.4240
  379TIP3    H222553   3.768   0.722  12.779 -0.8834  0.0655  1.1392
  380TIP3   OH222554   2.667   0.378   4.388  0.6845 -0.3225  0.1555
  380TIP3    H122555   2.643   0.446   4.450  2.5636  2.1756 -1.6723
  380TIP3    H222556   2.762   0.379   4.385  0.7587 -2.5233 -0.5558
  381TIP3   OH222557   6.232   5.366  16.297  0.6507 -0.4119 -0.4652
  381TIP3    H122558   6.324   5.394  16.293  0.2784  0.9831  0.1971
  381TIP3    H222559   6.206   5.355  16.206  1.7278 -1.7696 -0.6443
  382TIP3   OH222560   0.141   4.042   2.265 -0.3569  0.1019 -0.1028
  382TIP3    H122561   0.145   3.951   2.239 -0.1730  0.4261 -1.2341
  382TIP3    H222562   0.051   4.054   2.296 -0.6139 -0.2646 -0.7000
  383TIP3   OH222563   6.250   3.127  11.659  0.3179 -0.1042 -0.6777
  383TIP3    H122564   6.333   3.103  11.619  1.9827  0.8080  1.9491
  383TIP3    H222565   6.245   3.222  11.649 -0.9433 -0.2498 -1.6768
  384TIP3   OH222566   4.795   4.958   5.369  0.4541 -0.2919  0.4697
  384TIP3    H122567   4.780   5.027   5.304  1.9830 -0.9898 -0.6497
  384TIP3    H222568   4.835   5.004   5.443  0.0430  0.2656  0.3563
  385TIP3   OH222569   2.748   6.032  11.499  0.1307  0.0117 -0.1267
  385TIP3    H122570   2.772   6.054  11.589  2.0515 -2.9340  0.2446
  385TIP3    H222571   2.705   5.946  11.506  2.2290 -1.3160 -2.0961
  386TIP3   OH222572   2.874   5.153   2.005 -0.1028 -0.2072  0.1959
  386TIP3    H122573   2.853   5.090   2.074  0.7978  1.0831  1.7140
  386TIP3    H222574   2.969   5.165   2.012 -0.0588  0.2846 -1.0002
  387TIP3   OH222575   0.156   0.817   5.164  0.3234 -0.4418 -0.3183
  387TIP3    H122576   0.230   0.855   5.117  1.3630 -1.5820  0.3330
  387TIP3    H222577   0.184   0.814   5.255 -0.9695  0.1025  0.1222
  388TIP3   OH222578   0.799   1.535   4.060  0.2631 -0.1507 -0.3523
  388TIP3    H122579   0.867   1.529   4.128 -0.5951  0.6878  0.6223
  388TIP3    H222580   0.819   1.464   3.999  2.1281  0.1879 -0.1958
  389TIP3   OH222581   1.249   3.811  10.351 -0.5417 -0.2552  0.1492
  389TIP3    H122582   1.159   3.789  10.325 -0.3757  0.0290 -0.7024
  389TIP3    H222583   1.300   3.802  10.270  0.3550 -1.2401  0.8040
  390TIP3   OH222584   2.389   6.175  15.834 -0.2223  0.3038  0.5850
  390TIP3    H122585   2.356   6.085  15.839 -1.0951  0.6229  0.7002
  390TIP3    H222586   2.481   6.165  15.810 -0.8285 -0.5598 -1.6368
  391TIP3   OH222587   1.783   0.653  13.896  0.0844 -0.2789  0.2602
  391TIP3    H122588   1.765   0.563  13.923  0.3227 -0.4643 -0.1950
  391TIP3    H222589   1.718   0.670  13.828 -0.5095  0.1853  0.9245
  392TIP3   OH222590   3.521   1.621  11.983 -0.4677 -0.6722 -0.6355
  392TIP3    H122591   3.427   1.614  12.001 -0.2930 -0.8264  0.2798
  392TIP3    H222592   3.547   1.701  12.029 -0.0265 -1.0035 -0.3053
  393TIP3   OH222593   1.428   1.579   2.861 -0.1374  0.0752  0.1091
  393TIP3    H122594   1.366   1.650   2.848 -0.8579 -0.5052  0.3025
  393TIP3    H222595   1.509   1.623   2.886 -0.4488  0.8487 -0.1900
  394TIP3   OH222596   6.101   2.068  11.244 -0.0085 -0.3452 -0.1233
  394TIP3    H122597   6.168   2.061  11.176  0.9292 -0.5427  0.8019
  394TIP3    H222598   6.027   2.018  11.209  0.9401 -1.5973 -0.4274
  395TIP3   OH222599   1.878   4.246  12.002 -0.0393  0.6972 -0.5778
  395TIP3    H122600   1.958   4.195  12.017  0.2995  1.5834  0.8080
  395TIP3    H222601   1.906   4.337  12.011 -0.7635  1.1487 -2.3639
  396TIP3   OH222602   3.481   3.130  16.251  0.1557 -0.1665 -0.6321
  396TIP3    H122603   3.443   3.057  16.204  0.1547  0.1636 -1.1511
  396TIP3    H222604   3.420   3.203  16.237 -0.1131 -0.1926  0.3091
  397TIP3   OH222605   5.024   5.665   4.716 -0.4638  0.3882 -0.3328
  397TIP3    H122606   4.991   5.728   4.779 -0.4147  0.7034 -0.6209
  397TIP3    H222607   5.044   5.716   4.638  0.4496  0.1586 -0.2604
  398TIP3   OH222608   1.413   5.394  12.362 -0.6315 -0.0014  0.2467
  398TIP3    H122609   1.453   5.447  12.430 -1.8321  0.3716  0.6780
  398TIP3    H222610   1.477   5.394  12.291 -0.5567  1.9180  0.2805
  399TIP3   OH222611   1.239   4.785   3.422  0.0761  0.9510  0.2759
  399TIP3    H122612   1.166   4.784   3.484 -0.1215  1.7159  0.0694
  399TIP3    H222613   1.315   4.763   3.476 -0.4017 -0.7305  0.3281
  400TIP3   OH222614   0.907   4.783  17.078 -0.5136  0.2940 -0.5393
  400TIP3    H122615   0.991   4.817  17.045  0.1584 -0.8039 -0.0235
  400TIP3    H222616   0.853   4.861  17.089  1.1013  1.2926  0.9450
  401TIP3   OH222617   5.518   1.958  12.019  0.4365 -0.2630 -0.3359
  401TIP3    H122618   5.438   1.917  11.986 -0.5946 -0.0863  1.7855
  401TIP3    H222619   5.579   1.885  12.032  0.2249 -0.5349 -0.8289
  402TIP3   OH222620   4.826   2.353   1.100  0.0108 -0.6076 -0.0524
  402TIP3    H122621   4.873   2.421   1.148  0.2271  0.2765 -1.4461
  402TIP3    H222622   4.738   2.355   1.135 -0.5280  1.7605 -1.3179
  403TIP3   OH222623   5.233   1.180  12.435 -0.2546  0.1468  0.1993
  403TIP3    H122624   5.296   1.133  12.381 -0.7194 -0.1222 -0.1147
  403TIP3    H222625   5.194   1.113  12.491  0.8523  0.5576  1.5147
  404TIP3   OH222626   2.700   2.632   4.711 -0.5563  0.0268 -0.6830
  404TIP3    H122627   2.723   2.684   4.789 -0.8563  2.4353 -2.0792
  404TIP3    H222628   2.642   2.564   4.744  0.8382 -0.2170  1.4663
  405TIP3   OH222629   4.100   2.967  12.932  0.0843 -0.2158 -0.2052
  405TIP3    H122630   4.021   2.958  12.880 -0.1045  0.4133 -0.0321
  405TIP3    H222631   4.163   3.009  12.874  0.1281 -0.2481 -0.1813
  406TIP3   OH222632   6.678   3.051  12.200 -0.7752  0.6752  0.3440
  406TIP3    H122633   6.607   3.068  12.138  1.1001  0.0410 -2.1790
  406TIP3    H222634   6.755   3.040  12.144  0.9980 -0.3100  2.8273
  407TIP3   OH222635   4.879   4.566  11.005  0.2205  0.5354  0.0488
  407TIP3    H122636   4.852   4.541  10.916 -2.1224 -0.1012  0.8588
  407TIP3    H222637   4.970   4.538  11.011  0.3488  0.3205 -2.0473
  408TIP3   OH222638   0.120   1.813  16.365 -0.1677  0.1577  0.1051
  408TIP3    H122639   0.048   1.750  16.360  0.9542 -1.0705 -2.3235
  408TIP3    H222640   0.176   1.781  16.436 -0.3374 -0.7844 -0.1825
  409TIP3   OH222641   0.438   0.904   1.071 -0.2473  0.3841 -0.2589
  409TIP3    H122642   0.498   0.904   1.146 -0.3869 -2.7988 -0.0312
  409TIP3    H222643   0.496   0.910   0.995  0.0840  0.8965  0.0282
  410TIP3   OH222644   5.454   2.851  12.236 -0.0576  0.1174 -0.4579
  410TIP3    H122645   5.374   2.898  12.258  0.4905  1.6709 -1.6100
  410TIP3    H222646   5.424   2.770  12.194 -1.0130 -0.6168  1.5069
  411TIP3   OH222647   0.101   2.133  13.244  0.1309  0.3644 -0.4269
  411TIP3    H122648   0.140   2.048  13.264 -1.2381 -0.4012 -0.8535
  411TIP3    H222649   0.043   2.151  13.318  0.2943  0.8602 -0.4156
  412TIP3   OH222650   0.511   1.446  16.164  0.2361  0.4655 -0.0568
  412TIP3    H122651   0.422   1.429  16.135  0.0841  0.4813  0.3938
  412TIP3    H222652   0.563   1.447  16.083  0.1131 -1.2615 -0.2139
  413TIP3   OH222653   1.469   3.836  12.685 -0.1305  0.0532  0.0558
  413TIP3    H122654   1.472   3.870  12.595 -4.9760 -0.9639 -0.7762
  413TIP3    H222655   1.517   3.754  12.682  0.7024  0.5589 -1.2744
  414TIP3   OH222656   1.893   0.387  16.432 -0.2528  0.4709 -0.0709
  414TIP3    H122657   1.817   0.339  16.465  0.9785 -0.4121  1.6153
  414TIP3    H222658   1.967   0.329  16.450  1.4209  3.1464  2.6269
  415TIP3   OH222659   4.156   0.070   3.338 -0.1531  0.1236 -0.3339
  415TIP3    H122660   4.196   0.077   3.424  0.1603  0.0181 -0.4675
  415TIP3    H222661   4.230   0.066   3.277 -0.3721  0.4070 -0.6239
  416TIP3   OH222662   6.476   5.894   2.042  0.5084  0.5124 -0.3809
  416TIP3    H122663   6.543   5.859   1.983  0.0100 -0.2379 -0.5138
  416TIP3    H222664   6.506   5.869   2.130  0.3902  0.1514 -0.4424
  417TIP3   OH222665   1.743   1.634   5.359 -0.2660 -0.2110 -0.1841
  417TIP3    H122666   1.794   1.649   5.280  2.0114  0.4633  1.3069
  417TIP3    H222667   1.694   1.716   5.372 -0.5202 -0.2655 -0.7769
  418TIP3   OH222668   6.606   0.568   5.690 -0.0882 -0.1519 -0.1694
  418TIP3    H122669   6.583   0.581   5.782 -2.0965 -1.4308 -0.4382
  418TIP3    H222670   6.584   0.651   5.647  0.1398  0.1885  0.3648
  419TIP3   OH222671   2.355   0.032  15.918  0.1065 -0.1328  0.0842
  419TIP3    H122672   2.354   0.073  15.831  0.3804 -1.6124 -0.6593
  419TIP3    H222673   2.265   0.002  15.932 -0.1899  1.0480  0.8055
  420TIP3   OH222674   3.172   5.728  16.542  0.1087 -0.0692  0.4256
  420TIP3    H122675   3.187   5.701  16.633 -0.9442  0.9437  0.9197
  420TIP3    H222676   3.237   5.797  16.527  0.3908 -0.3479  0.3406
  421TIP3   OH222677   3.605   0.667   2.390 -0.7853  0.2896 -0.1480
  421TIP3    H122678   3.568   0.621   2.315  0.7823 -2.3363  0.5217
  421TIP3    H222679   3.565   0.624   2.466  2.7636 -2.2327  0.5787
  422TIP3   OH222680   2.483   3.149  13.573  0.1351  0.4541  0.8844
  422TIP3    H122681   2.549   3.124  13.637  3.8286  2.7042 -1.6160
  422TIP3    H222682   2.473   3.244  13.586 -2.0419  0.3197  0.5739
  423TIP3   OH222683   4.332   0.923  11.590 -0.6450  0.2382 -0.2152
  423TIP3    H122684   4.247   0.955  11.620 -0.4296  0.1334  0.5267
  423TIP3    H222685   4.329   0.931  11.495 -0.7050  2.2081 -0.0783
  424TIP3   OH222686   5.114   3.924   1.697  0.4711  0.5543  0.1916
  424TIP3    H122687   5.131   3.833   1.721  0.4962  0.6609  0.5970
  424TIP3    H222688   5.192   3.952   1.649  0.3875  0.3114 -0.0870
  425TIP3   OH222689   5.856   2.241  16.795  0.6788 -0.3111  0.0173
  425TIP3    H122690   5.929   2.263  16.737  0.5017  1.4935  0.4005
  425TIP3    H222691   5.897   2.223  16.880  0.8257 -1.4655 -0.2900
  426TIP3   OH222692   1.975   2.338  12.414 -0.1552  0.3175 -0.4210
  426TIP3    H122693   1.997   2.347  12.507 -0.9283 -0.2540 -0.1708
  426TIP3    H222694   1.983   2.244  12.397  0.3120  0.4655 -1.0200
  427TIP3   OH222695   1.111   6.644  10.305  0.6858 -0.2597 -0.0592
  427TIP3    H122696   1.155   6.622  10.388 -0.8987 -0.0340  0.8925
  427TIP3    H222697   1.081   6.559  10.271 -0.0643 -0.2098  0.4492
  428TIP3   OH222698   3.294   3.778   2.436 -0.3126  0.6038 -0.1895
  428TIP3    H122699   3.322   3.832   2.510  1.5193  0.8061 -0.9719
  428TIP3    H222700   3.265   3.840   2.370 -1.8234  0.4287  0.2722
  429TIP3   OH222701   5.370   1.380   4.832 -0.0465  0.0579  0.1166
  429TIP3    H122702   5.380   1.311   4.766  0.8871  0.4340 -0.1664
  429TIP3    H222703   5.443   1.440   4.814  1.0767 -0.5209  2.3312
  430TIP3   OH222704   2.455   1.379  16.413  0.3474  0.2738 -0.1795
  430TIP3    H122705   2.541   1.420  16.420  1.1448 -1.4037  0.3640
  430TIP3    H222706   2.467   1.311  16.346 -0.5815  0.0974 -0.1725
  431TIP3   OH222707   5.640   5.939  11.796 -0.3300  0.0885 -0.4112
  431TIP3    H122708   5.571   5.997  11.763  1.3429  1.8833 -0.9406
  431TIP3    H222709   5.685   5.990  11.862 -0.2714 -1.5498  0.8919
  432TIP3   OH222710   3.938   4.893  10.835  0.0858 -0.1808  0.8794
  432TIP3    H122711   3.912   4.985  10.829 -1.0161 -0.5175  0.3738
  432TIP3    H222712   3.867   4.851  10.883  0.5442 -0.7930  1.0309
  433TIP3   OH222713   4.873   3.906  12.143 -0.2708  0.7678  0.3016
  433TIP3    H122714   4.948   3.914  12.202  0.4600 -0.4961 -0.4156
  433TIP3    H222715   4.910   3.878  12.060 -1.4180  1.3456 -0.4453
  434TIP3   OH222716   2.298   4.955  10.214 -0.5535 -0.2304  0.4990
  434TIP3    H122717   2.328   4.864  10.221 -1.6101 -0.7246 -0.7979
  434TIP3    H222718   2.205   4.950  10.238 -0.7997  0.3637 -0.2943
  435TIP3   OH222719   0.745   6.565  13.329 -0.3893  0.5811 -0.3963
  435TIP3    H122720   0.667   6.526  13.289  0.4301 -1.7413  0.1131
  435TIP3    H222721   0.806   6.492  13.337  2.3778  2.5584 -1.9938
  436TIP3   OH222722   5.402   4.462  16.548 -0.1091 -0.1460 -0.3168
  436TIP3    H122723   5.416   4.529  16.482  1.1676  1.2442  1.2652
  436TIP3    H222724   5.308   4.462  16.564 -0.2845  0.2800 -1.3362
  437TIP3   OH222725   5.844   6.004   1.259  0.4739 -0.1417  0.3175
  437TIP3    H122726   5.921   5.974   1.210  0.2824  0.8920 -0.6609
  437TIP3    H222727   5.848   5.957   1.342  2.4187  0.2385  0.4789
  438TIP3   OH222728   0.650   4.700   4.917  0.5292 -0.3135 -0.1548
  438TIP3    H122729   0.690   4.622   4.878 -0.6582 -0.7513 -0.5360
  438TIP3    H222730   0.716   4.769   4.907  1.5188 -1.2215  0.0185
  439TIP3   OH222731   2.176   4.278  14.785  0.6611  0.3497 -0.2599
  439TIP3    H122732   2.250   4.258  14.842  0.2733 -0.6559 -0.0957
  439TIP3    H222733   2.171   4.374  14.785 -0.8512  0.4202  3.4059
  440TIP3   OH222734   0.223   6.309  16.126  0.1424 -0.1502  0.6717
  440TIP3    H122735   0.193   6.331  16.038  0.9685 -0.0564  0.4076
  440TIP3    H222736   0.281   6.234  16.114 -0.3496 -0.6263  1.2274
  441TIP3   OH222737   6.207   0.431   2.141 -0.7127 -0.0529  0.4189
  441TIP3    H122738   6.291   0.472   2.162 -0.6893  0.1880 -0.1526
  441TIP3    H222739   6.208   0.420   2.046 -1.4635  0.2425  0.3745
  442TIP3   OH222740   5.255   1.172   6.019 -1.0036 -0.5357 -0.4189
  442TIP3    H122741   5.175   1.122   6.035 -1.5414  0.7399  1.0667
  442TIP3    H222742   5.323   1.125   6.068 -1.5849  0.3493  1.3044
  443TIP3   OH222743   0.605   0.339  11.408  0.4930  0.1011 -0.5681
  443TIP3    H122744   0.643   0.251  11.411 -0.0303 -0.1318 -0.5594
  443TIP3    H222745   0.625   0.377  11.494 -0.1308 -0.3832 -0.1954
  444TIP3   OH222746   3.576   2.203   5.308 -0.5358  0.5139 -0.4361
  444TIP3    H122747   3.664   2.235   5.291 -0.2944  0.1645  0.1019
  444TIP3    H222748   3.532   2.206   5.223  0.1783  0.1277 -0.8318
  445TIP3   OH222749   4.911   4.488   2.303 -0.0001  0.2443 -0.0872
  445TIP3    H122750   4.846   4.514   2.238  0.1416 -0.5722 -0.5693
  445TIP3    H222751   4.875   4.410   2.343  0.6120 -0.1311 -0.2588
  446TIP3   OH222752   6.599   4.094   4.616  0.1000  0.0828  0.3903
  446TIP3    H122753   6.526   4.062   4.563 -0.3900  1.7251 -0.0074
  446TIP3    H222754   6.671   4.035   4.597 -0.9826 -1.2803  0.3964
  447TIP3   OH222755   3.570   0.796   1.458 -0.4157  0.2623  0.5681
  447TIP3    H122756   3.650   0.773   1.411 -1.3551  0.2455 -1.0868
  447TIP3    H222757   3.535   0.713   1.488 -0.8328  0.0642 -0.4404
  448TIP3   OH222758   4.180   5.342  16.942 -0.1753  0.2414  0.2018
  448TIP3    H122759   4.185   5.300  16.856 -1.5495  3.0699 -1.3869
  448TIP3    H222760   4.110   5.295  16.987  0.3269 -1.0623 -0.3107
  449TIP3   OH222761   5.675   4.435  13.739 -0.0115 -0.1905  0.1497
  449TIP3    H122762   5.596   4.412  13.789 -1.8165  1.3657 -1.7759
  449TIP3    H222763   5.712   4.351  13.713 -0.7801 -0.9681  1.4662
  450TIP3   OH222764   0.427   6.527   1.544  0.0061  0.1441  0.0982
  450TIP3    H122765   0.445   6.586   1.471 -0.0193  0.4751  0.3560
  450TIP3    H222766   0.386   6.582   1.610  1.7141  0.3011  1.1130
  451TIP3   OH222767   2.809   3.140  12.944  0.2665  0.2433  0.2255
  451TIP3    H122768   2.850   3.184  12.869 -2.1318 -1.1449 -2.0790
  451TIP3    H222769   2.877   3.082  12.977  0.6629 -1.1649 -2.7199
  452TIP3   OH222770   1.161   2.246  11.581  0.0205  0.2812  0.1441
  452TIP3    H122771   1.156   2.161  11.536  0.4933 -0.0241  0.6439
  452TIP3    H222772   1.081   2.250  11.633  0.8879 -0.7740  1.6508
  453TIP3   OH222773   0.082   1.963   1.287 -0.4287  0.0415  0.0065
  453TIP3    H122774   0.112   1.972   1.378  0.1232 -0.5102 -0.1097
  453TIP3    H222775   0.108   1.874   1.263 -1.2340 -0.0713 -0.4525
  454TIP3   OH222776   1.725   5.917  12.950  0.6365  0.1397  0.5134
  454TIP3    H122777   1.807   5.906  12.999  0.3355 -0.1250  0.9674
  454TIP3    H222778   1.657   5.888  13.011  0.3923 -1.9054 -0.6439
  455TIP3   OH222779   3.022   3.260  14.045 -0.4072  0.0855  0.0594
  455TIP3    H122780   3.036   3.246  14.139 -0.3288 -0.5802 -0.0442
  455TIP3    H222781   2.928   3.276  14.038 -0.6975 -1.4116  0.0973
  456TIP3   OH222782   3.464   5.075  16.012 -0.3401 -0.4914 -0.7973
  456TIP3    H122783   3.379   5.094  16.052 -0.1051 -1.4524  0.1961
  456TIP3    H222784   3.456   4.985  15.981  0.6086 -0.9105  0.1214
  457TIP3   OH222785   1.944   1.453   4.986  0.8015  0.3738  0.5257
  457TIP3    H122786   2.017   1.484   5.039  0.3420  0.7473  0.9436
  457TIP3    H222787   1.867   1.498   5.022  0.4050  0.1898 -0.0800
  458TIP3   OH222788   4.946   2.771   3.140  0.2245 -0.4851  1.2764
  458TIP3    H122789   4.862   2.818   3.141  0.9249  0.9426  4.4617
  458TIP3    H222790   4.951   2.729   3.226  1.9042 -2.2932  0.3657
  459TIP3   OH222791   5.373   3.686   5.052 -0.0049 -0.1617 -0.2003
  459TIP3    H122792   5.316   3.708   4.979 -0.2569 -0.7590 -0.1928
  459TIP3    H222793   5.314   3.673   5.126  0.2575  0.5432  0.1448
  460TIP3   OH222794   0.956   0.478  16.315 -0.6559  0.1898  0.4227
  460TIP3    H122795   1.018   0.515  16.378 -0.0092  0.4321 -0.3315
  460TIP3    H222796   0.945   0.546  16.249  0.0732 -0.6816 -0.6584
  461TIP3   OH222797   5.434   4.623   1.475  0.4197 -0.4821  0.0859
  461TIP3    H122798   5.357   4.567   1.486  0.9089 -1.0944  0.4775
  461TIP3    H222799   5.406   4.709   1.505  0.2362 -0.9763  1.3856
  462TIP3   OH222800   0.659   2.014  17.057  0.7617  0.5261  0.2235
  462TIP3    H122801   0.718   2.084  17.086 -0.2369  0.7933  1.7414
  462TIP3    H222802   0.663   1.949  17.128  1.0416 -0.5896 -0.7801
  463TIP3   OH222803   5.483   2.486  16.914 -0.1837  0.0387 -0.0883
  463TIP3    H122804   5.528   2.466  16.832 -1.7359  0.4570 -1.0716
  463TIP3    H222805   5.441   2.570  16.899 -0.5952  0.0711  1.1129
  464TIP3   OH222806   2.540   5.574   5.875 -0.0286 -0.1147 -0.0592
  464TIP3    H122807   2.454   5.613   5.887 -0.2424 -0.1013 -1.5127
  464TIP3    H222808   2.601   5.640   5.910 -0.4952  0.7301 -0.8065
  465TIP3   OH222809   5.745   0.940   4.177  0.0109 -0.1868 -0.4747
  465TIP3    H122810   5.692   0.903   4.106 -1.3076  1.1007 -0.1979
  465TIP3    H222811   5.780   0.864   4.223 -1.8078 -1.0866 -0.5127
  466TIP3   OH222812   4.379   2.827  15.674 -0.0943  1.0219  0.3846
  466TIP3    H122813   4.427   2.875  15.742 -1.1077  0.9679  1.1607
  466TIP3    H222814   4.442   2.816  15.603  0.3319  3.0781  0.3832
  467TIP3   OH222815   2.669   0.271  11.525 -0.3752 -0.3270  0.4286
  467TIP3    H122816   2.712   0.197  11.566  0.4500  0.9908  2.0679
  467TIP3    H222817   2.585   0.279  11.571  0.3573  0.8746  1.6440
  468TIP3   OH222818   5.950   3.005   1.541  0.6920  0.1154 -0.3314
  468TIP3    H122819   5.905   2.989   1.625  0.8233  0.6231 -0.1609
  468TIP3    H222820   5.993   2.923   1.521  0.9430  0.0910  0.2775
  469TIP3   OH222821   5.492   1.128  17.080 -0.4319  0.0206 -0.2388
  469TIP3    H122822   5.435   1.192  17.039 -1.1057  1.5614  2.8043
  469TIP3    H222823   5.535   1.176  17.152  1.4317 -2.1787  0.2508
  470TIP3   OH222824   6.507   6.302  16.951  0.2844  0.4037 -0.2726
  470TIP3    H122825   6.487   6.354  16.873 -0.7532 -0.1193 -0.3642
  470TIP3    H222826   6.544   6.221  16.917 -0.7218 -0.0733 -0.2650
  471TIP3   OH222827   2.829   4.612   3.417 -0.4620  0.6756  0.7546
  471TIP3    H122828   2.860   4.641   3.331  1.2971  0.1029  1.1581
  471TIP3    H222829   2.872   4.672   3.479 -0.3105 -0.0039  1.3225
  472TIP3   OH222830   6.364   3.340  11.285 -0.4701 -0.5763 -0.4144
  472TIP3    H122831   6.349   3.247  11.266 -0.3270 -0.3936 -1.4790
  472TIP3    H222832   6.401   3.375  11.204 -3.3977  1.0864 -1.1822
  473TIP3   OH222833   5.872   1.799  14.901  0.0487 -0.3355  0.2196
  473TIP3    H122834   5.879   1.793  14.806 -0.3211 -1.2573  0.2398
  473TIP3    H222835   5.813   1.872  14.916 -2.9495 -2.4475 -0.4041
  474TIP3   OH222836   2.995   1.991   3.243 -0.2641 -0.8215  0.2734
  474TIP3    H122837   3.049   1.943   3.180 -0.3688 -0.9605  0.2904
  474TIP3    H222838   3.052   2.060   3.275 -0.3732 -0.4103 -0.3832
  475TIP3   OH222839   2.620   3.015   3.152  0.0089 -0.6689 -0.5884
  475TIP3    H122840   2.576   3.100   3.143  0.4734 -0.0597  2.0645
  475TIP3    H222841   2.573   2.971   3.223  0.0385 -2.5180 -1.6471
  476TIP3   OH222842   4.330   3.892   2.542  0.0716  0.1275  0.1133
  476TIP3    H122843   4.245   3.855   2.517  1.7698 -3.0917 -1.5443
  476TIP3    H222844   4.369   3.919   2.459  0.5753  1.9607  0.9038
  477TIP3   OH222845   5.068   5.277   5.587  0.1948 -0.1410 -0.9778
  477TIP3    H122846   5.155   5.271   5.547 -0.3554  0.8341 -2.3699
  477TIP3    H222847   5.008   5.241   5.522 -0.7431  1.6862 -1.1935
  478TIP3   OH222848   1.824   0.237   1.097 -0.0685  0.1889  0.2757
  478TIP3    H122849   1.739   0.262   1.135 -0.3876  1.0855 -0.9737
  478TIP3    H222850   1.875   0.318   1.099  0.6783 -0.2774  0.7449
  479TIP3   OH222851   5.673   5.344  11.522 -0.1063  0.0516 -0.4192
  479TIP3    H122852   5.727   5.297  11.458  0.2220  2.0965 -1.7460
  479TIP3    H222853   5.608   5.390  11.469 -2.4309 -1.3682  1.0708
  480TIP3   OH222854   3.885   3.753  15.883  0.5324  0.3436  0.0997
  480TIP3    H122855   3.819   3.767  15.816  0.4778  0.5557  0.1968
  480TIP3    H222856   3.968   3.771  15.839  0.4747  0.8014  0.1743
  481TIP3   OH222857   0.090   0.998   9.940  0.3186  0.4696  0.7152
  481TIP3    H122858   0.016   0.937   9.946 -0.7750  1.5491 -0.6900
  481TIP3    H222859   0.112   1.019  10.031 -2.8997  2.1132  1.2580
  482TIP3   OH222860   3.774   6.613  15.066  0.2753  0.3459  0.1511
  482TIP3    H122861   3.808   6.556  14.997  0.3013 -0.3580  0.7291
  482TIP3    H222862   3.678   6.608  15.057  0.2263 -0.9807  1.1122
  483TIP3   OH222863   1.715   6.620  12.060 -0.0992  0.0039 -0.0105
  483TIP3    H122864   1.718   6.525  12.062  0.6849 -0.0080 -0.9427
  483TIP3    H222865   1.639   6.643  12.113  0.8275 -1.0375  1.8476
  484TIP3   OH222866   1.649   6.511  12.460 -0.1883  0.1403  0.1142
  484TIP3    H122867   1.587   6.461  12.406  0.0202 -0.0400  0.0422
  484TIP3    H222868   1.710   6.446  12.494  0.1049  0.3503 -0.0081
  485TIP3   OH222869   0.643   1.130  11.769  0.2879  0.5036  0.3359
  485TIP3    H122870   0.639   1.134  11.864 -0.4625  1.1864  0.2897
  485TIP3    H222871   0.694   1.207  11.743 -0.4445  0.9315  0.1432
  486TIP3   OH222872   4.996   3.484  17.000  0.0036 -0.1238  0.0103
  486TIP3    H122873   5.010   3.526  16.915 -0.3234  0.2742  0.1522
  486TIP3    H222874   5.035   3.397  16.990 -0.2908 -0.1864 -0.6452
  487TIP3   OH222875   6.785   5.820  13.655 -0.6062  0.5844 -0.0800
  487TIP3    H122876   6.766   5.854  13.742  1.3434  0.8749  0.2665
  487TIP3    H222877   6.744   5.733  13.653 -0.5540  0.5241  1.1626
  488TIP3   OH222878   4.947   2.516   0.363 -0.4077 -0.2144 -0.0097
  488TIP3    H122879   5.000   2.456   0.414  1.0116  0.6629 -0.3846
  488TIP3    H222880   4.965   2.493   0.272 -0.5972  0.1470 -0.1426
  489TIP3   OH222881   0.097   3.269  11.481  0.4104 -0.1798 -0.4060
  489TIP3    H122882   0.175   3.320  11.499 -0.9331  1.8994 -0.1564
  489TIP3    H222883   0.071   3.292  11.392 -0.9449  0.6467  0.1685
  490TIP3   OH222884   3.330   4.396  11.584  0.1719  0.0300 -0.9586
  490TIP3    H122885   3.243   4.384  11.547 -0.4789 -0.4185  0.6275
  490TIP3    H222886   3.385   4.332  11.539 -0.2218  0.5253 -2.1933
  491TIP3   OH222887   1.393   2.060  15.279  0.8132  0.6703 -0.0431
  491TIP3    H122888   1.399   1.966  15.298  0.4700  0.7525  0.5043
  491TIP3    H222889   1.465   2.077  15.219  0.1475 -0.1774 -1.1305
  492TIP3   OH222890   5.813   4.648  10.008  0.0702  0.3346 -0.1296
  492TIP3    H122891   5.751   4.719   9.988 -1.3120 -0.5030  0.9719
  492TIP3    H222892   5.757   4.575  10.035  1.3242 -1.7452 -2.7145
  493TIP3   OH222893   1.785   6.185  12.917  0.2334  0.3624  0.1254
  493TIP3    H122894   1.787   6.090  12.903 -0.5649  0.6429 -2.4004
  493TIP3    H222895   1.694   6.210  12.900  0.9095  1.8373 -1.7709
  494TIP3   OH222896   2.354   1.658  17.165  0.0288  0.2158 -0.0596
  494TIP3    H122897   2.305   1.610  17.231  1.3324 -1.5788 -0.3134
  494TIP3    H222898   2.287   1.691  17.104 -0.9681 -0.5613  0.5916
  495TIP3   OH222899   1.985   4.202  13.063  0.0057  0.1203 -0.1669
  495TIP3    H122900   2.029   4.132  13.014  0.5511 -0.5225  1.1774
  495TIP3    H222901   1.978   4.168  13.152 -1.0391  1.2119  0.1998
  496TIP3   OH222902   1.815   0.117   0.742 -0.4853 -0.7299 -0.7584
  496TIP3    H122903   1.763   0.040   0.719 -1.7326 -0.4025  0.7482
  496TIP3    H222904   1.878   0.086   0.807 -1.2896 -0.4249  0.1920
  497TIP3   OH222905   5.787   0.605   3.860 -0.4251 -0.4898 -0.2692
  497TIP3    H122906   5.785   0.696   3.830  0.0932 -0.1259  0.7531
  497TIP3    H222907   5.826   0.557   3.787  0.1984  0.2667 -0.4561
  498TIP3   OH222908   6.442   1.224   5.628  0.1852 -0.0714 -0.4521
  498TIP3    H122909   6.378   1.211   5.559 -0.3440  0.3273 -0.0375
  498TIP3    H222910   6.416   1.163   5.697 -0.1893  0.6214  0.0225
  499TIP3   OH222911   4.964   2.928   4.194  0.2697 -0.0485  0.4363
  499TIP3    H122912   5.027   2.876   4.144  0.8804 -0.4071  1.5461
  499TIP3    H222913   5.004   2.937   4.281 -0.3273  1.3670  0.5819
  500TIP3   OH222914   4.898   3.284  12.072  0.3536 -0.5227 -0.4553
  500TIP3    H122915   4.910   3.264  11.979 -0.5749 -1.5989 -0.3698
  500TIP3    H222916   4.969   3.237  12.116  0.0680 -1.0474 -0.5369
  501TIP3   OH222917   6.427   6.171  14.872  0.0298 -0.6071  0.3131
  501TIP3    H122918   6.335   6.186  14.896 -0.2995  0.2465 -1.3415
  501TIP3    H222919   6.469   6.256  14.881  1.0959 -1.3120  2.6376
  502TIP3   OH222920   2.003   2.380  10.950 -0.2129 -0.0555  0.2573
  502TIP3    H122921   1.920   2.343  10.920 -1.8579  2.4755  1.3990
  502TIP3    H222922   1.979   2.456  11.002  2.8488  0.7636  0.7045
  503TIP3   OH222923   0.996   6.439   5.282  0.1211  0.2444 -0.0863
  503TIP3    H122924   0.962   6.503   5.345  1.1136  0.7395 -0.0407
  503TIP3    H222925   0.943   6.361   5.297  0.1027  0.4650  1.1176
  504TIP3   OH222926   4.955   0.855   5.068 -0.0802 -0.4405  0.3232
  504TIP3    H122927   4.946   0.797   4.993  1.0025 -0.1833 -0.0104
  504TIP3    H222928   5.026   0.817   5.120  1.2980  1.0546 -0.3719
  505TIP3   OH222929   1.260   4.479   0.739 -0.4724  0.0512  0.4564
  505TIP3    H122930   1.211   4.408   0.697  1.5086  0.0442 -2.1096
  505TIP3    H222931   1.322   4.434   0.796 -1.2403 -0.0878  1.2015
  506TIP3   OH222932   4.376   4.450   3.007 -0.4783 -0.1450 -0.3954
  506TIP3    H122933   4.282   4.454   3.024 -0.5383 -0.7136 -0.5755
  506TIP3    H222934   4.384   4.397   2.928  0.0451 -0.7912  0.0740
  507TIP3   OH222935   3.662   2.558  12.327  0.1014 -0.1319  0.2744
  507TIP3    H122936   3.638   2.603  12.408 -0.7345  0.9245 -0.5349
  507TIP3    H222937   3.681   2.468  12.354 -1.7481 -0.2296  1.4225
  508TIP3   OH222938   6.752   1.053  15.605  0.0534 -0.5003  0.4095
  508TIP3    H122939   6.847   1.053  15.618  0.1217  2.0841  0.4167
  508TIP3    H222940   6.725   1.144  15.622 -2.4669 -1.2098  0.6704
  509TIP3   OH222941   2.496   2.549  11.222 -0.0420 -0.2143  0.4836
  509TIP3    H122942   2.544   2.626  11.251  0.7739 -0.2685 -0.6288
  509TIP3    H222943   2.408   2.580  11.204  0.9458  1.1865 -2.6550
  510TIP3   OH222944   3.563   2.680  13.891 -0.1407 -0.0886  0.5042
  510TIP3    H122945   3.470   2.687  13.870 -0.0228  0.0925  0.0233
  510TIP3    H222946   3.568   2.694  13.986 -0.3465  2.2965  0.2097
  511TIP3   OH222947   1.527   1.442   4.910 -0.0179 -0.0180 -0.2554
  511TIP3    H122948   1.444   1.409   4.876 -1.3253  1.4920  1.2489
  511TIP3    H222949   1.574   1.364   4.940 -1.4703 -0.8167  0.0459
  512TIP3   OH222950   4.463   5.897   3.978  0.1795 -0.5631  0.1276
  512TIP3    H122951   4.502   5.831   3.922 -0.0665 -0.5690 -0.0392
  512TIP3    H222952   4.537   5.943   4.017  0.3574 -0.2709 -0.5406
  513TIP3   OH222953   0.682   0.025   3.993 -0.5287 -0.1344 -0.1661
  513TIP3    H122954   0.588   0.022   4.010 -0.6948  0.6822 -0.8717
  513TIP3    H222955   0.693   0.098   3.932  0.6632  0.3538  0.5893
  514TIP3   OH222956   1.613   5.712  14.482 -0.2152  0.3152  0.1053
  514TIP3    H122957   1.550   5.642  14.465  0.3710 -0.2279  0.1090
  514TIP3    H222958   1.637   5.746  14.396 -0.1189  0.1615  0.0709
  515TIP3   OH222959   1.748   2.050   4.050 -0.1042 -0.4413 -0.2502
  515TIP3    H122960   1.660   2.088   4.049  0.0100 -0.1744 -0.0288
  515TIP3    H222961   1.740   1.973   3.993  0.3624  1.4480 -3.0873
  516TIP3   OH222962   5.731   1.881  13.761  0.9823 -0.6370 -0.2807
  516TIP3    H122963   5.694   1.852  13.844  0.0688 -0.3392 -0.5685
  516TIP3    H222964   5.805   1.822  13.746  0.3341 -1.5758  0.0777
  517TIP3   OH222965   1.681   2.929   5.200 -0.3309  0.0954  0.5283
  517TIP3    H122966   1.761   2.915   5.250  0.2959 -1.5071 -0.8014
  517TIP3    H222967   1.703   2.998   5.138  0.2244 -0.6572 -0.1455
  518TIP3   OH222968   3.148   2.411  17.186  0.0828 -0.1219 -0.3218
  518TIP3    H122969   3.061   2.429  17.220 -0.4133  0.8281 -2.0291
  518TIP3    H222970   3.138   2.331  17.134  0.1605  0.1504 -0.7596
  519TIP3   OH222971   2.938   6.554  16.112  0.4310  0.3938 -0.0373
  519TIP3    H122972   3.000   6.493  16.151  0.6072  0.1435 -0.6971
  519TIP3    H222973   2.854   6.530  16.150  0.0473 -1.9276 -2.0660
  520TIP3   OH222974   4.916   3.445   2.784  0.2472  0.4553 -0.4509
  520TIP3    H122975   4.923   3.375   2.719  2.0358  0.8068 -0.6879
  520TIP3    H222976   4.968   3.413   2.858 -2.6565 -0.4470  1.3689
  521TIP3   OH222977   2.560   0.378   4.795  0.0100 -0.8800  0.1904
  521TIP3    H122978   2.591   0.442   4.859 -0.2133 -0.2892 -0.2754
  521TIP3    H222979   2.517   0.431   4.728  1.5570 -1.3278 -1.2292
  522TIP3   OH222980   3.996   5.994  16.231 -0.1856  1.1044  0.1887
  522TIP3    H122981   3.913   6.009  16.186 -0.8494 -2.6704 -0.1240
  522TIP3    H222982   3.972   5.983  16.323 -0.1903 -0.6681  0.0021
  523TIP3   OH222983   5.899   4.882  14.380 -0.1569  0.0604 -0.7502
  523TIP3    H122984   5.809   4.901  14.353 -0.7678 -1.1160  0.3464
  523TIP3    H222985   5.892   4.864  14.474  1.2192 -0.1197 -0.6642
  524TIP3   OH222986   3.239   1.258   5.299 -0.1634  0.0763 -0.1329
  524TIP3    H122987   3.224   1.348   5.271 -0.3363 -0.4228 -1.7824
  524TIP3    H222988   3.299   1.222   5.232 -0.3001 -1.0963  0.3517
  525TIP3   OH222989   0.529   2.999   3.301  0.9651 -0.3172 -0.2682
  525TIP3    H122990   0.535   2.912   3.342  1.6660 -0.6998 -1.1672
  525TIP3    H222991   0.618   3.018   3.271  0.5343  0.1154 -1.2965
  526TIP3   OH222992   2.186   0.112   2.073 -0.2010  0.3098  0.0719
  526TIP3    H122993   2.274   0.150   2.078  0.3095 -0.7231 -0.6812
  526TIP3    H222994   2.145   0.158   1.999 -0.6271  1.4146  0.9722
  527TIP3   OH222995   0.257   5.873   2.133 -0.0313 -0.1426  0.2531
  527TIP3    H122996   0.162   5.872   2.130 -0.0301 -0.8475  0.4049
  527TIP3    H222997   0.283   5.875   2.041 -0.1930  1.6783  0.2169
  528TIP3   OH222998   4.047   3.086   3.213 -0.5033 -0.2779  0.3871
  528TIP3    H122999   4.046   3.030   3.291 -0.4353  1.0107  1.3510
  528TIP3    H223000   4.011   3.031   3.143 -1.6811 -1.0909  1.5847
  529TIP3   OH223001   2.114   2.045  11.207  0.2134 -0.2673  0.3854
  529TIP3    H123002   2.175   2.118  11.218  0.8345 -0.7381  0.1597
  529TIP3    H223003   2.027   2.082  11.223  0.4937  0.5961 -0.1018
  530TIP3   OH223004   4.746   5.613   5.575 -0.2220 -0.0460 -0.1255
  530TIP3    H123005   4.786   5.672   5.510 -0.1163  0.4036  0.3408
  530TIP3    H223006   4.821   5.573   5.619 -0.2852  0.0990  0.1180
  531TIP3   OH223007   5.062   2.851   6.400 -0.0587 -0.4276 -0.3475
  531TIP3    H123008   5.038   2.809   6.317 -0.6234 -1.3929  0.2887
  531TIP3    H223009   5.035   2.789   6.467 -0.0433  0.5481  0.5879
  532TIP3   OH223010   5.673   0.346  12.743  0.5190  0.5973  0.1197
  532TIP3    H123011   5.755   0.348  12.693  1.3425  1.1148  1.4391
  532TIP3    H223012   5.696   0.382  12.829 -0.7744 -0.5365  0.9854
  533TIP3   OH223013   0.427   5.636  13.601  0.0287 -0.4153  0.3036
  533TIP3    H123014   0.414   5.731  13.599  0.2874 -0.3893 -0.8349
  533TIP3    H223015   0.373   5.606  13.675 -2.8178  0.2082 -1.3674
  534TIP3   OH223016   3.662   3.688   0.934 -0.5310 -0.7410 -0.0876
  534TIP3    H123017   3.578   3.647   0.916  0.2686 -2.9052  0.7767
  534TIP3    H223018   3.700   3.636   1.005  0.6917  1.3944  0.9249
  535TIP3   OH223019   3.714   6.105   5.205  0.3400 -0.2623  0.2811
  535TIP3    H123020   3.752   6.191   5.221 -0.6434  0.5807 -1.5572
  535TIP3    H223021   3.783   6.043   5.228  2.0376  1.1130 -0.8106
  536TIP3   OH223022   1.340   5.457  13.409 -0.3058 -0.3169 -0.1398
  536TIP3    H123023   1.250   5.424  13.412 -0.2429 -0.5777 -0.9063
  536TIP3    H223024   1.375   5.438  13.496 -0.9017 -0.4635  0.0763
  537TIP3   OH223025   5.845   4.570  13.887  0.2975 -0.0639 -0.0396
  537TIP3    H123026   5.789   4.517  13.831  1.5530 -2.4544  0.8504
  537TIP3    H223027   5.930   4.527  13.884  0.9042  0.8407  2.2169
  538TIP3   OH223028   6.724   6.323  13.376  0.5642 -0.0934  0.7518
  538TIP3    H123029   6.746   6.236  13.407 -1.3885 -0.0423  2.5278
  538TIP3    H223030   6.755   6.382  13.445 -0.4550  0.3635  0.8441
  539TIP3   OH223031   6.069   2.668   0.238  0.1136 -0.3540 -0.9330
  539TIP3    H123032   6.099   2.588   0.281  0.9671  0.2829 -0.3292
  539TIP3    H223033   6.134   2.734   0.261 -0.7211  0.5867 -1.2091
  540TIP3   OH223034   5.453   0.506  14.419 -0.7996 -0.2718  0.3426
  540TIP3    H123035   5.393   0.435  14.443  0.0385 -0.5738  1.6581
  540TIP3    H223036   5.414   0.546  14.342 -3.4935  0.4931  1.9606
  541TIP3   OH223037   4.304   6.724   5.337  0.5030 -0.1392 -0.1867
  541TIP3    H123038   4.211   6.744   5.351  0.5104 -1.6832  2.6638
  541TIP3    H223039   4.306   6.629   5.323  1.7390 -0.2586  0.7033
  542TIP3   OH223040   0.548   0.473  13.149  0.0850 -0.1067  0.4426
  542TIP3    H123041   0.578   0.402  13.205  1.5689  0.6762  0.6855
  542TIP3    H223042   0.512   0.430  13.072 -0.3457 -1.1439  1.1956
  543TIP3   OH223043   6.229   6.550  14.540  0.5227  0.3378  0.1016
  543TIP3    H123044   6.181   6.467  14.543  1.6021 -0.2788  0.9171
  543TIP3    H223045   6.198   6.592  14.460  1.1815 -1.6168 -1.2723
  544TIP3   OH223046   3.187   1.917  15.410  0.3093 -0.1978 -0.1198
  544TIP3    H123047   3.142   1.873  15.482 -0.3155  0.7893  0.1187
  544TIP3    H223048   3.238   1.986  15.452  2.6417 -1.6752 -0.3044
  545TIP3   OH223049   0.913   0.516  13.438 -1.2198 -0.3392  0.5488
  545TIP3    H123050   0.891   0.437  13.388 -0.0485 -0.8196  0.7479
  545TIP3    H223051   0.972   0.484  13.507 -2.3329  0.4056  1.8744
  546TIP3   OH223052   2.822   5.826   0.738  1.0029  0.3441  0.1576
  546TIP3    H123053   2.793   5.789   0.655 -0.4528  2.1620 -0.2061
  546TIP3    H223054   2.915   5.845   0.724  0.9997 -0.2213 -0.7126
  547TIP3   OH223055   2.130   3.196   1.080 -0.1140  0.3680  0.2312
  547TIP3    H123056   2.136   3.285   1.116  1.4803  0.2117  0.4300
  547TIP3    H223057   2.082   3.147   1.146  1.4727  0.4442  1.5100
  548TIP3   OH223058   0.379   0.927  13.588 -0.3087 -0.1242  0.0230
  548TIP3    H123059   0.314   0.902  13.522 -1.7875  1.9373  0.5804
  548TIP3    H223060   0.341   1.004  13.630  0.9647 -0.8437  2.7179
  549TIP3   OH223061   4.776   3.284  10.600  0.5319 -0.2230 -0.4316
  549TIP3    H123062   4.822   3.367  10.596  0.1726  0.0296  0.3069
  549TIP3    H223063   4.832   3.222  10.554  1.1753  0.2654 -0.3180
  550TIP3   OH223064   2.917   0.316   4.251 -0.8852  0.2641  0.0146
  550TIP3    H123065   2.908   0.257   4.176  2.8654  1.2404 -1.4094
  550TIP3    H223066   2.910   0.404   4.213  0.3206  0.7627  0.8835
  551TIP3   OH223067   4.915   2.244   0.069 -0.6736 -0.6138  0.1299
  551TIP3    H123068   4.940   2.201   0.150 -3.1938 -0.2849  1.1935
  551TIP3    H223069   4.848   2.188   0.031 -0.0231 -0.4155 -1.4071
  552TIP3   OH223070   4.193   4.798  16.189  0.3463  0.0014 -0.1656
  552TIP3    H123071   4.252   4.782  16.116 -0.9060 -1.8181 -0.8480
  552TIP3    H223072   4.227   4.742  16.260  0.2354  0.0090 -0.1054
  553TIP3   OH223073   5.008   3.898   1.432 -0.0881  0.4102  0.1531
  553TIP3    H123074   4.950   3.945   1.373  0.2293  0.6453  0.0299
  553TIP3    H223075   4.986   3.931   1.519  0.9644  1.6843 -0.0389
  554TIP3   OH223076   1.508   6.525  12.955  0.0822 -0.2646  0.1724
  554TIP3    H123077   1.540   6.520  13.045  1.5014  1.7116 -0.1511
  554TIP3    H223078   1.524   6.437  12.920  3.1087 -0.0915  0.7783
  555TIP3   OH223079   4.066   5.255   0.374  0.1725 -0.3236  0.3635
  555TIP3    H123080   4.107   5.219   0.296  1.0313  0.1898  0.5653
  555TIP3    H223081   4.108   5.209   0.447  0.4579  0.2604  0.5752
  556TIP3   OH223082   2.357   5.641  15.390  0.3221 -0.8120  0.7393
  556TIP3    H123083   2.325   5.568  15.338 -2.6211  1.4131 -0.8842
  556TIP3    H223084   2.289   5.656  15.456  0.8816  0.4019  1.0825
  557TIP3   OH223085   6.147   2.208   4.944 -0.3283 -0.0612 -0.2763
  557TIP3    H123086   6.117   2.259   5.019 -1.0052 -0.3430 -0.3490
  557TIP3    H223087   6.180   2.273   4.882 -0.7475  0.2522 -0.1708
  558TIP3   OH223088   6.120   1.974  13.175 -0.0064  0.0715  0.1064
  558TIP3    H123089   6.174   1.935  13.243  1.1211 -0.0140 -0.8100
  558TIP3    H223090   6.152   1.934  13.094 -0.1487  1.4554 -0.6505
  559TIP3   OH223091   0.959   4.575  11.127 -0.0869 -0.0203  0.1676
  559TIP3    H123092   0.866   4.579  11.146 -0.0324 -1.0940  0.6940
  559TIP3    H223093   0.988   4.490  11.161  0.8888 -0.1197 -0.8480
  560TIP3   OH223094   1.128   1.166  12.464 -0.3431  0.1114  0.7814
  560TIP3    H123095   1.070   1.218  12.520 -1.6249  0.1409 -0.5213
  560TIP3    H223096   1.096   1.182  12.375 -0.1915 -2.1790  0.2734
  561TIP3   OH223097   1.047   6.158  16.280  0.1260 -0.0602  0.3007
  561TIP3    H123098   1.105   6.192  16.212  1.6467  1.5407  2.2790
  561TIP3    H223099   1.081   6.071  16.300 -0.0505 -0.3551 -0.6255
  562TIP3   OH223100   4.460   1.266   0.452  0.1058 -0.6069 -0.2847
  562TIP3    H123101   4.532   1.271   0.390  0.7608  0.5620  0.5232
  562TIP3    H223102   4.414   1.350   0.443 -1.5396 -1.5664 -1.2133
  563TIP3   OH223103   2.055   5.911  12.397 -0.2248  0.2821  0.4186
  563TIP3    H123104   2.033   5.939  12.308  0.6732  0.2508  0.1708
  563TIP3    H223105   2.014   5.975  12.454  1.7027  2.1005 -0.1230
  564TIP3   OH223106   1.189   3.839   2.015 -0.6523  0.4238  0.7874
  564TIP3    H123107   1.234   3.897   1.954  0.0198 -0.4867  0.4116
  564TIP3    H223108   1.143   3.776   1.959 -0.6745  0.0660  1.2028
  565TIP3   OH223109   4.165   4.886   2.337 -0.1691  0.0130 -0.5091
  565TIP3    H123110   4.120   4.878   2.253 -0.6052 -0.1124 -0.2669
  565TIP3    H223111   4.256   4.901   2.314 -0.3751  0.5289 -1.0111
  566TIP3   OH223112   2.573   5.312  11.571 -0.3130 -0.4883  0.1254
  566TIP3    H123113   2.493   5.355  11.542 -1.3107 -2.0243  0.4384
  566TIP3    H223114   2.583   5.237  11.512  0.4241 -0.7976  0.6252
  567TIP3   OH223115   5.690   5.913   2.239  0.6091  0.0086 -0.0446
  567TIP3    H123116   5.612   5.859   2.230  1.4988 -1.0476 -1.9247
  567TIP3    H223117   5.762   5.851   2.244  1.7211  0.9445 -2.7794
  568TIP3   OH223118   2.522   1.264  12.889  0.4912 -0.4103 -0.6083
  568TIP3    H123119   2.594   1.234  12.943 -0.9550 -0.2661  1.5302
  568TIP3    H223120   2.472   1.184  12.869 -0.7844 -0.1254  1.1532
  569TIP3   OH223121   6.159   1.016  16.394 -0.0485 -0.1871 -0.2685
  569TIP3    H123122   6.180   1.035  16.303  1.6440 -0.3660  0.0498
  569TIP3    H223123   6.063   1.015  16.397 -0.1354 -0.3483 -2.0673
  570TIP3   OH223124   3.416   1.262   0.121 -0.4144  0.1964  0.3624
  570TIP3    H123125   3.329   1.274   0.158  0.0546  1.8509  0.9868
  570TIP3    H223126   3.435   1.169   0.135 -2.4224 -0.4356 -0.6188
  571TIP3   OH223127   3.922   5.054  16.401  0.2972  0.3964 -0.3216
  571TIP3    H123128   3.869   5.092  16.332 -2.1075 -1.8227  0.1494
  571TIP3    H223129   3.933   5.124  16.465 -1.9016  1.0126 -0.5537
  572TIP3   OH223130   0.318   0.341  17.050  0.1645  0.4503 -0.2020
  572TIP3    H123131   0.315   0.260  17.100  0.1312  0.3427 -0.3763
  572TIP3    H223132   0.234   0.344  17.004  0.7911 -0.2468 -1.4739
  573TIP3   OH223133   5.137   1.078  13.417 -0.0835  0.6139  0.3784
  573TIP3    H123134   5.162   1.075  13.325 -0.1691 -4.8070  0.2458
  573TIP3    H223135   5.195   1.015  13.460 -3.3890 -0.9632  2.9977
  574TIP3   OH223136   0.077   4.710  15.836 -0.0296 -0.1911 -0.0590
  574TIP3    H123137   0.093   4.666  15.920  0.6458 -1.6802 -0.9431
  574TIP3    H223138   0.000   4.765  15.853 -0.9692 -1.7692  1.0726
  575TIP3   OH223139   3.213   4.559   3.455 -0.0065 -0.1937 -0.0765
  575TIP3    H123140   3.127   4.595   3.478 -1.0586 -2.9368  0.7047
  575TIP3    H223141   3.196   4.503   3.379  1.3838  0.2279 -0.7363
  576TIP3   OH223142   1.142   3.692   3.575 -0.1496  0.0489  0.2340
  576TIP3    H123143   1.112   3.762   3.634 -1.9726  0.2639 -0.8593
  576TIP3    H223144   1.232   3.717   3.552 -0.5665  1.7669  0.2986
  577TIP3   OH223145   3.894   0.215   3.010 -0.7412  0.1790  0.2361
  577TIP3    H123146   3.964   0.163   2.970 -0.4106  1.0282 -0.3119
  577TIP3    H223147   3.933   0.254   3.088 -0.6896  0.3969  0.1037
  578TIP3   OH223148   0.693   5.842  17.149 -0.2326  0.2852 -0.0343
  578TIP3    H123149   0.736   5.757  17.159  1.5059  1.1312 -0.0603
  578TIP3    H223150   0.661   5.842  17.059 -0.7475 -0.5447  0.1338
  579TIP3   OH223151   2.301   2.933  11.746 -0.1758 -0.2482  0.4413
  579TIP3    H123152   2.271   2.855  11.792 -0.4281  0.0780  0.8330
  579TIP3    H223153   2.277   3.006  11.803 -0.5988  0.1716 -0.2565
  580TIP3   OH223154   3.078   4.283  12.944  0.6310  0.0785  0.5966
  580TIP3    H123155   3.129   4.362  12.927  2.0412 -0.3452  2.5558
  580TIP3    H223156   2.987   4.314  12.947  0.9841  1.2994 -0.4002
  581TIP3   OH223157   3.456   4.839   1.328  0.2713 -0.4735  0.0438
  581TIP3    H123158   3.470   4.843   1.233  2.3175 -3.1592  0.1212
  581TIP3    H223159   3.385   4.776   1.339 -0.6714  0.5992  0.3130
  582TIP3   OH223160   5.554   4.450  10.139 -0.0999 -0.3659  0.0277
  582TIP3    H123161   5.577   4.480  10.227  0.9807  0.8430 -0.6309
  582TIP3    H223162   5.463   4.424  10.146  0.2509 -1.3129  1.7580
  583TIP3   OH223163   1.097   2.242   1.268  0.0963 -0.0209  0.4634
  583TIP3    H123164   1.003   2.253   1.257  0.2271  0.6752 -0.0328
  583TIP3    H223165   1.129   2.226   1.179  0.5986  1.0027  0.4508
  584TIP3   OH223166   1.332   5.577  13.120  0.3078 -0.3901  0.2692
  584TIP3    H123167   1.247   5.549  13.088  0.4647 -1.2040  0.5140
  584TIP3    H223168   1.334   5.546  13.211  2.1418 -3.4912 -0.6615
  585TIP3   OH223169   3.278   3.068  13.594  0.0743  0.3858 -0.5271
  585TIP3    H123170   3.253   3.084  13.685 -0.5877  0.9297 -0.7936
  585TIP3    H223171   3.357   3.121  13.580  0.2418  0.2091 -0.2339
  586TIP3   OH223172   5.987   3.010  14.664 -0.1968  0.1324  0.5216
  586TIP3    H123173   6.044   2.934  14.652  2.0365  0.9409  4.1879
  586TIP3    H223174   5.901   2.981  14.637  1.1293 -2.6440 -1.1537
  587TIP3   OH223175   4.426   3.250   5.438  0.5947 -0.0243  0.1730
  587TIP3    H123176   4.404   3.157   5.444 -1.5441  0.3360 -0.7750
  587TIP3    H223177   4.369   3.292   5.503  1.2592  0.6560  0.3209
  588TIP3   OH223178   1.606   0.037   5.606  0.4027  0.1330  0.1021
  588TIP3    H123179   1.685   0.055   5.557 -0.1337 -2.3069 -1.8857
  588TIP3    H223180   1.625   0.067   5.695  3.0425  0.7969 -0.6029
  589TIP3   OH223181   0.742   3.895  16.025 -0.2672  0.3642  0.3259
  589TIP3    H123182   0.814   3.944  16.065 -0.4792  0.4657  0.5842
  589TIP3    H223183   0.761   3.803  16.044  1.0969  0.1644 -1.6969
  590TIP3   OH223184   1.060   4.942  12.867 -0.6756 -0.0851  0.1785
  590TIP3    H123185   1.145   4.970  12.833 -2.0908  0.2220 -3.6132
  590TIP3    H223186   1.063   4.846  12.861 -0.3677 -0.1152  0.7462
  591TIP3   OH223187   5.833   5.351   3.280  0.0647 -0.8172 -0.1634
  591TIP3    H123188   5.748   5.375   3.317  0.0939 -2.8495  1.3857
  591TIP3    H223189   5.835   5.255   3.284  2.4061 -0.8296 -0.1634
  592TIP3   OH223190   2.845   2.814  16.061 -0.1003 -0.1564 -0.4327
  592TIP3    H123191   2.863   2.723  16.085 -0.1488 -0.0343  0.0660
  592TIP3    H223192   2.771   2.840  16.115  1.5860  1.0206  1.4617
  593TIP3   OH223193   1.680   4.645   5.674  0.4601 -0.0928 -0.2717
  593TIP3    H123194   1.644   4.640   5.763 -0.9336 -0.2945 -0.8096
  593TIP3    H223195   1.748   4.577   5.671  0.2304 -0.3651  0.5235
  594TIP3   OH223196   3.423   4.795  16.628  0.3825 -0.1841 -0.5872
  594TIP3    H123197   3.410   4.816  16.536 -0.8061  1.3412 -0.1210
  594TIP3    H223198   3.515   4.768  16.634  0.9132  1.1595 -1.9700
  595TIP3   OH223199   0.337   3.839  10.769 -0.1616 -0.1412  0.1781
  595TIP3    H123200   0.350   3.923  10.725  0.3231  0.4243  1.3615
  595TIP3    H223201   0.319   3.862  10.860  0.6044 -1.3387  0.6488
  596TIP3   OH223202   6.366   5.200   0.143  0.0039  0.0412 -0.0349
  596TIP3    H123203   6.282   5.194   0.098 -0.7524 -1.6010  1.4522
  596TIP3    H223204   6.418   5.130   0.105 -0.4489 -0.9975  1.1696
  597TIP3   OH223205   2.668   0.076  11.279  0.0699 -0.3886  0.1870
  597TIP3    H123206   2.591   0.034  11.318 -0.8474 -1.0343 -2.1391
  597TIP3    H223207   2.636   0.159  11.246  0.8521  0.1991  0.8767
  598TIP3   OH223208   3.384   6.333  10.102 -0.2152 -0.4658  0.2444
  598TIP3    H123209   3.333   6.264  10.144  0.0352 -1.8165 -1.5439
  598TIP3    H223210   3.363   6.412  10.151  1.0737 -2.0967  3.7210
  599TIP3   OH223211   5.579   5.645  13.092 -0.1571 -0.1907 -0.2066
  599TIP3    H123212   5.539   5.671  13.009  1.3878 -0.2469 -1.0233
  599TIP3    H223213   5.506   5.621  13.148 -1.2924  0.5440 -1.3094
  600TIP3   OH223214   2.461   5.103   0.669  0.3192 -0.0460  0.2127
  600TIP3    H123215   2.430   5.135   0.754 -2.0580 -2.2188  0.2978
  600TIP3    H223216   2.554   5.088   0.682  0.0236 -0.3311  2.4724
  601TIP3   OH223217   3.346   6.783  12.082 -0.2493  0.3285  0.4710
  601TIP3    H123218   3.416   6.838  12.046 -0.5264 -0.4451 -1.3295
  601TIP3    H223219   3.342   6.808  12.175  0.7869  2.0905  0.0931
  602TIP3   OH223220   1.361   1.997   1.404  0.9196 -0.1266  0.2520
  602TIP3    H123221   1.339   2.090   1.394  2.1276  0.2081  0.5698
  602TIP3    H223222   1.345   1.960   1.317 -2.2892 -0.2669  0.7740
  603TIP3   OH223223   0.425   4.575  13.960  0.3434  0.3716  0.2567
  603TIP3    H123224   0.390   4.613  13.879 -0.9146  0.2187  0.6986
  603TIP3    H223225   0.347   4.560  14.015  0.6799 -3.1564 -0.0077
  604TIP3   OH223226   5.993   2.004  15.068  0.5179 -0.4342  0.4257
  604TIP3    H123227   5.976   2.067  14.998  3.1142  0.6646  0.6824
  604TIP3    H223228   6.000   1.920  15.024 -3.0884 -0.7253  0.0813
  605TIP3   OH223229   2.874   5.450  11.280 -0.2377 -0.1810 -0.7998
  605TIP3    H123230   2.944   5.385  11.274  0.4459  0.5111 -0.5001
  605TIP3    H223231   2.831   5.432  11.363  2.4984  2.1732  1.3507
  606TIP3   OH223232   4.209   2.264  15.429  0.7215  0.0923  0.0919
  606TIP3    H123233   4.144   2.291  15.494 -0.2256 -0.8098 -0.4583
  606TIP3    H223234   4.292   2.261  15.478  0.4336  1.6310  0.7016
  607TIP3   OH223235   1.160   6.362  12.909  0.4222  0.4023 -0.4265
  607TIP3    H123236   1.130   6.444  12.948  2.6552  1.1332 -0.1349
  607TIP3    H223237   1.130   6.294  12.970  1.6240  1.3170  1.2421
  608TIP3   OH223238   4.081   6.399   2.196  0.0315 -0.0595 -0.4482
  608TIP3    H123239   3.985   6.394   2.203  0.0161  0.8618  0.3347
  608TIP3    H223240   4.111   6.310   2.217 -0.7014 -0.8983 -2.6712
  609TIP3   OH223241   1.429   2.034  12.455  0.7480  0.0815 -0.2119
  609TIP3    H123242   1.408   2.023  12.548 -0.0212 -0.7160 -0.4651
  609TIP3    H223243   1.450   1.945  12.425  2.0964  0.4877 -0.5564
  610TIP3   OH223244   0.459   0.378   1.875  0.3479 -0.0292 -0.2845
  610TIP3    H123245   0.497   0.331   1.800 -1.3496 -2.3473  0.1739
  610TIP3    H223246   0.457   0.313   1.945 -1.0920  1.0878  0.7725
  611TIP3   OH223247   1.209   2.930  13.066 -0.1993 -0.6088 -0.2214
  611TIP3    H123248   1.252   2.851  13.034 -1.0641 -1.3655  0.4362
  611TIP3    H223249   1.219   2.926  13.161 -1.2250 -0.5279 -0.0961
  612TIP3   OH223250   4.551   3.776  14.991  0.3608  0.4905  0.1737
  612TIP3    H123251   4.603   3.703  14.957 -1.2023  0.2238 -1.7973
  612TIP3    H223252   4.515   3.818  14.914 -0.8827  1.7708  1.4009
  613TIP3   OH223253   3.602   0.282   2.672  0.0451 -0.2350  0.1004
  613TIP3    H123254   3.587   0.290   2.578  0.7873  0.7091  0.0450
  613TIP3    H223255   3.516   0.259   2.708  0.3549 -3.8375 -1.1174
  614TIP3   OH223256   6.296   1.868  11.787 -0.1379 -0.0574 -0.4092
  614TIP3    H123257   6.326   1.876  11.878 -1.2994  2.2558 -0.1478
  614TIP3    H223258   6.364   1.816  11.744  1.4525  0.4499  1.3362
  615TIP3   OH223259   5.927   3.118  15.156 -0.0353  0.1273  0.2919
  615TIP3    H123260   5.956   3.079  15.239  1.3649 -0.6923 -0.5551
  615TIP3    H223261   5.868   3.052  15.119 -0.2347  0.2590  0.3709
  616TIP3   OH223262   5.078   6.594  13.651 -0.3215  0.2103 -0.0878
  616TIP3    H123263   5.057   6.505  13.681  1.6530  0.4096  2.1885
  616TIP3    H223264   5.035   6.601  13.566 -1.0781 -2.7047 -0.0601
  617TIP3   OH223265   0.308   4.524   3.583 -0.6412  0.3877 -0.1576
  617TIP3    H123266   0.233   4.560   3.536 -2.0705 -0.6958  1.1575
  617TIP3    H223267   0.282   4.435   3.605  0.9736  0.0363  0.5101
  618TIP3   OH223268   6.691   2.081   1.731  0.3822  0.6070 -0.2485
  618TIP3    H123269   6.655   2.028   1.801  1.0882 -0.0548 -0.3653
  618TIP3    H223270   6.769   2.032   1.702 -0.4089  0.3525 -2.1246
  619TIP3   OH223271   1.380   6.028  16.394  0.1927 -0.3014 -0.9541
  619TIP3    H123272   1.295   5.999  16.360  0.5690  0.8333 -3.0933
  619TIP3    H223273   1.361   6.111  16.438 -0.0890 -1.0812  0.4337
  620TIP3   OH223274   4.898   5.083  12.659 -0.7020 -0.2507  0.3385
  620TIP3    H123275   4.857   5.152  12.607  0.4913  0.2688  0.0585
  620TIP3    H223276   4.879   5.003  12.611 -1.1376  0.0099  0.0628
  621TIP3   OH223277   2.041   0.739   2.536 -0.0593 -0.4115  0.2576
  621TIP3    H123278   2.068   0.821   2.495 -1.0749  0.8017  1.8927
  621TIP3    H223279   1.957   0.719   2.496  0.1796 -0.6577 -0.1278
  622TIP3   OH223280   2.584   2.671   4.094 -0.0414  0.1250  0.0730
  622TIP3    H123281   2.599   2.592   4.146  1.1304  0.5182  0.3738
  622TIP3    H223282   2.491   2.669   4.072 -0.5891 -0.0656  2.1766
  623TIP3   OH223283   1.069   0.081  10.442 -0.3298  0.0930  0.1847
  623TIP3    H123284   1.063   0.177  10.445 -2.9749  0.0477 -0.7127
  623TIP3    H223285   1.021   0.052  10.520 -2.6652 -0.4528 -1.3584
  624TIP3   OH223286   3.012   4.893  12.266 -0.4329 -0.9369  0.1508
  624TIP3    H123287   2.952   4.963  12.243  0.1190 -0.9286 -1.3711
  624TIP3    H223288   3.087   4.937  12.305 -1.5222 -0.9750  2.4168
  625TIP3   OH223289   6.803   2.940  14.814  0.1037  0.2525 -0.7008
  625TIP3    H123290   6.817   3.033  14.829  0.2917  0.2066 -0.5859
  625TIP3    H223291   6.832   2.898  14.895 -1.3374  0.2043 -0.1870
  626TIP3   OH223292   6.490   6.649   2.759 -0.2790 -0.4270 -0.2103
  626TIP3    H123293   6.454   6.581   2.817 -1.5385  0.8284  0.5211
  626TIP3    H223294   6.583   6.651   2.781 -0.1027 -2.2457 -0.5986
  627TIP3   OH223295   3.622   3.200   4.581  0.2286  0.4558 -0.0208
  627TIP3    H123296   3.612   3.263   4.510  0.9083 -0.0690 -0.5947
  627TIP3    H223297   3.546   3.143   4.575 -0.0948  0.8692  0.1423
  628TIP3   OH223298   2.814   2.315  12.751 -0.0531  0.0154 -0.4677
  628TIP3    H123299   2.872   2.391  12.752 -3.1855  2.6597 -0.5843
  628TIP3    H223300   2.786   2.306  12.660 -0.5368 -0.6009 -0.2710
  629TIP3   OH223301   5.076   4.798   5.149  0.3758 -0.2069  0.8695
  629TIP3    H123302   5.040   4.725   5.100  1.3517  0.1562 -0.4494
  629TIP3    H223303   5.026   4.875   5.120  0.0054 -0.1844  1.5284
  630TIP3   OH223304   4.241   5.670  16.230 -0.4788 -0.0985  0.7042
  630TIP3    H123305   4.335   5.651  16.234 -0.4437 -0.0114  0.3043
  630TIP3    H223306   4.228   5.736  16.299 -0.2137  0.0293  0.6350
  631TIP3   OH223307   4.974   3.973   4.534  0.7502  0.0738  0.4353
  631TIP3    H123308   4.983   3.879   4.554 -1.7569 -0.3544 -0.1384
  631TIP3    H223309   4.950   3.976   4.442  0.1385  1.2353  0.6116
  632TIP3   OH223310   3.106   5.671   3.718 -0.3381 -0.1845  0.5282
  632TIP3    H123311   3.154   5.731   3.661  0.7618 -1.6220 -0.1324
  632TIP3    H223312   3.033   5.640   3.665 -1.1213  0.8249  0.9965
  633TIP3   OH223313   0.655   6.016   4.945  0.0840 -0.1319 -0.5647
  633TIP3    H123314   0.730   6.039   5.000 -0.8310  1.2597  0.1657
  633TIP3    H223315   0.693   5.998   4.859  1.4200 -1.1689  0.1875
  634TIP3   OH223316   4.182   2.344  12.492 -0.8213  0.1460  0.1047
  634TIP3    H123317   4.111   2.281  12.508 -0.5658 -0.3559 -0.6831
  634TIP3    H223318   4.145   2.407  12.430 -1.2015  1.0158  1.1811
  635TIP3   OH223319   5.043   1.313  14.813  0.1839 -0.1352 -0.2582
  635TIP3    H123320   5.036   1.408  14.802  0.0685 -0.0569  0.4642
  635TIP3    H223321   4.953   1.281  14.805  0.1668 -0.1369 -0.0514
  636TIP3   OH223322   3.856   2.937   3.091 -0.5549 -0.2964 -0.6954
  636TIP3    H123323   3.811   2.856   3.068 -0.1937 -0.6369 -0.2373
  636TIP3    H223324   3.792   2.986   3.142 -0.8039 -0.2555 -1.0454
  637TIP3   OH223325   6.753   6.603   3.155  0.4697 -1.1190 -0.1293
  637TIP3    H123326   6.779   6.596   3.064 -1.2752 -0.2641 -0.7376
  637TIP3    H223327   6.745   6.697   3.171  1.1924 -1.2334  1.0576
  638TIP3   OH223328   4.943   0.837  11.503 -0.3859 -0.0041 -0.1253
  638TIP3    H123329   4.975   0.901  11.440  0.8957 -1.7654 -1.3810
  638TIP3    H223330   4.980   0.865  11.587 -0.7612  1.4611 -0.4203
  639TIP3   OH223331   1.374   5.604  14.176 -0.2329 -0.2346 -0.2009
  639TIP3    H123332   1.336   5.603  14.264  1.3371 -1.7640  0.5295
  639TIP3    H223333   1.345   5.687  14.138 -1.2221  0.3178  1.6257
  640TIP3   OH223334   2.354   3.440  10.640 -0.2793  0.3783 -0.3376
  640TIP3    H123335   2.270   3.396  10.628 -0.3773  1.0255 -2.1627
  640TIP3    H223336   2.365   3.494  10.563  2.5080 -0.8032 -0.8886
  641TIP3   OH223337   1.495   5.232   2.149 -0.0910  0.3376  0.0291
  641TIP3    H123338   1.574   5.187   2.180 -0.9592 -1.6691 -0.5435
  641TIP3    H223339   1.480   5.197   2.061 -1.2234  1.2260 -0.1571
  642TIP3   OH223340   6.572   3.650   0.921 -0.1415 -0.2241 -0.4879
  642TIP3    H123341   6.585   3.708   0.846  2.5528 -0.8282 -0.5886
  642TIP3    H223342   6.599   3.564   0.891 -1.3095 -0.9950  0.5207
  643TIP3   OH223343   1.905   2.864  15.277 -0.1505 -0.6141  0.0331
  643TIP3    H123344   1.846   2.877  15.203 -0.9634  0.6865  0.8764
  643TIP3    H223345   1.848   2.834  15.348  0.4685 -0.9367  0.4025
  644TIP3   OH223346   6.242   4.320  15.568  0.0321 -0.3616  0.4994
  644TIP3    H123347   6.266   4.346  15.479  2.5165 -1.2068  0.8454
  644TIP3    H223348   6.254   4.225  15.568 -0.4098 -0.4248  1.6212
  645TIP3   OH223349   2.837   3.399   0.122  0.4843 -0.5004 -0.2575
  645TIP3    H123350   2.744   3.404   0.146  0.5593  0.8528 -0.1624
  645TIP3    H223351   2.877   3.474   0.166  1.6222 -1.0307 -0.3487
  646TIP3   OH223352   2.348   4.936  12.014 -0.0025  0.0766 -0.1348
  646TIP3    H123353   2.433   4.950  11.972  0.0739  0.6355  0.1987
  646TIP3    H223354   2.368   4.930  12.107 -0.2432 -0.5534 -0.1215
  647TIP3   OH223355   2.523   2.094  13.410  0.0462 -0.2877 -0.0680
  647TIP3    H123356   2.581   2.018  13.402  1.2285  0.4773  1.0295
  647TIP3    H223357   2.511   2.124  13.320  1.9594 -0.0125 -0.2579
  648TIP3   OH223358   0.465   2.447   5.721  0.4563  0.2487 -0.0299
  648TIP3    H123359   0.493   2.425   5.810  1.9704  0.4432 -0.4213
  648TIP3    H223360   0.404   2.378   5.697 -0.9053  0.8130  1.5564
  649TIP3   OH223361   3.332   4.804  15.112 -0.1854  0.5828 -0.2763
  649TIP3    H123362   3.311   4.890  15.149  0.8265  0.4262  0.6958
  649TIP3    H223363   3.264   4.789  15.046 -1.8148  1.0480  1.2354
  650TIP3   OH223364   2.579   1.671   3.646 -0.1137 -0.5645  0.2031
  650TIP3    H123365   2.662   1.631   3.670  0.0940  0.7471  1.9098
  650TIP3    H223366   2.602   1.733   3.576 -0.0402 -1.6747 -0.7797
  651TIP3   OH223367   4.210   3.145   0.788  0.1041 -0.3333  0.7871
  651TIP3    H123368   4.295   3.187   0.798 -0.5245  0.9114  1.1543
  651TIP3    H223369   4.163   3.201   0.726 -0.4419 -1.0060  0.5838
  652TIP3   OH223370   1.726   2.887  14.268  0.0837 -0.7752  0.6119
  652TIP3    H123371   1.641   2.908  14.306  0.2398  2.5059 -0.5341
  652TIP3    H223372   1.707   2.825  14.198 -1.4252 -0.0012  0.2907
  653TIP3   OH223373   4.595   2.899   3.455  0.3045 -0.3410  0.2447
  653TIP3    H123374   4.520   2.896   3.396 -0.5731 -0.9483  1.3585
  653TIP3    H223375   4.659   2.839   3.416 -0.6696 -1.5311  0.4283
  654TIP3   OH223376   5.959   2.620   6.326 -0.6203 -0.6130 -0.4356
  654TIP3    H123377   5.942   2.611   6.232  0.0403 -0.2005 -0.5985
  654TIP3    H223378   6.005   2.539   6.350  0.1416 -0.2600 -0.6888
  655TIP3   OH223379   1.697   1.678   1.780  0.1982  0.0535  0.5149
  655TIP3    H123380   1.612   1.701   1.817  0.9601  1.1996  1.6258
  655TIP3    H223381   1.679   1.664   1.687 -1.0685  1.0690  0.5734
  656TIP3   OH223382   3.739   4.207   1.899  0.1816 -0.1764  0.8323
  656TIP3    H123383   3.720   4.133   1.956 -0.6823  0.7254  1.7539
  656TIP3    H223384   3.795   4.264   1.950  2.7529 -1.1719 -0.6619
  657TIP3   OH223385   6.095   0.563  16.726  0.3822  0.6144 -0.1184
  657TIP3    H123386   6.044   0.496  16.771 -0.1454  0.8452 -0.3678
  657TIP3    H223387   6.046   0.644  16.739  0.1674  0.6719 -1.1950
  658TIP3   OH223388   1.638   2.268   5.203  0.2456 -0.5104 -0.0797
  658TIP3    H123389   1.607   2.359   5.202  0.1347 -0.5486 -1.1426
  658TIP3    H223390   1.563   2.216   5.174  0.8973 -0.7227 -1.4657
  659TIP3   OH223391   4.052   0.731  15.644  0.8008  0.1011  0.4215
  659TIP3    H123392   3.994   0.789  15.595  1.6181 -0.4741 -1.3170
  659TIP3    H223393   3.994   0.676  15.695 -0.2027 -0.4021 -1.1970
  660TIP3   OH223394   0.748   6.608  15.429  0.0590 -0.3287  0.1980
  660TIP3    H123395   0.751   6.658  15.511 -1.1635  0.3792 -0.1752
  660TIP3    H223396   0.822   6.641  15.378  0.3442 -0.2006  0.6911
  661TIP3   OH223397   3.865   5.559  12.499  0.9989 -0.1450  0.2441
  661TIP3    H123398   3.887   5.599  12.583  0.2231  0.3507  0.2205
  661TIP3    H223399   3.929   5.595  12.438  0.4429  0.9123  0.2644
  662TIP3   OH223400   6.257   2.377   4.771 -0.4822 -0.9999 -0.2323
  662TIP3    H123401   6.183   2.404   4.716 -0.0931  1.4004  0.2995
  662TIP3    H223402   6.334   2.403   4.722 -0.1001 -0.1830  0.7627
  663TIP3   OH223403   0.265   1.045  16.788 -0.0537 -0.4949 -0.0469
  663TIP3    H123404   0.195   1.101  16.755 -0.4237 -0.5935  0.5448
  663TIP3    H223405   0.345   1.090  16.764 -0.2895 -0.7359 -1.3753
  664TIP3   OH223406   1.113   1.547   1.877 -0.2245 -0.0827  0.1034
  664TIP3    H123407   1.177   1.572   1.810  0.3534  0.1473  0.7364
  664TIP3    H223408   1.055   1.484   1.832  0.4622 -0.3203 -0.4655
  665TIP3   OH223409   5.325   4.733   0.804 -0.0659  0.1816 -0.3396
  665TIP3    H123410   5.315   4.638   0.807 -1.1207  0.2499 -1.1311
  665TIP3    H223411   5.415   4.749   0.832 -0.3347 -0.9448  1.3028
  666TIP3   OH223412   3.464   1.068   3.283  0.0682 -0.4482 -0.0073
  666TIP3    H123413   3.500   1.043   3.198 -1.1058  0.8412 -0.9364
  666TIP3    H223414   3.384   1.015   3.292  0.0874 -0.4430  0.1898
  667TIP3   OH223415   3.615   2.826   3.726  0.1861  0.3124  0.3400
  667TIP3    H123416   3.695   2.838   3.778  0.1458  1.3852  0.1758
  667TIP3    H223417   3.545   2.823   3.791  0.0193  2.6829  0.3622
  668TIP3   OH223418   5.703   1.331   1.651  0.0737 -0.9898 -0.3973
  668TIP3    H123419   5.770   1.380   1.699 -1.3709 -0.9727  1.7811
  668TIP3    H223420   5.722   1.239   1.671  0.9686 -1.1809 -1.9705
  669TIP3   OH223421   5.137   1.600   4.877  0.1536 -0.6012 -0.7840
  669TIP3    H123422   5.071   1.650   4.926  2.3535  1.5441  0.1994
  669TIP3    H223423   5.217   1.610   4.928  1.4850 -2.3007 -2.4285
  670TIP3   OH223424   1.331   4.740   0.765  0.3183 -0.2224 -0.4560
  670TIP3    H123425   1.286   4.661   0.735  1.4298 -1.1689  0.2466
  670TIP3    H223426   1.302   4.752   0.855 -0.1239  0.3971 -0.6742
  671TIP3   OH223427   3.265   0.806  15.962  0.6751 -0.7944  0.6558
  671TIP3    H123428   3.342   0.862  15.948 -0.2968  1.2857  2.9566
  671TIP3    H223429   3.229   0.794  15.874  0.2577  3.3198  0.0517
  672TIP3   OH223430   2.880   6.549   4.538  0.1197  0.1767 -0.3817
  672TIP3    H123431   2.932   6.581   4.464 -1.4431  1.5416 -0.9516
  672TIP3    H223432   2.935   6.482   4.579  1.0813 -0.5446 -2.7017
  673TIP3   OH223433   2.118   0.233  16.216  0.3107 -0.0046 -0.4602
  673TIP3    H123434   2.205   0.236  16.177 -0.1085 -0.7450 -1.5070
  673TIP3    H223435   2.133   0.241  16.310  1.5294 -0.4441 -0.6017
  674TIP3   OH223436   3.355   4.505   3.832  0.3236  0.1829 -0.1126
  674TIP3    H123437   3.315   4.459   3.758 -0.5754  1.4036 -0.4223
  674TIP3    H223438   3.438   4.460   3.847 -2.2280 -4.3887  2.3788
  675TIP3   OH223439   5.581   3.248   1.670 -0.2634 -0.5047 -0.0390
  675TIP3    H123440   5.628   3.304   1.732  1.6719 -2.0581 -0.0085
  675TIP3    H223441   5.511   3.209   1.722  0.9452 -1.2989  1.0496
  676TIP3   OH223442   0.596   6.289  15.895  1.1033 -0.0831  0.4417
  676TIP3    H123443   0.501   6.300  15.892  1.0017 -0.6230 -3.2470
  676TIP3    H223444   0.608   6.195  15.909  1.2879  0.2788  3.4531
  677TIP3   OH223445   3.501   0.941  11.538  0.0981 -0.1558 -0.0729
  677TIP3    H123446   3.455   1.008  11.588 -0.8576 -1.9225  1.5259
  677TIP3    H223447   3.587   0.934  11.580  0.1105 -0.1044 -0.0896
  678TIP3   OH223448   2.047   1.019   0.301 -1.0440 -0.6549  0.2326
  678TIP3    H123449   1.960   0.980   0.311 -1.5090  0.6423  1.6048
  678TIP3    H223450   2.079   1.029   0.391  0.3159 -0.6677 -0.2386
  679TIP3   OH223451   3.571   1.356   4.726 -0.4164  0.4015  0.8275
  679TIP3    H123452   3.659   1.344   4.691 -0.1676  4.8464 -0.6678
  679TIP3    H223453   3.513   1.328   4.656 -0.0854  0.9236  0.3383
  680TIP3   OH223454   3.115   0.121   1.283 -0.1047 -0.7149  0.2621
  680TIP3    H123455   3.151   0.209   1.273 -1.0567 -0.5295 -2.2818
  680TIP3    H223456   3.176   0.076   1.342  1.6150  0.9759 -0.1568
  681TIP3   OH223457   4.744   3.405  14.180 -0.0785  0.0425  0.4138
  681TIP3    H123458   4.807   3.464  14.223 -1.2301  1.8012 -0.2236
  681TIP3    H223459   4.744   3.433  14.089  1.2007 -2.6611 -0.5248
  682TIP3   OH223460   4.920   5.360  14.728  0.2456  1.3405  0.3899
  682TIP3    H123461   4.952   5.367  14.638  1.4723 -1.8766  0.4349
  682TIP3    H223462   4.985   5.406  14.781  0.5729  1.5685 -0.2016
  683TIP3   OH223463   6.628   4.498  11.480 -0.3927 -0.5697 -0.1528
  683TIP3    H123464   6.624   4.450  11.562  0.6394 -1.8709 -0.8102
  683TIP3    H223465   6.565   4.454  11.423 -0.3499 -0.3464 -0.3736
  684TIP3   OH223466   4.211   3.139  12.770  0.2082  0.0865  0.5264
  684TIP3    H123467   4.294   3.157  12.725 -0.4786 -0.1937 -0.9383
  684TIP3    H223468   4.177   3.226  12.792 -0.4593  0.3949 -1.5051
  685TIP3   OH223469   4.721   4.247  13.062 -0.0343  0.0607 -0.3898
  685TIP3    H123470   4.648   4.288  13.108  1.0105  1.0566  0.4273
  685TIP3    H223471   4.694   4.248  12.970 -0.2836  2.1711 -0.3473
  686TIP3   OH223472   5.335   5.075   1.009  0.1206  0.2742 -0.5526
  686TIP3    H123473   5.310   5.164   1.035  1.6180  0.3129  0.9638
  686TIP3    H223474   5.411   5.088   0.952 -0.6048  0.0006 -1.6109
  687TIP3   OH223475   0.162   1.115   2.854  0.2047 -0.0399 -0.0463
  687TIP3    H123476   0.073   1.110   2.889  0.2632 -3.1391 -0.0710
  687TIP3    H223477   0.164   1.051   2.784  2.7539 -0.9138  0.7297
  688TIP3   OH223478   2.824   6.264   2.391 -0.2502  0.4413 -0.0090
  688TIP3    H123479   2.830   6.169   2.394  1.7738  0.5301  1.5211
  688TIP3    H223480   2.765   6.283   2.319 -0.3185 -1.9526 -0.6555
  689TIP3   OH223481   1.067   1.096  14.630  0.1347 -0.1746 -0.1697
  689TIP3    H123482   1.148   1.129  14.667  0.2246 -0.0343 -0.4837
  689TIP3    H223483   1.078   1.001  14.629  0.3491 -0.1477 -0.3342
  690TIP3   OH223484   3.632   3.292  12.376  0.3080 -0.3423  0.0401
  690TIP3    H123485   3.652   3.216  12.430  1.1369  0.4373  0.8643
  690TIP3    H223486   3.662   3.267  12.288  0.7612 -0.8976  0.3458
  691TIP3   OH223487   2.492   6.118   2.534  0.1777  0.2500 -0.2322
  691TIP3    H123488   2.438   6.134   2.612 -1.3264  0.7411 -1.3127
  691TIP3    H223489   2.478   6.026   2.513  2.4197 -0.5290  1.3440
  692TIP3   OH223490   0.711   1.962   3.968  0.3779  0.0921 -0.0990
  692TIP3    H123491   0.670   1.918   4.042  0.5385  2.7202  1.6737
  692TIP3    H223492   0.666   2.047   3.963  2.5334  1.2458 -0.9772
  693TIP3   OH223493   6.319   4.336   3.510  0.4175  0.0021 -0.1705
  693TIP3    H123494   6.251   4.269   3.515  0.9409 -0.4620  1.1857
  693TIP3    H223495   6.292   4.401   3.575 -0.4507  1.5077 -1.9280
  694TIP3   OH223496   6.355   2.074  15.153  0.5444 -0.2419 -0.0630
  694TIP3    H123497   6.371   2.058  15.060 -1.1891  0.5673 -0.5308
  694TIP3    H223498   6.373   2.168  15.165 -1.0341  0.0725 -0.0102
  695TIP3   OH223499   5.093   3.339   2.164 -0.2471 -0.1057  0.2652
  695TIP3    H123500   5.159   3.355   2.097 -3.3562 -2.4677 -3.8582
  695TIP3    H223501   5.060   3.426   2.187  0.9327  0.8130 -1.3450
  696TIP3   OH223502   2.642   5.344   0.957 -0.2232  0.2078  0.0479
  696TIP3    H123503   2.650   5.360   1.051 -3.0598  1.1539  0.2429
  696TIP3    H223504   2.566   5.287   0.949  0.0269  0.0652 -1.6684
  697TIP3   OH223505   0.189   0.683  13.089 -0.1207  0.4839 -0.2654
  697TIP3    H123506   0.102   0.712  13.115  0.4789  2.3101 -0.1574
  697TIP3    H223507   0.174   0.625  13.015 -1.4477  0.5206 -0.0465
  698TIP3   OH223508   4.300   0.100   3.571 -0.0079  0.3491  0.4607
  698TIP3    H123509   4.376   0.060   3.614 -0.0975 -1.0917 -0.6347
  698TIP3    H223510   4.250   0.139   3.642  1.0414  0.0778  1.3709
  699TIP3   OH223511   3.727   0.891  14.578 -0.2619 -0.2330 -0.0035
  699TIP3    H123512   3.799   0.868  14.520  0.6938  0.2794  0.9585
  699TIP3    H223513   3.720   0.819  14.640 -2.1252 -1.4124 -1.4556
  700TIP3   OH223514   5.649   1.948  17.177 -0.3175 -0.1682 -0.3036
  700TIP3    H123515   5.574   1.912  17.224  1.2204 -1.7103  1.1522
  700TIP3    H223516   5.671   2.027  17.226 -0.4518 -0.1985 -0.1933
  701TIP3   OH223517   1.540   2.000  16.580 -0.0685 -0.7604  0.4091
  701TIP3    H123518   1.617   1.968  16.533  0.0564 -0.5400  0.4630
  701TIP3    H223519   1.474   2.011  16.512  0.3317  0.2581  0.1578
  702TIP3   OH223520   1.102   5.033   0.107 -0.3105  0.3106  0.4717
  702TIP3    H123521   1.146   5.101   0.158 -0.9739  0.5874  0.6738
  702TIP3    H223522   1.028   5.006   0.162 -0.1029 -0.5118  0.3578
  703TIP3   OH223523   3.043   3.772   4.748  0.1663  0.1712  0.0697
  703TIP3    H123524   2.984   3.846   4.734  1.3857  1.4687  1.4850
  703TIP3    H223525   2.996   3.715   4.810 -0.8353 -0.3693 -1.1362
  704TIP3   OH223526   5.407   2.764  13.628 -0.2986 -0.0755 -0.0882
  704TIP3    H123527   5.494   2.766  13.588 -0.5139  1.9496 -0.5664
  704TIP3    H223528   5.363   2.842  13.593 -2.2652 -0.9764  0.2532
  705TIP3   OH223529   0.728   2.191  16.675  0.2696  0.0173 -0.1626
  705TIP3    H123530   0.766   2.267  16.720  0.2053 -0.3292  0.4764
  705TIP3    H223531   0.640   2.220  16.650  0.3263  0.2276 -0.1200
  706TIP3   OH223532   3.125   0.968  12.858 -0.0053 -0.0524  0.0697
  706TIP3    H123533   3.081   0.899  12.906  0.5802 -0.6939 -0.2968
  706TIP3    H223534   3.060   1.037  12.849 -0.1914  0.0006  1.5931
  707TIP3   OH223535   0.072   6.331  11.552 -0.1934  0.6687  0.2884
  707TIP3    H123536   0.114   6.414  11.574  2.5500 -0.5011 -0.1680
  707TIP3    H223537   0.052   6.338  11.459  0.1328  0.7894  0.2268
  708TIP3   OH223538   0.107   0.957   1.456 -0.6244 -0.0944  0.1971
  708TIP3    H123539   0.076   0.934   1.369 -2.0143  1.1068  0.3239
  708TIP3    H223540   0.065   1.041   1.475 -0.0092 -0.1150  1.8382
  709TIP3   OH223541   0.299   3.069  13.980 -0.2175 -0.4139 -0.3047
  709TIP3    H123542   0.212   3.082  13.942 -0.3778 -2.7591 -0.8660
  709TIP3    H223543   0.355   3.051  13.905  0.4277 -0.5496  0.2052
  710TIP3   OH223544   1.486   4.625  16.062 -0.2137  0.0728 -0.2853
  710TIP3    H123545   1.394   4.610  16.044  0.0841 -2.7283  0.1381
  710TIP3    H223546   1.515   4.548  16.112  2.2919  0.9778 -0.1490
  711TIP3   OH223547   4.044   0.619  14.306  0.3494  0.0661  0.3626
  711TIP3    H123548   4.117   0.558  14.296  0.0608 -0.2727  0.2946
  711TIP3    H223549   3.969   0.564  14.326 -0.1235  0.3028 -0.6619
  712TIP3   OH223550   0.352   5.661  15.064  0.0689  0.3381  0.5323
  712TIP3    H123551   0.431   5.666  15.010 -0.8092 -0.3470 -0.8767
  712TIP3    H223552   0.281   5.646  15.001 -0.8829 -1.4836  1.9669
  713TIP3   OH223553   4.092   6.491   0.648  0.4394  0.2251 -0.2211
  713TIP3    H123554   4.035   6.469   0.722 -0.2089 -2.0221 -1.3085
  713TIP3    H223555   4.031   6.515   0.578  0.9489  0.3311 -0.6361
  714TIP3   OH223556   3.628   2.567   4.015  0.1044 -0.0896 -0.2884
  714TIP3    H123557   3.656   2.642   4.067  0.3875 -1.2775  1.3517
  714TIP3    H223558   3.540   2.547   4.047 -0.1997 -0.1107 -1.1160
  715TIP3   OH223559   4.452   5.868  14.860 -0.0928  0.6420 -0.1215
  715TIP3    H123560   4.440   5.782  14.900  2.2747  0.5371  0.5009
  715TIP3    H223561   4.446   5.851  14.766 -0.0947 -0.1242  0.0055
  716TIP3   OH223562   2.552   3.981   2.316  0.7975  0.1291 -0.0587
  716TIP3    H123563   2.572   3.989   2.223  0.5969 -1.0969 -0.2212
  716TIP3    H223564   2.491   4.053   2.333 -0.4253 -0.5623 -1.2635
  717TIP3   OH223565   0.328   1.234   5.893 -0.2701  0.2887  0.1285
  717TIP3    H123566   0.319   1.156   5.948 -0.9169  1.0522  1.1582
  717TIP3    H223567   0.292   1.208   5.809  2.1992 -1.4075 -0.5199
  718TIP3   OH223568   6.792   6.640   2.604  0.2473  0.1375 -0.0275
  718TIP3    H123569   6.765   6.570   2.545  1.9435 -1.2993  0.8326
  718TIP3    H223570   6.887   6.631   2.611  0.5391  2.5670  0.0887
  719TIP3   OH223571   2.190   3.631  15.878 -0.4924 -0.5966  0.3060
  719TIP3    H123572   2.259   3.602  15.818 -0.4114  1.9853 -1.0233
  719TIP3    H223573   2.205   3.582  15.958  0.7995 -2.5504 -1.0473
  720TIP3   OH223574   6.148   6.083  12.088 -0.3977  0.2487  0.5005
  720TIP3    H123575   6.157   6.150  12.020  0.8773  0.2387  0.6387
  720TIP3    H223576   6.232   6.083  12.134 -0.4826 -1.2168  0.7194
  721TIP3   OH223577   4.759   0.912   3.371  0.2677 -0.1153 -0.0030
  721TIP3    H123578   4.704   0.976   3.325  1.5134  1.4853  0.6341
  721TIP3    H223579   4.717   0.828   3.353 -0.9039  0.7514 -1.6680
  722TIP3   OH223580   5.094   1.958  15.840  0.1721 -0.0441 -0.0512
  722TIP3    H123581   5.146   1.903  15.781  1.8696  1.1011  0.3327
  722TIP3    H223582   5.139   2.042  15.841 -1.5813  0.9399  0.4911
  723TIP3   OH223583   1.832   3.458   6.300  0.0163 -0.1362  0.5001
  723TIP3    H123584   1.783   3.468   6.381 -0.4135 -1.3751  0.4230
  723TIP3    H223585   1.766   3.463   6.231  0.1921 -0.3364  0.3115
  724TIP3   OH223586   2.546   0.313  10.981  0.1937  0.0677 -0.1198
  724TIP3    H123587   2.548   0.319  11.076  1.2149  0.3716 -0.1481
  724TIP3    H223588   2.636   0.292  10.956  0.1926  1.1225 -1.0864
  725TIP3   OH223589   3.297   0.330   1.222  0.0511  0.3280 -0.5662
  725TIP3    H123590   3.389   0.307   1.209 -0.1363 -0.8718  0.1094
  725TIP3    H223591   3.294   0.368   1.310 -0.3085 -0.9838  0.0153
  726TIP3   OH223592   2.045   0.078  14.854  0.2420  0.0194  0.2912
  726TIP3    H123593   2.029   0.137  14.780  0.6165  0.8787  0.8744
  726TIP3    H223594   2.026  -0.009  14.820 -0.2081  0.4620 -0.6298
  727TIP3   OH223595   1.970   1.700  15.032  0.6875 -0.0791  0.3567
  727TIP3    H123596   1.984   1.653  14.950 -0.2419  0.0010  0.1387
  727TIP3    H223597   1.950   1.631  15.095 -1.1796  0.0029 -0.0721
  728TIP3   OH223598   1.412   4.394   5.014  0.0577  0.1160 -0.1562
  728TIP3    H123599   1.423   4.320   4.954 -1.2135 -0.6586  0.5152
  728TIP3    H223600   1.474   4.377   5.085  0.6297  0.3455 -0.5926
  729TIP3   OH223601   3.553   2.572   3.599 -0.2582  0.3298  0.4746
  729TIP3    H123602   3.515   2.587   3.512  1.2590  0.2749 -0.2344
  729TIP3    H223603   3.558   2.659   3.638 -0.3258  0.4417  0.2405
  730TIP3   OH223604   3.795   2.750  13.226 -0.5134 -0.3368  0.5436
  730TIP3    H123605   3.886   2.772  13.245 -0.5474  0.2536  0.0446
  730TIP3    H223606   3.800   2.677  13.165 -0.3991 -1.6931  2.1058
  731TIP3   OH223607   4.608   4.487   3.852  0.1110  0.3310  0.1016
  731TIP3    H123608   4.672   4.419   3.830  0.0464  0.3135 -0.0348
  731TIP3    H223609   4.629   4.511   3.942 -1.5661 -1.7984  1.1548
  732TIP3   OH223610   5.117   2.978   3.729  0.2985  0.1302 -0.0546
  732TIP3    H123611   5.130   3.018   3.815 -1.9813 -0.1624  0.4784
  732TIP3    H223612   5.040   2.921   3.740 -0.2750  0.3718 -2.3777
  733TIP3   OH223613   1.001   4.564  10.384 -0.1439 -0.6545 -0.0250
  733TIP3    H123614   1.019   4.489  10.327 -1.2596 -0.5619 -0.5357
  733TIP3    H223615   1.083   4.579  10.430  0.5208 -1.3134 -0.9358
  734TIP3   OH223616   3.140   5.774  12.473 -0.4441  0.4845 -0.2370
  734TIP3    H123617   3.149   5.847  12.533 -0.5034 -0.6780  1.2341
  734TIP3    H223618   3.213   5.716  12.494 -0.8443 -0.2576 -0.8326
  735TIP3   OH223619   1.670   2.009  14.632 -0.7729 -0.3818 -0.3976
  735TIP3    H123620   1.673   2.094  14.676  0.0509 -0.7155  0.2050
  735TIP3    H223621   1.761   1.987  14.615 -0.8725 -1.8022  0.7411
  736TIP3   OH223622   3.736   6.757   5.488 -0.3291  0.0586  0.0197
  736TIP3    H123623   3.743   6.746   5.582  3.5147 -1.0389 -0.1949
  736TIP3    H223624   3.744   6.851   5.473  1.9407  0.0677  0.8122
  737TIP3   OH223625   4.039   6.751  10.623  0.1095 -0.0358 -0.4902
  737TIP3    H123626   4.047   6.658  10.644 -1.1149  0.1732  1.0400
  737TIP3    H223627   4.127   6.776  10.592  0.1957 -1.8893 -1.9135
  738TIP3   OH223628   6.485   2.597   4.264 -0.2087  0.1543  0.0188
  738TIP3    H123629   6.471   2.689   4.242  1.1887 -0.2885 -3.3784
  738TIP3    H223630   6.580   2.588   4.271 -0.3418 -0.9918  0.5840
  739TIP3   OH223631   3.698   4.130   3.594 -0.0494  0.3139 -0.5954
  739TIP3    H123632   3.656   4.213   3.573  1.4254  0.7066 -2.3063
  739TIP3    H223633   3.697   4.126   3.690  0.2025  2.5174 -0.4466
  740TIP3   OH223634   2.995   2.906  14.628  0.1448 -0.3896  0.1795
  740TIP3    H123635   3.051   2.881  14.555 -0.4672  0.9651 -0.8019
  740TIP3    H223636   2.974   2.999  14.612 -1.3693 -0.5124  1.1708
  741TIP3   OH223637   2.807   2.975  12.278 -0.4612  0.0360  0.4016
  741TIP3    H123638   2.765   3.054  12.246 -0.9590 -0.2557  0.3285
  741TIP3    H223639   2.815   2.919  12.201 -2.2298 -0.9215  0.8520
  742TIP3   OH223640   4.289   5.877   0.742 -0.1339 -0.2671  0.4426
  742TIP3    H123641   4.304   5.958   0.790  0.0483  0.0868 -0.2076
  742TIP3    H223642   4.370   5.862   0.693 -0.4514 -0.4325 -0.0399
  743TIP3   OH223643   5.413   5.451   1.257  0.0812 -0.1040  0.4054
  743TIP3    H123644   5.480   5.386   1.279 -0.2257 -0.7021 -0.4003
  743TIP3    H223645   5.361   5.410   1.188  0.4603  1.3443 -0.8011
  744TIP3   OH223646   3.845   6.738  14.562  0.4428  0.0468 -0.3740
  744TIP3    H123647   3.817   6.730  14.653  1.7430 -0.9208 -0.0396
  744TIP3    H223648   3.780   6.796  14.522  0.3393  1.1974  1.3705
  745TIP3   OH223649   5.640   5.757  14.819  0.3522  0.3366  0.3213
  745TIP3    H123650   5.651   5.852  14.808 -0.2717  0.4008  0.2124
  745TIP3    H223651   5.609   5.726  14.734  3.2856 -0.4259 -0.5774
  746TIP3   OH223652   5.166   3.445   5.040  0.3044  0.7888  0.1889
  746TIP3    H123653   5.193   3.367   5.087 -2.6011  0.2421  1.1121
  746TIP3    H223654   5.142   3.508   5.108 -1.1285  1.0409 -0.4998
  747TIP3   OH223655   2.111   6.268  15.942 -0.9688 -0.0907  0.0261
  747TIP3    H123656   2.197   6.281  15.901 -1.1113 -2.0991 -1.0005
  747TIP3    H223657   2.127   6.206  16.013 -1.9036 -2.6623 -1.8530
  748TIP3   OH223658   2.502   6.325   5.815  0.0094 -0.7443 -0.6894
  748TIP3    H123659   2.477   6.310   5.906 -2.1106 -1.6352 -1.3566
  748TIP3    H223660   2.570   6.260   5.797  0.0589 -0.9144  0.0979
  749TIP3   OH223661   2.869   4.569  12.706  0.0575  0.4955  0.2960
  749TIP3    H123662   2.943   4.626  12.727  0.1822 -0.8421  4.3919
  749TIP3    H223663   2.907   4.481  12.704 -0.9963  0.0367 -0.3502
  750TIP3   OH223664   3.560   5.149   3.377 -0.1242 -0.0382  0.1401
  750TIP3    H123665   3.572   5.127   3.470 -2.7337 -0.3998  0.4656
  750TIP3    H223666   3.549   5.064   3.334 -0.7219  0.1975 -0.1823
  751TIP3   OH223667   3.746   6.230  15.733  0.1524 -0.6027 -0.2474
  751TIP3    H123668   3.663   6.238  15.687 -0.6295 -0.4243  1.1340
  751TIP3    H223669   3.751   6.138  15.758  1.0579 -0.9262 -1.5076
  752TIP3   OH223670   1.048   6.449  15.981  0.2297 -0.7573  0.1421
  752TIP3    H123671   1.110   6.415  15.917  2.2473 -0.0414  1.6294
  752TIP3    H223672   1.071   6.542  15.989 -2.3417  0.0380 -0.6642
  753TIP3   OH223673   3.152   0.651   1.921  0.3452 -0.5452 -0.0548
  753TIP3    H123674   3.101   0.602   1.985  0.0252 -0.1642 -0.0197
  753TIP3    H223675   3.105   0.733   1.910  0.4314 -0.5848 -0.7377
  754TIP3   OH223676   6.489   2.230   3.776 -0.2134  0.5871  0.3212
  754TIP3    H123677   6.442   2.250   3.695 -0.9262 -1.2171  0.2419
  754TIP3    H223678   6.468   2.304   3.834 -1.1530  1.0214 -0.5349
  755TIP3   OH223679   6.067   0.213  14.513 -0.1425  0.1486  0.3495
  755TIP3    H123680   5.993   0.225  14.454 -0.2198 -0.0162  0.4115
  755TIP3    H223681   6.082   0.300  14.550 -0.4774  0.1290  0.5374
  756TIP3   OH223682   4.872   1.514   0.659 -0.2230  0.0820 -0.6516
  756TIP3    H123683   4.898   1.583   0.720 -0.0767 -0.5707  0.0421
  756TIP3    H223684   4.954   1.468   0.639 -0.2499  0.3528 -1.4367
  757TIP3   OH223685   6.028   5.636  11.555  0.9372  0.4619  0.1206
  757TIP3    H123686   6.097   5.602  11.497  0.1178  0.5894 -0.9576
  757TIP3    H223687   5.992   5.557  11.597  0.3747  0.1747 -0.8731
  758TIP3   OH223688   1.939   5.181  11.662 -0.0888 -0.2086  0.2898
  758TIP3    H123689   1.922   5.241  11.590  0.2761  0.2706  0.5965
  758TIP3    H223690   1.866   5.118  11.659 -1.3688  1.1670  0.9259
  759TIP3   OH223691   4.567   0.613   1.852 -0.2510  0.4280 -0.1511
  759TIP3    H123692   4.553   0.696   1.898 -0.4157  0.3259 -0.0149
  759TIP3    H223693   4.627   0.635   1.781 -0.9910  0.8581 -0.6641
  760TIP3   OH223694   3.425   5.459  12.049 -0.2545 -0.2766  0.2267
  760TIP3    H123695   3.459   5.523  12.112 -2.5553  0.7653  0.5062
  760TIP3    H223696   3.433   5.503  11.964 -1.1822  0.1407  0.3389
  761TIP3   OH223697   1.698   4.335   3.441  0.2304  0.0146  0.1726
  761TIP3    H123698   1.643   4.376   3.375 -0.3332  0.6857  1.0266
  761TIP3    H223699   1.787   4.341   3.407 -0.1386 -0.4485 -0.9128
  762TIP3   OH223700   2.754   3.959   3.777 -0.0718  0.0470 -0.2115
  762TIP3    H123701   2.789   4.048   3.778 -0.9134  0.3970  1.1980
  762TIP3    H223702   2.734   3.940   3.868 -0.7921 -1.2308 -0.6091
  763TIP3   OH223703   5.258   6.010  11.455  0.8711 -0.0794  0.2217
  763TIP3    H123704   5.345   5.972  11.465  1.6480  1.2311 -1.0440
  763TIP3    H223705   5.227   6.024  11.544  1.7605 -1.0021  0.6899
  764TIP3   OH223706   4.623   5.935   4.882  0.4179  0.3237  0.1899
  764TIP3    H123707   4.640   5.843   4.859 -0.4969  0.5048 -1.3872
  764TIP3    H223708   4.710   5.975   4.887  0.8344 -0.6489  1.0292
  765TIP3   OH223709   2.042   1.293  15.337 -0.3445  0.2916  0.7400
  765TIP3    H123710   2.043   1.260  15.427  0.7372 -0.5013  0.4487
  765TIP3    H223711   2.134   1.308  15.316 -0.5956  0.5317 -0.2199
  766TIP3   OH223712   2.275   3.142  14.457  0.1292 -0.3841 -0.9191
  766TIP3    H123713   2.358   3.110  14.424  1.2531  0.3799  1.0021
  766TIP3    H223714   2.259   3.091  14.537 -1.1883 -0.4132 -1.1691
  767TIP3   OH223715   3.234   0.444   3.605  0.0365  0.3391  0.1131
  767TIP3    H123716   3.214   0.383   3.676  0.6757  0.7427  0.6484
  767TIP3    H223717   3.321   0.477   3.625 -0.0188  0.9124 -0.5410
  768TIP3   OH223718   2.950   6.096  15.775  0.2892  0.1582 -0.1833
  768TIP3    H123719   2.944   6.098  15.870 -0.1688 -0.0590 -0.2035
  768TIP3    H223720   3.000   6.017  15.756 -0.8836 -0.6268 -0.1633
  769TIP3   OH223721   0.973   3.109   5.984  0.3945  0.4178  0.4885
  769TIP3    H123722   1.000   3.128   5.894  0.2211  1.7846  0.7121
  769TIP3    H223723   0.925   3.027   5.977  0.5285  0.4165 -0.6397
  770TIP3   OH223724   4.162   5.705   0.955 -0.1819 -0.2342  0.0391
  770TIP3    H123725   4.235   5.654   0.920 -1.0668 -0.2352 -1.9040
  770TIP3    H223726   4.160   5.784   0.901 -1.6280 -0.2438  0.0386
  771TIP3   OH223727   5.415   3.211  13.633 -0.1500  0.6414  0.5383
  771TIP3    H123728   5.343   3.250  13.583  1.2351  0.7964 -1.4598
  771TIP3    H223729   5.440   3.279  13.696 -1.1388  0.9418  0.6167
  772TIP3   OH223730   2.509   1.633   0.915  0.1743  0.4561  0.0023
  772TIP3    H123731   2.541   1.636   1.005 -1.5009 -0.5445  0.6847
  772TIP3    H223732   2.470   1.720   0.900 -1.3313 -0.0178  0.9841
  773TIP3   OH223733   0.042   1.902   3.904 -0.3645  0.0283 -0.5439
  773TIP3    H123734  -0.048   1.918   3.874 -0.5605  1.4086  0.6776
  773TIP3    H223735   0.086   1.865   3.827 -1.7335  0.1857 -1.4475
  774TIP3   OH223736   0.961   4.333  13.285 -0.0177 -0.0324  0.2444
  774TIP3    H123737   1.021   4.279  13.335 -0.7014 -1.6334 -0.6047
  774TIP3    H223738   0.891   4.273  13.257 -1.6125  1.5922  0.5478
  775TIP3   OH223739   5.203   6.061  13.264 -0.4181  0.5775 -0.4086
  775TIP3    H123740   5.210   6.060  13.169  1.0735 -0.2740 -0.3142
  775TIP3    H223741   5.275   6.118  13.293 -0.4908  0.3546  0.2302
  776TIP3   OH223742   3.856   3.382  16.266 -0.1103 -0.3002 -0.3119
  776TIP3    H123743   3.789   3.409  16.203 -0.2496 -0.4224 -0.2186
  776TIP3    H223744   3.848   3.445  16.338 -1.6893 -1.6372  0.7606
  777TIP3   OH223745   6.396   4.158   2.411  0.5553  0.1828  0.3736
  777TIP3    H123746   6.475   4.141   2.462 -0.6504 -0.4056  2.1725
  777TIP3    H223747   6.349   4.074   2.412 -0.0448  0.4824 -0.7745
  778TIP3   OH223748   2.536   3.023   4.579 -0.5291 -0.3052 -0.3943
  778TIP3    H123749   2.517   2.952   4.517 -0.3728  0.1834 -1.0088
  778TIP3    H223750   2.499   3.101   4.538 -1.4041 -0.1422  0.6386
  779TIP3   OH223751   2.109   2.546   5.346 -0.0642 -0.1905  0.1263
  779TIP3    H123752   2.189   2.596   5.335 -0.0714 -0.0330  0.7581
  779TIP3    H223753   2.088   2.554   5.439 -1.3687  0.6267 -0.2141
  780TIP3   OH223754   4.529   0.062  14.512  0.2437 -0.7809 -0.2476
  780TIP3    H123755   4.589   0.050  14.438  0.9884 -0.1876  0.2436
  780TIP3    H223756   4.560   0.142  14.554  1.4257 -2.3756  2.1702
  781TIP3   OH223757   6.016   6.517  10.930 -0.4611  0.2677 -0.5388
  781TIP3    H123758   5.963   6.443  10.901 -1.9854  0.5478  1.3359
  781TIP3    H223759   5.979   6.542  11.014  0.8451  2.3482 -0.5009
  782TIP3   OH223760   4.236   5.488  12.477  0.7231  0.3646 -0.3192
  782TIP3    H123761   4.271   5.545  12.546 -0.5666  0.9779 -0.1489
  782TIP3    H223762   4.239   5.400  12.514  3.1005  0.1989 -0.7182
  783TIP3   OH223763   0.570   3.426   3.979  0.0474 -0.7683  0.2693
  783TIP3    H123764   0.506   3.414   3.909  1.2067 -1.0362 -0.7782
  783TIP3    H223765   0.633   3.355   3.966  0.9998 -0.0264  0.7570
  784TIP3   OH223766   5.447   3.723   0.328  0.0540 -0.8196  0.0368
  784TIP3    H123767   5.499   3.651   0.292 -1.1622 -1.6920 -0.0164
  784TIP3    H223768   5.387   3.746   0.257 -0.0307 -0.2121  0.3014
  785TIP3   OH223769   2.358   0.299   4.969  0.4735 -0.5006 -0.0205
  785TIP3    H123770   2.410   0.329   4.894  0.1913  1.0356  0.3593
  785TIP3    H223771   2.419   0.299   5.042  0.0490  1.1261  0.3869
  786TIP3   OH223772   5.473   4.698   4.362 -0.3201  0.4194 -0.6931
  786TIP3    H123773   5.533   4.623   4.367  0.1413  0.8524  1.2827
  786TIP3    H223774   5.390   4.660   4.330 -0.1165 -0.9626  0.3102
  787TIP3   OH223775   4.142   1.089  14.593 -0.1717  0.0018  0.0427
  787TIP3    H123776   4.049   1.067  14.593 -0.0674 -0.4964 -0.8092
  787TIP3    H223777   4.152   1.153  14.664 -1.2610  0.4777 -0.2083
  788TIP3   OH223778   5.607   4.863   4.864  0.6698 -0.3959 -0.1623
  788TIP3    H123779   5.513   4.875   4.870  0.7618 -0.1234  0.9648
  788TIP3    H223780   5.626   4.867   4.770 -0.3965 -0.1944 -0.3796
  789TIP3   OH223781   0.093   2.818  16.227 -0.1971  0.6976 -0.6435
  789TIP3    H123782   0.105   2.814  16.132 -1.5616  0.1000 -0.8179
  789TIP3    H223783   0.057   2.732  16.250  2.0639  0.0407  0.7468
  790TIP3   OH223784   5.727   5.363  10.944 -0.1981 -0.2324  0.1930
  790TIP3    H123785   5.751   5.346  10.854  1.8627  0.6482  0.5249
  790TIP3    H223786   5.773   5.296  10.995 -0.3075  0.0635  0.6934
  791TIP3   OH223787   0.845   1.498  16.750  0.0182 -0.8511  0.4705
  791TIP3    H123788   0.903   1.497  16.826  0.4705  2.6160  0.3290
  791TIP3    H223789   0.901   1.521  16.676 -0.8326 -1.7182 -0.4766
  792TIP3   OH223790   4.172   4.736  10.946 -0.3439  0.0574  0.2977
  792TIP3    H123791   4.102   4.781  10.898  0.4936 -0.5577 -1.6208
  792TIP3    H223792   4.167   4.646  10.916  0.7034 -0.1836  0.8085
  793TIP3   OH223793   0.278   6.713  14.537  1.0160  0.0309 -0.1887
  793TIP3    H123794   0.277   6.648  14.607  0.4866  1.0759  0.7986
  793TIP3    H223795   0.186   6.731  14.519  1.1108  1.9475  0.9592
  794TIP3   OH223796   0.195   5.836  13.947  0.5884 -0.0545 -0.2046
  794TIP3    H123797   0.253   5.821  14.021 -0.3392  1.5278  0.8920
  794TIP3    H223798   0.254   5.848  13.872  1.7964  2.3474  1.0278
  795TIP3   OH223799   2.004   2.210  16.273 -0.1150 -0.8743 -0.8644
  795TIP3    H123800   2.003   2.292  16.224 -0.2174 -0.5723 -0.3578
  795TIP3    H223801   1.913   2.197  16.300 -0.0200 -0.9289 -0.5688
  796TIP3   OH223802   4.368   1.348  12.321 -0.0323  0.1270  0.1857
  796TIP3    H123803   4.355   1.438  12.351  0.6424  1.2108 -2.4733
  796TIP3    H223804   4.462   1.342  12.305  0.0403 -1.3176  0.9470
  797TIP3   OH223805   1.910   3.922   0.911 -0.7290  0.0539 -0.2011
  797TIP3    H123806   1.930   3.961   0.996 -0.3770 -0.0189 -0.2520
  797TIP3    H223807   1.971   3.849   0.902 -1.0836 -0.2323 -0.3064
  798TIP3   OH223808   2.530   3.096  11.241 -0.5340 -0.2689  0.1240
  798TIP3    H123809   2.531   3.168  11.177  1.0705 -0.4211 -0.0729
  798TIP3    H223810   2.600   3.118  11.302  1.4471 -2.6592 -1.1329
  799TIP3   OH223811   1.852   5.523   0.569  0.3042 -0.4761  0.4272
  799TIP3    H123812   1.891   5.592   0.516  1.0522 -0.4940  0.9376
  799TIP3    H223813   1.882   5.442   0.529 -0.7888 -0.5268 -0.3317
  800TIP3   OH223814   1.602   4.941  15.044 -0.2766 -0.8203 -0.3591
  800TIP3    H123815   1.544   4.912  15.114 -0.2364 -2.7844 -1.0893
  800TIP3    H223816   1.678   4.882  15.049 -0.2214 -0.9276 -1.9599
  801TIP3   OH223817   3.696   2.431  13.640  0.6989 -0.1074  0.0841
  801TIP3    H123818   3.697   2.516  13.596 -0.4625  0.2371  0.6836
  801TIP3    H223819   3.613   2.430  13.688  1.5689 -0.7816  1.6377
  802TIP3   OH223820   1.406   0.028   4.148  0.4195 -0.5991 -0.3003
  802TIP3    H123821   1.436  -0.060   4.126 -0.0287 -0.9055  0.2891
  802TIP3    H223822   1.415   0.034   4.243 -0.4197 -0.3462 -0.2246
  803TIP3   OH223823   0.361   4.325   1.821  0.7268  0.1287 -0.0706
  803TIP3    H123824   0.375   4.242   1.777  0.5460 -0.0368  0.1785
  803TIP3    H223825   0.311   4.302   1.900 -1.2470  0.6982 -1.0719
  804TIP3   OH223826   0.842   2.104   2.057 -0.1926 -0.1699 -0.0724
  804TIP3    H123827   0.915   2.083   2.114 -0.8479 -0.1942  0.7845
  804TIP3    H223828   0.781   2.031   2.068 -1.2211  0.7804  0.7586
  805TIP3   OH223829   2.719   5.578  11.819 -0.4278  0.4416  0.4769
  805TIP3    H123830   2.699   5.487  11.797  0.7696  0.1542  0.5255
  805TIP3    H223831   2.704   5.584  11.913 -3.5759  1.1483  0.0572
  806TIP3   OH223832   0.699   4.357  13.696 -0.0096 -0.1074 -0.1391
  806TIP3    H123833   0.717   4.352  13.790 -0.1606  0.7707 -0.0509
  806TIP3    H223834   0.786   4.354  13.654  0.0615 -0.4234  0.0301
  807TIP3   OH223835   4.807   5.354   4.044 -0.1824  0.7731 -0.2991
  807TIP3    H123836   4.740   5.393   3.988 -0.0924 -0.7529 -1.5415
  807TIP3    H223837   4.765   5.275   4.080  0.3984  0.7026  0.2417
  808TIP3   OH223838   3.966   1.003   2.873 -0.0061 -0.4989 -0.0726
  808TIP3    H123839   3.916   1.081   2.848 -1.9951 -1.9579 -0.8467
  808TIP3    H223840   3.973   1.008   2.968 -3.0649 -1.0133  0.2590
  809TIP3   OH223841   0.362   0.340   2.791  0.2349 -0.3714 -0.2311
  809TIP3    H123842   0.448   0.318   2.756 -0.6402  0.1273 -2.9882
  809TIP3    H223843   0.306   0.267   2.764 -0.5752  0.2376 -0.2514
  810TIP3   OH223844   6.798   2.934  15.364  0.2676  0.1944  0.2925
  810TIP3    H123845   6.888   2.966  15.372  1.0395 -1.3619 -1.5543
  810TIP3    H223846   6.803   2.841  15.384 -1.1025  0.2119  0.8723
  811TIP3   OH223847   6.233   1.151  14.518 -0.1588 -0.5338 -0.3467
  811TIP3    H123848   6.140   1.164  14.500  0.1760 -0.7693 -2.3861
  811TIP3    H223849   6.238   1.144  14.614 -2.3174 -1.1924 -0.2395
  812TIP3   OH223850   5.879   6.672   5.106  0.4606 -0.1689  0.8418
  812TIP3    H123851   5.925   6.659   5.189  0.7532  0.8666  0.8596
  812TIP3    H223852   5.946   6.702   5.045  0.4761 -1.9536 -0.1081
  813TIP3   OH223853   6.079   0.575   5.174 -0.0104  0.6749 -0.9980
  813TIP3    H123854   6.104   0.502   5.230 -0.0081  1.4169 -0.0033
  813TIP3    H223855   6.066   0.649   5.234  2.1737  2.1123 -2.1456
  814TIP3   OH223856   4.047   6.214  16.403 -0.5113 -0.6227 -0.3974
  814TIP3    H123857   4.041   6.307  16.380 -0.4865 -0.4243  0.3771
  814TIP3    H223858   4.091   6.174  16.328  2.4453  0.5243  0.5629
  815TIP3   OH223859   5.967   3.099  12.829  0.0621 -0.7237  0.2895
  815TIP3    H123860   5.924   3.101  12.744  0.1680 -0.2007  0.2457
  815TIP3    H223861   6.023   3.021  12.825 -1.2034 -1.6752  0.5236
  816TIP3   OH223862   6.368   1.604   4.664  0.8284  0.3181  1.0428
  816TIP3    H123863   6.459   1.598   4.635  0.6960  1.4934  0.3563
  816TIP3    H223864   6.368   1.673   4.730  0.5137 -0.0447  1.4346
  817TIP3   OH223865   1.221   5.642   3.063  0.0315 -0.1629  0.0173
  817TIP3    H123866   1.273   5.689   2.998  1.9504 -1.3571  0.5985
  817TIP3    H223867   1.131   5.649   3.032  0.3388  2.9241 -0.4608
  818TIP3   OH223868   3.320   1.623   6.056 -0.2284 -0.1008 -0.0105
  818TIP3    H123869   3.407   1.663   6.048 -0.4534  0.2137 -1.0039
  818TIP3    H223870   3.336   1.540   6.102  0.6101 -0.0850 -0.2548
  819TIP3   OH223871   5.913   4.889  15.060  0.3924 -0.2903  0.0645
  819TIP3    H123872   5.928   4.945  15.136  0.8679  1.4944 -1.2680
  819TIP3    H223873   5.893   4.803  15.097  0.4136  0.5545  2.1888
  820TIP3   OH223874   6.372   3.267   3.794  0.1294 -0.3005 -0.1692
  820TIP3    H123875   6.294   3.224   3.828 -0.3216 -0.4796 -1.3837
  820TIP3    H223876   6.445   3.225   3.840 -0.4034 -1.1679 -0.0962
  821TIP3   OH223877   4.085   3.963   5.430  0.1966  0.2785  0.1947
  821TIP3    H123878   3.997   3.952   5.465 -0.1809  2.4238  0.0367
  821TIP3    H223879   4.075   3.949   5.336  0.6087 -2.2884  0.4723
  822TIP3   OH223880   4.897   2.106   4.187 -0.1745 -0.8449 -0.1424
  822TIP3    H123881   4.812   2.139   4.158  0.7151  0.8186 -0.9431
  822TIP3    H223882   4.939   2.181   4.229  0.8229 -1.7083  0.4457
  823TIP3   OH223883   3.929   0.039  11.544 -0.2489  0.1328  0.6978
  823TIP3    H123884   3.983   0.112  11.516 -2.8902  2.0571  0.1785
  823TIP3    H223885   3.896   0.000  11.462 -0.5261 -0.2829  0.9998
  824TIP3   OH223886   0.171   5.412  11.967 -0.0296 -0.0485  0.0853
  824TIP3    H123887   0.107   5.480  11.949  0.5645  0.6978  0.6654
  824TIP3    H223888   0.237   5.456  12.022  1.3676 -0.5688 -1.0985
  825TIP3   OH223889   2.187   0.779  10.665  0.7259 -0.1193  0.1715
  825TIP3    H123890   2.169   0.864  10.704 -0.3174 -0.0457 -0.4205
  825TIP3    H223891   2.115   0.723  10.695  0.7414 -0.4638 -0.4188
  826TIP3   OH223892   1.042   5.402  14.621  0.1199 -0.0431 -0.4628
  826TIP3    H123893   1.091   5.386  14.541  0.4923 -0.9919 -0.0614
  826TIP3    H223894   1.087   5.477  14.661  0.0859  0.2756 -1.0140
  827TIP3   OH223895   2.143   5.591   4.220  0.1733 -0.0359  0.6877
  827TIP3    H123896   2.081   5.533   4.265  0.4157 -0.1175  0.9202
  827TIP3    H223897   2.088   5.651   4.170 -0.0810 -0.4589  0.4550
  828TIP3   OH223898   0.167   5.194  15.413 -0.0808 -0.4178 -0.4610
  828TIP3    H123899   0.188   5.228  15.326  0.9517  0.8290  0.2480
  828TIP3    H223900   0.200   5.260  15.474  1.4410 -2.3828  0.9743
  829TIP3   OH223901   6.224   3.860  16.620  0.7899 -0.1350  0.0926
  829TIP3    H123902   6.312   3.824  16.613  0.6108 -0.5374 -0.0914
  829TIP3    H223903   6.170   3.802  16.566  1.0675  2.3656 -3.2117
  830TIP3   OH223904   6.054   2.293   2.001 -0.3528  0.5803 -0.0443
  830TIP3    H123905   6.006   2.375   2.010  0.0128  0.8915 -0.8018
  830TIP3    H223906   6.108   2.287   2.079 -0.5983  0.9161  0.1534
  831TIP3   OH223907   3.997   3.116  12.612  0.0396 -0.0761 -0.4190
  831TIP3    H123908   4.066   3.138  12.675  0.0393  0.1865 -0.5086
  831TIP3    H223909   4.016   3.171  12.536 -0.9068  0.8218 -0.0265
  832TIP3   OH223910   0.715   6.700   3.042 -0.1954 -0.4413 -0.5524
  832TIP3    H123911   0.709   6.605   3.053 -0.2538 -0.4141 -0.3437
  832TIP3    H223912   0.808   6.719   3.045 -0.2672 -0.2010  1.9419
  833TIP3   OH223913   0.237   0.830   3.736  0.1093 -0.5726 -0.5417
  833TIP3    H123914   0.271   0.752   3.692  0.4457 -0.1551 -1.0393
  833TIP3    H223915   0.241   0.898   3.669 -0.0507 -0.0945 -0.0691
  834TIP3   OH223916   5.448   1.829  14.994  0.1720  0.6821 -0.1999
  834TIP3    H123917   5.382   1.760  14.983 -0.8510  1.3633  1.3218
  834TIP3    H223918   5.522   1.800  14.941  0.6949 -2.7666  2.0924
  835TIP3   OH223919   1.313   4.495   3.547  0.1992 -0.6302 -0.0660
  835TIP3    H123920   1.399   4.493   3.589  0.7675 -0.9512 -1.2036
  835TIP3    H223921   1.251   4.486   3.620  1.1668 -1.8013  0.6589
  836TIP3   OH223922   1.714   5.811   5.960 -0.3528  0.5978  0.3621
  836TIP3    H123923   1.682   5.735   6.009 -1.7528  1.1359  0.3187
  836TIP3    H223924   1.639   5.870   5.956  0.2938  1.3680 -0.8352
  837TIP3   OH223925   1.917   3.500  13.818  0.1385  0.5605  0.4054
  837TIP3    H123926   1.872   3.540  13.892  0.3840 -1.2081  1.5628
  837TIP3    H223927   1.977   3.437  13.857  0.3801 -0.3368 -1.2934
  838TIP3   OH223928   3.819   2.436   1.821  0.2467  0.2518  0.3795
  838TIP3    H123929   3.754   2.475   1.762  0.0339 -0.3195  0.2240
  838TIP3    H223930   3.875   2.509   1.848 -0.6215  0.8112  0.7218
  839TIP3   OH223931   6.360   1.383  16.178  0.4369 -0.6194  0.2155
  839TIP3    H123932   6.324   1.312  16.125 -1.0073 -0.5420  1.0450
  839TIP3    H223933   6.284   1.425  16.217  1.2539  1.3731 -0.1939
  840TIP3   OH223934   6.095   1.700   3.883  0.3249 -0.1298  0.1296
  840TIP3    H123935   6.187   1.688   3.860  0.7370  0.3536  1.4305
  840TIP3    H223936   6.071   1.619   3.928  0.9252  0.7324  2.1534
  841TIP3   OH223937   1.333   1.558  14.664 -0.7433 -0.3729 -0.1824
  841TIP3    H123938   1.298   1.523  14.746  0.2707 -0.3045  0.2981
  841TIP3    H223939   1.383   1.635  14.690 -2.3811  1.0727 -1.1535
  842TIP3   OH223940   2.010   2.336  12.699 -0.0572 -0.2710 -0.0454
  842TIP3    H123941   1.929   2.375  12.732 -0.4142 -1.8533  1.0357
  842TIP3    H223942   2.008   2.246  12.731  2.2301 -0.2835  0.1756
  843TIP3   OH223943   3.269   5.678  14.195  0.3883  0.0445  0.7049
  843TIP3    H123944   3.287   5.760  14.149 -0.7908 -0.0684  0.0062
  843TIP3    H223945   3.277   5.700  14.288 -1.6210  1.4149  0.6009
  844TIP3   OH223946   1.612   0.468  14.860  0.0397 -0.4158  0.3954
  844TIP3    H123947   1.703   0.440  14.876 -0.2768 -1.1499  0.9778
  844TIP3    H223948   1.619   0.562  14.842  1.0601 -0.7034 -0.8634
  845TIP3   OH223949   5.676   4.269  11.062 -0.3784 -0.0520 -0.4207
  845TIP3    H123950   5.668   4.359  11.093 -0.3584  0.4250 -1.7100
  845TIP3    H223951   5.749   4.232  11.111  0.0102  0.8303 -0.3215
  846TIP3   OH223952   4.116   3.607   3.352  0.2236  0.4668  0.2044
  846TIP3    H123953   4.039   3.598   3.408 -0.9840  0.0975 -1.4638
  846TIP3    H223954   4.119   3.525   3.303  1.6165  0.5335  0.1364
  847TIP3   OH223955   5.581   1.610   4.205  0.0239  0.4388  0.1934
  847TIP3    H123956   5.581   1.549   4.279 -1.1518  1.0836  0.7624
  847TIP3    H223957   5.561   1.555   4.129 -1.9063  0.2048  0.8179
  848TIP3   OH223958   4.100   6.674   4.812  0.1807  0.1891  0.2543
  848TIP3    H123959   4.060   6.672   4.899  0.4194  2.1419  0.4446
  848TIP3    H223960   4.160   6.599   4.812 -0.8408 -0.6598  1.2466
  849TIP3   OH223961   5.781   6.458  13.755 -0.2257  0.0912  0.3739
  849TIP3    H123962   5.751   6.519  13.688 -1.2057 -1.9102 -1.1081
  849TIP3    H223963   5.835   6.511  13.814  0.9518  1.9035 -2.1474
  850TIP3   OH223964   3.116   4.657   3.896 -0.9567  0.0284 -1.1551
  850TIP3    H123965   3.198   4.627   3.858 -1.6526 -3.0471 -0.4563
  850TIP3    H223966   3.142   4.722   3.961  0.7122  0.5420 -2.2613
  851TIP3   OH223967   1.704   0.201  10.738 -0.0028  0.0174  0.2070
  851TIP3    H123968   1.726   0.155  10.819 -0.5602  0.7723  0.8032
  851TIP3    H223969   1.766   0.274  10.733 -0.0410  0.0382  0.0147
  852TIP3   OH223970   2.424   5.927  11.392  0.0886  0.6470  0.2868
  852TIP3    H123971   2.446   5.870  11.465  2.1874  2.1740  0.9513
  852TIP3    H223972   2.415   6.013  11.430 -0.4007  1.2083 -1.0317
  853TIP3   OH223973   3.434   6.693  13.178  0.2097 -0.1996 -0.1863
  853TIP3    H123974   3.420   6.749  13.101 -2.0664  2.4010  1.8942
  853TIP3    H223975   3.353   6.643  13.186  1.9118 -3.5343 -1.5550
  854TIP3   OH223976   0.317   6.701  17.116  0.1093  0.1733 -0.3898
  854TIP3    H123977   0.399   6.667  17.081  0.5796  1.1399 -0.2809
  854TIP3    H223978   0.257   6.700  17.041  0.2438 -0.4587 -0.4935
  855TIP3   OH223979   5.818   5.391  14.799  0.0949 -0.6021 -0.4948
  855TIP3    H123980   5.786   5.403  14.888  1.5530 -1.5586  0.2050
  855TIP3    H223981   5.858   5.475  14.776  0.0118 -0.4592 -0.1199
  856TIP3   OH223982   1.704   3.656  16.514  0.4758 -0.4516 -0.3814
  856TIP3    H123983   1.615   3.689  16.529  0.7555  0.0116  0.2616
  856TIP3    H223984   1.691   3.578  16.460 -0.2068  0.5601 -1.7487
  857TIP3   OH223985   5.522   0.159  15.725 -0.1452 -0.8178 -0.1600
  857TIP3    H123986   5.589   0.118  15.779  0.2805 -0.7455 -0.6277
  857TIP3    H223987   5.518   0.249  15.757  2.0771  0.0350 -2.0185
  858TIP3   OH223988   6.226   1.085  16.848 -0.2018  0.6601  0.4041
  858TIP3    H123989   6.138   1.122  16.861 -0.4004 -0.4888  2.6892
  858TIP3    H223990   6.284   1.147  16.892 -0.0167  0.6001  0.2452
  859TIP3   OH223991   3.870   6.312   4.007  0.6025 -0.8923 -0.1032
  859TIP3    H123992   3.822   6.230   4.002 -1.6075  0.3994 -1.8572
  859TIP3    H223993   3.943   6.302   3.946 -1.1013 -0.7615 -2.2877
  860TIP3   OH223994   3.376   0.305  14.972  0.1873 -0.3511 -0.2298
  860TIP3    H123995   3.448   0.262  14.927 -0.8766 -1.5683 -0.8430
  860TIP3    H223996   3.340   0.237  15.030  0.3716  0.6343  1.0984
  861TIP3   OH223997   4.705   6.637  13.617  0.1110 -0.6152  0.0495
  861TIP3    H123998   4.737   6.714  13.666 -0.0767 -1.2294  1.1703
  861TIP3    H223999   4.611   6.652  13.608  0.3919  0.3985 -1.8174
  862TIP3   OH224000   1.414   3.843   2.591  0.0399  0.0329 -0.1888
  862TIP3    H124001   1.402   3.759   2.548  1.0727 -0.3534  0.2640
  862TIP3    H224002   1.505   3.844   2.619 -0.4880  0.4557  1.6116
  863TIP3   OH224003   5.577   3.416  12.203 -0.3106  0.5554 -0.4202
  863TIP3    H124004   5.573   3.379  12.115 -1.2573  1.4674 -0.7866
  863TIP3    H224005   5.528   3.499  12.196 -0.7262  0.4587  1.0555
  864TIP3   OH224006   0.747   2.399  14.752 -0.0777  0.0238  0.4683
  864TIP3    H124007   0.670   2.346  14.732 -0.1486 -0.6182  2.3088
  864TIP3    H224008   0.717   2.489  14.742  0.1172 -0.1302 -2.9922
  865TIP3   OH224009   2.892   2.920   1.553  0.2820  0.1236  0.5083
  865TIP3    H124010   2.957   2.853   1.577 -0.6833 -1.1831 -0.3858
  865TIP3    H224011   2.941   2.983   1.500  1.1906  0.0880  1.2733
  866TIP3   OH224012   4.967   4.384  12.763 -0.1680 -0.7751 -0.2118
  866TIP3    H124013   4.956   4.310  12.823 -0.2556  0.2746  1.1258
  866TIP3    H224014   5.054   4.420  12.785  1.2491 -2.2328 -2.9164
  867TIP3   OH224015   0.147   4.741  10.762 -0.4172 -0.7335  0.6169
  867TIP3    H124016   0.061   4.731  10.721 -0.4946 -1.5408  0.9593
  867TIP3    H224017   0.195   4.799  10.703 -1.0787 -0.5570  0.2438
  868TIP3   OH224018   4.089   6.489   3.482  0.3670 -0.3305  0.1105
  868TIP3    H124019   4.132   6.417   3.436 -0.9144 -1.5622  0.7535
  868TIP3    H224020   4.060   6.549   3.413 -0.3459 -1.4803 -0.6165
  869TIP3   OH224021   4.718   2.772   2.381 -0.1561 -0.2293  0.3706
  869TIP3    H124022   4.680   2.696   2.337 -1.3462  0.1968  0.6388
  869TIP3    H224023   4.654   2.842   2.370 -0.4305 -0.0488  2.5825
  870TIP3   OH224024   5.112   2.318   0.540  0.5505  0.0215  0.5107
  870TIP3    H124025   5.060   2.275   0.608  1.2609 -1.6633  0.0391
  870TIP3    H224026   5.193   2.344   0.584  0.8417 -0.7058  0.4171
  871TIP3   OH224027   0.757   6.502  11.278  0.5079 -0.0920  0.2989
  871TIP3    H124028   0.751   6.595  11.256  1.0273  0.2015  1.3419
  871TIP3    H224029   0.670   6.467  11.259 -0.0785  0.8912  1.1222
  872TIP3   OH224030   1.260   1.236  13.724  0.9143 -0.1617  0.1765
  872TIP3    H124031   1.275   1.247  13.630  0.1407  1.5186  0.2220
  872TIP3    H224032   1.347   1.245  13.763  1.1005  0.1348 -0.2975
  873TIP3   OH224033   6.718   5.030  14.871  0.6906 -0.1626  0.2487
  873TIP3    H124034   6.786   5.067  14.815 -0.2169  0.7577 -0.2873
  873TIP3    H224035   6.682   5.105  14.919  0.7351 -0.7881  1.2924
  874TIP3   OH224036   2.813   1.428  12.822  0.2850  0.4319  0.4245
  874TIP3    H124037   2.810   1.451  12.914  0.6890  1.2675  0.2414
  874TIP3    H224038   2.907   1.427  12.800  0.1949  0.2397  0.0268
  875TIP3   OH224039   6.571   3.982   4.106 -0.3602 -0.0741 -0.1611
  875TIP3    H124040   6.629   3.941   4.170 -0.1661 -0.0355 -0.3133
  875TIP3    H224041   6.483   3.969   4.142 -0.2831 -0.4355 -0.1000
  876TIP3   OH224042   0.778   1.069  13.203 -0.2807  0.1069  0.1387
  876TIP3    H124043   0.862   1.073  13.157 -0.3421  1.6620  0.1075
  876TIP3    H224044   0.779   0.985  13.249  1.0023 -0.1865 -0.3922
  877TIP3   OH224045   1.505   1.544  12.137  0.1426 -0.2188  0.2722
  877TIP3    H124046   1.502   1.498  12.221  1.7079 -0.1354  0.3982
  877TIP3    H224047   1.589   1.518  12.098 -0.1587  0.4387 -0.8654
  878TIP3   OH224048   4.973   5.572   1.009 -0.7345 -0.1065  0.2138
  878TIP3    H124049   4.960   5.487   1.052 -0.2655 -0.1309  0.3089
  878TIP3    H224050   4.912   5.631   1.053 -0.5414 -0.2228  0.6348
  879TIP3   OH224051   0.460   4.314  14.007  0.4349 -0.2189 -0.0552
  879TIP3    H124052   0.547   4.283  13.982 -0.0692 -0.8806 -1.0875
  879TIP3    H224053   0.456   4.404  13.975  0.5755 -0.3420 -0.4228
  880TIP3   OH224054   5.230   2.669   1.613 -0.0810 -0.4435 -0.0356
  880TIP3    H124055   5.270   2.690   1.528  1.0734 -0.1580  0.5657
  880TIP3    H224056   5.252   2.577   1.627 -1.1363 -0.7784 -0.4995
  881TIP3   OH224057   5.116   2.781   0.054  0.0634 -0.4126  0.1443
  881TIP3    H124058   5.051   2.711   0.057  1.7917 -2.0671  1.0711
  881TIP3    H224059   5.195   2.739   0.021  0.9486  1.3090 -0.0489
  882TIP3   OH224060   1.187   2.476  12.830  0.7577 -0.2795  0.2906
  882TIP3    H124061   1.234   2.401  12.793  1.2214 -0.2596  0.8271
  882TIP3    H224062   1.114   2.437  12.877  0.9551 -0.3886  0.5059
  883TIP3   OH224063   3.861   5.028   0.096 -0.5595 -0.1550  0.0924
  883TIP3    H124064   3.832   5.075   0.174 -1.1930  0.3087 -0.4115
  883TIP3    H224065   3.950   5.001   0.116 -1.1895 -1.3176  1.5558
  884TIP3   OH224066   2.728   2.961  12.624 -0.7459  0.1678 -0.1326
  884TIP3    H124067   2.813   2.929  12.596 -1.0984  0.7499 -1.9909
  884TIP3    H224068   2.675   2.882  12.635 -0.4749 -0.1057 -0.7567
  885TIP3   OH224069   4.424   5.042   3.205 -0.0645  0.2394  0.3682
  885TIP3    H124070   4.486   5.098   3.251  1.2345 -0.7387 -0.1157
  885TIP3    H224071   4.396   4.979   3.272 -1.0514  1.0582  0.7507
  886TIP3   OH224072   1.858   2.476  12.229  0.5632  0.2583 -0.4066
  886TIP3    H124073   1.894   2.411  12.290  0.8825  0.4904 -0.3422
  886TIP3    H224074   1.877   2.560  12.271 -1.5684  0.3726  0.4803
  887TIP3   OH224075   0.258   3.624  10.439 -0.4597  0.2693  0.7832
  887TIP3    H124076   0.171   3.638  10.401  0.2834 -1.2077 -1.7378
  887TIP3    H224077   0.316   3.681  10.388 -0.0480  2.4742  3.4857
  888TIP3   OH224078   0.237   3.937  13.245  0.0844  0.0869  0.5970
  888TIP3    H124079   0.159   3.931  13.190  1.0047  1.4426 -0.9490
  888TIP3    H224080   0.290   4.006  13.204  2.5462 -1.4487  0.9941
  889TIP3   OH224081   2.391   0.809  14.856  0.1175 -0.0172 -0.2320
  889TIP3    H124082   2.308   0.843  14.823  0.5287 -0.1705 -1.4560
  889TIP3    H224083   2.424   0.879  14.913 -0.3801  0.4593 -0.5115
  890TIP3   OH224084   6.586   6.638   4.749 -0.2739  0.0569  0.2102
  890TIP3    H124085   6.529   6.571   4.711 -1.8719  1.0289  0.8000
  890TIP3    H224086   6.549   6.721   4.720  1.6444  0.7358 -0.4572
  891TIP3   OH224087   2.206   3.386  12.593 -0.2477 -0.1316  0.4791
  891TIP3    H124088   2.255   3.331  12.531 -1.2825 -1.6468  0.9483
  891TIP3    H224089   2.247   3.472  12.585  2.0106 -1.1282  0.3022
  892TIP3   OH224090   1.152   6.431  13.767 -0.0903  0.1533  0.1441
  892TIP3    H124091   1.222   6.374  13.798  0.4944  0.2684 -0.9017
  892TIP3    H224092   1.083   6.371  13.739 -1.4192  0.0548  3.2371
  893TIP3   OH224093   4.552   3.384   4.884 -0.3229 -0.5239  0.8238
  893TIP3    H124094   4.607   3.311   4.853  0.3074  0.1477  0.3215
  893TIP3    H224095   4.471   3.342   4.913 -0.9529 -1.2316 -1.7188
  894TIP3   OH224096   0.094   0.638  15.028  0.2839  0.0295  0.5992
  894TIP3    H124097   0.018   0.582  15.046  1.7601 -1.7790  1.5047
  894TIP3    H224098   0.170   0.582  15.043  1.8333  1.4715 -1.3212
  895TIP3   OH224099   0.439   0.711   3.903  0.7412 -0.3574 -0.0246
  895TIP3    H124100   0.403   0.622   3.900  1.5899 -0.7038 -0.0917
  895TIP3    H224101   0.487   0.721   3.821 -0.1952  0.5457 -0.4967
  896TIP3   OH224102   5.057   4.092  10.886 -0.4863 -0.1994  0.4579
  896TIP3    H124103   5.051   4.018  10.826 -2.1445 -1.1430  1.6946
  896TIP3    H224104   5.001   4.159  10.848 -0.8079 -0.4514  0.4861
  897TIP3   OH224105   6.069   6.438   3.684  0.2189 -0.2403 -0.4261
  897TIP3    H124106   6.110   6.487   3.755  1.4362 -1.6095 -0.1366
  897TIP3    H224107   6.081   6.493   3.607 -0.6692  1.0293  0.3069
  898TIP3   OH224108   5.135   4.734  12.683 -0.0454  0.0120 -0.6088
  898TIP3    H124109   5.100   4.723  12.595 -1.3288 -0.2472 -0.1071
  898TIP3    H224110   5.081   4.803  12.722 -0.0668 -0.4494  0.2252
  899TIP3   OH224111   5.426   2.760  11.908  0.0001  0.0776 -0.0568
  899TIP3    H124112   5.514   2.730  11.933  0.1133  0.0756 -0.4463
  899TIP3    H224113   5.371   2.682  11.917  0.4372 -0.4794 -1.7851
  900TIP3   OH224114   6.440   2.417   2.412 -0.5182 -0.7633  0.4430
  900TIP3    H124115   6.534   2.401   2.407 -0.7779 -2.3293  0.0439
  900TIP3    H224116   6.427   2.500   2.367  0.7492 -0.1942  1.0849
  901TIP3   OH224117   5.369   3.519  11.341  0.7469  0.0379 -0.3346
  901TIP3    H124118   5.389   3.610  11.363 -0.6748 -0.0243  1.3827
  901TIP3    H224119   5.344   3.522  11.249  2.0787  1.1266 -0.6990
  902TIP3   OH224120   1.649   3.941   4.522 -0.2793  0.4624 -0.4841
  902TIP3    H124121   1.718   4.007   4.515  0.0014  0.4285  1.3512
  902TIP3    H224122   1.568   3.991   4.512 -0.0315  0.8852 -0.4331
  903TIP3   OH224123   0.009   3.981  16.587 -0.0365 -0.3036  0.1919
  903TIP3    H124124   0.043   4.032  16.514  1.2117  0.0605  0.9983
  903TIP3    H224125   0.004   4.043  16.660 -0.6275 -0.8126  0.6014
  904TIP3   OH224126   4.722   6.042  10.424 -0.1457 -0.0770  0.5704
  904TIP3    H124127   4.742   5.974  10.359 -0.2588  0.0312  0.4201
  904TIP3    H224128   4.628   6.030  10.441 -0.4449  0.8185 -0.3641
  905TIP3   OH224129   6.026   1.431  10.948  0.1339  0.5449  0.9434
  905TIP3    H124130   6.121   1.417  10.954  0.4906  1.6054 -1.2075
  905TIP3    H224131   6.016   1.526  10.947 -0.7077  0.4970 -0.9689
  906TIP3   OH224132   6.334   6.323   0.179 -0.0883  0.1288  0.1419
  906TIP3    H124133   6.388   6.343   0.103 -0.6114  0.9945 -0.0074
  906TIP3    H224134   6.335   6.227   0.185 -2.1502 -0.1565 -2.4924
  907TIP3   OH224135   6.214   5.872  14.565 -0.3523 -0.2561  0.3498
  907TIP3    H124136   6.308   5.876  14.579 -0.3420 -0.4738  0.3400
  907TIP3    H224137   6.202   5.808  14.496 -0.5494 -0.6571  0.7503
  908TIP3   OH224138   5.370   2.130   2.971 -0.3198  0.3889  0.1021
  908TIP3    H124139   5.439   2.195   2.963 -0.0948  0.1388  0.0036
  908TIP3    H224140   5.415   2.050   2.999 -0.1221 -0.5496 -2.6019
  909TIP3   OH224141   1.029   3.320  14.792  0.5587  0.3024  0.3019
  909TIP3    H124142   1.043   3.232  14.757 -0.5562  0.2646 -0.0772
  909TIP3    H224143   0.944   3.316  14.835  0.6207  1.1293  0.5181
  910TIP3   OH224144   6.246   4.661   3.494 -0.3683  0.1081 -1.1366
  910TIP3    H124145   6.341   4.655   3.484 -0.3743 -0.5376 -0.8493
  910TIP3    H224146   6.220   4.729   3.432  0.2660  0.1989 -1.3121
  911TIP3   OH224147   1.867   1.798  13.652 -0.2613 -0.2911  0.3083
  911TIP3    H124148   1.788   1.811  13.705  1.2791  0.8175  2.5088
  911TIP3    H224149   1.913   1.882  13.656  1.2391 -1.0282 -0.5457
  912TIP3   OH224150   6.574   5.555  15.904  0.0891 -0.0424  0.0909
  912TIP3    H124151   6.501   5.614  15.884 -0.2565 -1.2657 -2.9210
  912TIP3    H224152   6.636   5.607  15.954 -0.7323  2.5176 -1.3943
  913TIP3   OH224153   2.288   6.493  14.658 -0.1043  0.3452 -0.2486
  913TIP3    H124154   2.294   6.477  14.564 -0.3829 -0.7199 -0.0909
  913TIP3    H224155   2.338   6.574  14.671  1.1437 -0.2504 -1.1075
  914TIP3   OH224156   3.346   5.955  16.463 -0.1328  0.3105  0.3957
  914TIP3    H124157   3.381   5.971  16.551  0.1164  1.1965  0.1484
  914TIP3    H224158   3.395   6.015  16.407 -0.8513  0.3288 -0.2245
  915TIP3   OH224159   2.079   0.242   4.218 -0.0892 -0.0747 -0.0914
  915TIP3    H124160   2.156   0.288   4.185  0.2229  1.4627  2.4479
  915TIP3    H224161   2.029   0.310   4.265 -1.2017 -1.7297  1.2497
  916TIP3   OH224162   6.214   4.949  11.347 -0.5956  0.1811 -0.3905
  916TIP3    H124163   6.304   4.976  11.362 -0.9870  1.0329  0.5445
  916TIP3    H224164   6.167   5.031  11.329 -1.2124 -0.2323 -0.7016
  917TIP3   OH224165   6.693   4.745  11.959  0.4164  0.0137  1.1921
  917TIP3    H124166   6.746   4.776  11.886  0.1081 -3.2098 -0.6052
  917TIP3    H224167   6.620   4.807  11.964  0.2832  0.1834 -1.4698
  918TIP3   OH224168   1.409   6.796  15.944  0.7347 -0.6898  0.0757
  918TIP3    H124169   1.419   6.734  15.872  0.5694 -2.3399  1.4138
  918TIP3    H224170   1.329   6.844  15.924 -1.2191 -3.4355  0.7365
  919TIP3   OH224171   2.264   4.055   4.899 -0.4063  0.5294 -0.8408
  919TIP3    H124172   2.244   3.963   4.917 -0.1140  0.9044  1.9803
  919TIP3    H224173   2.291   4.090   4.984 -3.0761  3.8755 -1.1549
  920TIP3   OH224174   1.099   5.826  15.676  0.2692 -0.0411 -0.6837
  920TIP3    H124175   1.116   5.903  15.731 -0.8218  0.1006 -0.5207
  920TIP3    H224176   1.116   5.856  15.587  0.9366  0.0597 -0.5271
  921TIP3   OH224177   1.460   0.103   3.036  0.0360 -0.1319 -0.1160
  921TIP3    H124178   1.424   0.053   2.963  1.6253 -1.2275 -0.2040
  921TIP3    H224179   1.401   0.085   3.109  0.4012 -2.0002 -0.2176
  922TIP3   OH224180   1.372   0.794  10.385  0.0703  0.5860 -0.3103
  922TIP3    H124181   1.392   0.872  10.333  2.9544 -0.1878 -0.5280
  922TIP3    H224182   1.358   0.827  10.474  1.9820  1.3599 -0.2456
  923TIP3   OH224183   2.997   6.346   0.048  0.5090 -0.2446 -0.3371
  923TIP3    H124184   2.957   6.388   0.124 -0.4357  1.7976 -1.8851
  923TIP3    H224185   3.084   6.384   0.042 -0.3642  1.7182 -1.7695
  924TIP3   OH224186   2.557   0.757   1.455 -0.1317 -0.6894  0.7202
  924TIP3    H124187   2.550   0.673   1.409  0.4157 -0.4702  0.2064
  924TIP3    H224188   2.618   0.808   1.401 -0.6434  0.1241  0.8987
  925TIP3   OH224189   1.559   6.422   1.136 -0.2082  0.0174 -0.0322
  925TIP3    H124190   1.623   6.493   1.140 -1.3814  1.0677  0.9795
  925TIP3    H224191   1.552   6.391   1.227 -0.4482 -0.7184 -0.2942
  926TIP3   OH224192   0.739   5.005  11.461  0.4279  0.3053  0.1863
  926TIP3    H124193   0.822   4.958  11.452  0.6451  1.0933 -3.3472
  926TIP3    H224194   0.764   5.094  11.485  0.6917  0.6306 -1.2131
  927TIP3   OH224195   3.273   3.876  14.014  0.0239  0.3087 -0.5722
  927TIP3    H124196   3.238   3.955  13.974  0.0502  0.0002 -1.2200
  927TIP3    H224197   3.220   3.863  14.092  1.0309  1.8318  0.4162
  928TIP3   OH224198   0.925   0.228  10.854 -0.2708  0.0169  0.5138
  928TIP3    H124199   0.980   0.273  10.789  0.2369 -0.5878  0.5131
  928TIP3    H224200   0.914   0.140  10.818 -0.9462  0.0216  0.6958
  929TIP3   OH224201   4.846   1.053  10.793 -0.0230 -0.3818 -0.2621
  929TIP3    H124202   4.863   1.111  10.719  0.6548 -1.1249 -0.7056
  929TIP3    H224203   4.832   0.966  10.754  1.6788 -1.0610  0.5227
  930TIP3   OH224204   5.448   1.014  12.031  0.2977 -0.6019 -0.3969
  930TIP3    H124205   5.536   1.025  11.994 -0.0559  0.4636 -0.9495
  930TIP3    H224206   5.411   0.940  11.983  0.7483 -0.8170 -0.4260
  931TIP3   OH224207   4.254   4.260  13.015  0.0356  0.7302  0.5648
  931TIP3    H124208   4.309   4.195  12.971 -1.4533  0.5684 -1.1661
  931TIP3    H224209   4.268   4.242  13.108  0.3789 -1.4818  0.1594
  932TIP3   OH224210   5.210   4.073   5.865 -0.4543 -0.3171  0.1483
  932TIP3    H124211   5.116   4.089   5.854 -0.2283  0.2826 -1.1308
  932TIP3    H224212   5.251   4.154   5.838  0.4806 -1.0387 -0.6810
  933TIP3   OH224213   5.206   0.714  16.118 -0.3758 -0.2530  0.3101
  933TIP3    H124214   5.133   0.727  16.179  0.3723  0.7710  1.0182
  933TIP3    H224215   5.164   0.706  16.032 -1.2902  0.9505  0.6177
  934TIP3   OH224216   2.414   6.756   5.518 -0.2258  0.2069 -0.2278
  934TIP3    H124217   2.438   6.697   5.590 -0.3526  0.6241  0.1559
  934TIP3    H224218   2.469   6.727   5.445  0.3297  0.1591  0.2025
  935TIP3   OH224219   6.102   3.330   5.327 -0.0730  0.0319 -0.1447
  935TIP3    H124220   6.157   3.254   5.347  0.7067  0.6355  0.0566
  935TIP3    H224221   6.059   3.350   5.410  2.0519  1.6457  0.6469
  936TIP3   OH224222   6.180   0.182   1.644 -0.0970  0.6990 -0.3081
  936TIP3    H124223   6.232   0.221   1.573 -0.6123 -0.7425 -1.5307
  936TIP3    H224224   6.241   0.172   1.716  0.9946  0.2949 -1.2584
  937TIP3   OH224225   4.178   1.312  17.047  0.1141 -0.0530 -0.2784
  937TIP3    H124226   4.184   1.311  17.143 -0.7696 -0.6197 -0.2090
  937TIP3    H224227   4.131   1.393  17.027 -0.3687 -0.3007 -0.1712
  938TIP3   OH224228   6.107   6.511   1.255  0.3020 -0.2215  0.4833
  938TIP3    H124229   6.141   6.454   1.187  1.1922  0.0092  0.7172
  938TIP3    H224230   6.119   6.461   1.336  0.1878 -0.0927  0.5795
  939TIP3   OH224231   3.066   1.182  16.199  0.3208  0.2023  0.3141
  939TIP3    H124232   3.080   1.216  16.111 -0.2472 -0.8407 -0.1922
  939TIP3    H224233   2.971   1.170  16.206  0.3422  0.4335  1.1331
  940TIP3   OH224234   4.111   4.042  15.631  0.2307 -0.0145 -0.4611
  940TIP3    H124235   4.110   3.953  15.667  2.2187  0.0724 -0.1002
  940TIP3    H224236   4.060   4.093  15.694 -0.3886 -0.7616 -0.3360
  941TIP3   OH224237   6.544   0.563  11.104  0.7230 -0.3160 -0.1041
  941TIP3    H124238   6.598   0.642  11.103  1.3966 -0.7407  0.8900
  941TIP3    H224239   6.519   0.550  11.013 -3.8130  3.9558  0.1152
  942TIP3   OH224240   1.744   2.517  15.258 -0.3476  0.2090  0.4468
  942TIP3    H124241   1.675   2.572  15.295 -0.3651  0.2743  0.3205
  942TIP3    H224242   1.717   2.503  15.167  0.3669  1.1880  0.0603
  943TIP3   OH224243   0.390   1.082   3.275 -0.0524  0.2924 -0.3223
  943TIP3    H124244   0.483   1.069   3.293  0.0565  1.0716 -0.2859
  943TIP3    H224245   0.371   1.169   3.309 -1.5645 -1.0574  2.7395
  944TIP3   OH224246   5.406   1.835   4.959  0.0312  0.4263  0.6610
  944TIP3    H124247   5.438   1.910   5.009 -0.4540  0.1339  1.4123
  944TIP3    H224248   5.398   1.764   5.023  0.2989 -0.2243 -0.0045
  945TIP3   OH224249   4.269   5.049   2.010  0.3947  0.3990  0.1223
  945TIP3    H124250   4.234   4.964   2.035 -0.7022  0.5752 -0.7157
  945TIP3    H224251   4.196   5.110   2.025  2.1590  1.8862  4.1532
  946TIP3   OH224252   4.324   0.144   4.928 -0.4263  0.6291 -0.4098
  946TIP3    H124253   4.284   0.207   4.987  1.1348  1.3665 -0.0995
  946TIP3    H224254   4.347   0.070   4.983 -0.5367  0.5764 -0.4325
  947TIP3   OH224255   3.898   1.405   1.715 -0.2226 -0.2734 -0.4867
  947TIP3    H124256   3.934   1.474   1.770 -1.6606  0.0929  0.0328
  947TIP3    H224257   3.912   1.435   1.625  1.5944 -0.5979 -0.3634
  948TIP3   OH224258   5.924   2.935   1.806 -0.0806  0.5996  0.4876
  948TIP3    H124259   5.949   2.845   1.788 -0.2498  0.8895 -1.5033
  948TIP3    H224260   6.006   2.983   1.810 -0.0468  0.5839  0.0415
  949TIP3   OH224261   2.877   1.434  11.039  0.7825  0.3560 -0.0154
  949TIP3    H124262   2.832   1.442  11.123 -0.5922  1.9552 -0.8378
  949TIP3    H224263   2.913   1.346  11.039 -0.9674 -0.4178  1.3955
  950TIP3   OH224264   2.252   0.660  13.407 -0.0299  0.6328  0.0297
  950TIP3    H124265   2.324   0.620  13.457 -0.0391 -1.1509 -1.2741
  950TIP3    H224266   2.176   0.650  13.465  0.3853  0.6809  0.5957
  951TIP3   OH224267   6.444   2.731  14.489  0.2379 -0.0943 -0.4337
  951TIP3    H124268   6.478   2.644  14.508 -0.4186  0.1465  2.4030
  951TIP3    H224269   6.490   2.789  14.551 -1.8797  0.9395  0.2862
  952TIP3   OH224270   1.649   5.075   4.920 -0.4341  0.2851 -0.2381
  952TIP3    H124271   1.573   5.039   4.875 -0.0728  0.6236 -1.1375
  952TIP3    H224272   1.663   5.016   4.994  0.3456 -1.6652 -1.8483
  953TIP3   OH224273   4.506   6.225   3.237 -0.3079 -0.3213  0.2194
  953TIP3    H124274   4.575   6.220   3.304  0.0555  1.0321 -0.0278
  953TIP3    H224275   4.547   6.188   3.158  0.2382  0.6607  0.0184
  954TIP3   OH224276   6.174   2.777   2.037 -0.4753  0.1133  0.2495
  954TIP3    H124277   6.248   2.819   2.081  0.2623 -1.0285  0.1283
  954TIP3    H224278   6.097   2.817   2.078  0.1939  0.8744  0.8141
  955TIP3   OH224279   3.565   5.757  15.568 -0.2653  0.3319  0.4115
  955TIP3    H124280   3.589   5.797  15.485 -0.9977  0.8593  0.4358
  955TIP3    H224281   3.535   5.669  15.546 -1.3234  0.7838 -0.0100
  956TIP3   OH224282   3.751   2.816   5.309 -0.0523 -0.4666 -0.4923
  956TIP3    H124283   3.804   2.842   5.234 -1.1371  0.1388 -1.0801
  956TIP3    H224284   3.718   2.898   5.346 -0.2795 -0.8089  0.0883
  957TIP3   OH224285   2.443   0.816   4.098  0.2358 -0.5359 -0.5615
  957TIP3    H124286   2.361   0.843   4.057 -0.1499 -2.3738 -1.0800
  957TIP3    H224287   2.468   0.737   4.051  1.4123 -0.9679  0.7371
  958TIP3   OH224288   6.102   5.679   4.624  0.4545 -0.5325 -0.4629
  958TIP3    H124289   6.143   5.605   4.579  0.4750  0.1045 -1.5206
  958TIP3    H224290   6.174   5.737   4.646  0.2453  0.1400 -1.4817
  959TIP3   OH224291   0.314   3.276  15.850  0.2564 -0.4808  0.2401
  959TIP3    H124292   0.269   3.355  15.820 -0.8031 -0.8356  0.8372
  959TIP3    H224293   0.354   3.239  15.770 -3.1425 -1.8265 -1.0369
  960TIP3   OH224294   0.335   3.743  14.528 -0.0558 -0.4145 -0.1232
  960TIP3    H124295   0.333   3.708  14.617  0.4676  0.8742  0.4190
  960TIP3    H224296   0.426   3.731  14.500  0.4661  1.6578  0.5699
  961TIP3   OH224297   4.427   5.001  14.307 -0.0410  0.7117 -0.1564
  961TIP3    H124298   4.331   4.997  14.310 -0.0206 -0.9676 -0.7757
  961TIP3    H224299   4.446   5.094  14.297 -1.6893  0.8917 -2.3695
  962TIP3   OH224300   5.074   6.062   1.670  0.5349 -0.6584 -0.2722
  962TIP3    H124301   4.999   6.080   1.727  0.1912  0.1561 -0.9487
  962TIP3    H224302   5.083   5.967   1.671  0.5245 -0.6660  1.1102
  963TIP3   OH224303   0.043   0.149  17.160 -0.0388  0.3279  0.0595
  963TIP3    H124304   0.035   0.203  17.081  3.2176 -1.2317 -1.5374
  963TIP3    H224305  -0.005   0.068  17.138  3.7727 -1.6527 -2.1234
  964TIP3   OH224306   1.879   1.292   0.837 -0.1128  0.2630  0.2909
  964TIP3    H124307   1.916   1.204   0.847 -1.1526 -0.0735  1.2665
  964TIP3    H224308   1.909   1.340   0.914 -0.5034  0.4207  0.3468
  965TIP3   OH224309   2.403   2.457   6.077  0.1087  0.1505 -0.2752
  965TIP3    H124310   2.447   2.535   6.042 -1.0967  0.4091 -1.2591
  965TIP3    H224311   2.356   2.488   6.154 -0.9628  0.5771 -1.0810
  966TIP3   OH224312   5.082   1.231   2.981 -0.1704 -0.8627 -0.0611
  966TIP3    H124313   5.085   1.195   3.070 -1.3770 -1.7147 -0.3387
  966TIP3    H224314   5.002   1.194   2.943 -0.5658  0.7952 -0.9527
  967TIP3   OH224315   1.947   5.710   2.565 -0.0958 -0.1427  0.0455
  967TIP3    H124316   1.961   5.802   2.586 -3.2249  0.1324  1.4407
  967TIP3    H224317   2.025   5.665   2.600  0.9009  1.7928  0.4340
  968TIP3   OH224318   1.896   0.353   0.640 -0.5988  0.2833 -0.0347
  968TIP3    H124319   1.855   0.267   0.650  0.1768 -0.0972 -0.0238
  968TIP3    H224320   1.849   0.410   0.701 -0.4292 -0.3868  0.7420
  969TIP3   OH224321   1.778   1.152  13.904  0.3426  0.3775  0.7121
  969TIP3    H124322   1.755   1.078  13.960 -1.1510  2.5666  3.2233
  969TIP3    H224323   1.859   1.125  13.861 -0.2413 -2.7621  1.3129
  970TIP3   OH224324   4.006   5.682  13.084 -0.3940  0.1387  0.1033
  970TIP3    H124325   4.009   5.603  13.138 -3.6198  0.3477  0.7575
  970TIP3    H224326   4.050   5.656  13.003 -0.8738 -2.1714  0.5077
  971TIP3   OH224327   3.376   3.505  11.118  0.2867 -0.5939 -0.4921
  971TIP3    H124328   3.349   3.425  11.163  0.3978  0.2203  1.1127
  971TIP3    H224329   3.469   3.514  11.138  0.2966 -0.1173 -0.7311
  972TIP3   OH224330   5.291   3.818   3.889  0.6233  0.5221  0.0205
  972TIP3    H124331   5.206   3.841   3.928  0.7110  0.5657  0.1882
  972TIP3    H224332   5.306   3.728   3.916 -0.2876 -0.1642 -1.6399
  973TIP3   OH224333   1.515   0.618   0.719 -1.0944  0.7368  0.3571
  973TIP3    H124334   1.441   0.678   0.711 -0.1080  1.7173 -2.5934
  973TIP3    H224335   1.499   0.551   0.652  1.8122  2.4091 -2.2807
  974TIP3   OH224336   4.337   1.916  13.161  0.4731  0.4239 -0.4127
  974TIP3    H124337   4.266   1.852  13.163  1.6228 -0.9207  2.7420
  974TIP3    H224338   4.293   2.000  13.150 -1.1879 -0.6532 -3.0995
  975TIP3   OH224339   2.499   4.594   0.867 -0.0863  0.0875  0.1895
  975TIP3    H124340   2.486   4.532   0.795 -0.7797 -1.1832  1.3699
  975TIP3    H224341   2.416   4.640   0.875 -0.4547 -0.6997  1.0094
  976TIP3   OH224342   5.022   6.246   1.486  0.6544 -0.7056  0.6132
  976TIP3    H124343   5.050   6.199   1.564 -0.1975 -2.5811 -0.1424
  976TIP3    H224344   4.952   6.305   1.516 -0.4441 -2.2077  1.1334
  977TIP3   OH224345   3.615   3.722   2.458  0.2292  0.3018  0.0560
  977TIP3    H124346   3.543   3.786   2.459  1.3484  1.5930  0.6420
  977TIP3    H224347   3.687   3.767   2.414  1.9316  0.5035  2.8225
  978TIP3   OH224348   5.539   6.428   1.890 -0.2225  0.1056 -0.2715
  978TIP3    H124349   5.585   6.512   1.893  0.4982 -0.2506 -0.7890
  978TIP3    H224350   5.597   6.371   1.839  0.4376 -1.3959  2.0133
  979TIP3   OH224351   3.548   0.552  11.604 -0.2127  0.0263 -0.1575
  979TIP3    H124352   3.543   0.604  11.524 -0.2981 -0.1034 -0.2389
  979TIP3    H224353   3.457   0.524  11.620 -0.1704 -0.0828 -0.1066
  980TIP3   OH224354   3.573   1.499   0.911  0.2843  0.2047  0.4802
  980TIP3    H124355   3.668   1.499   0.909  0.2780  0.2401  0.1776
  980TIP3    H224356   3.549   1.589   0.932  0.3052  0.3747 -0.1886
  981TIP3   OH224357   1.788   0.243  15.039  0.4474  0.3458  0.4459
  981TIP3    H124358   1.881   0.223  15.043  1.1428  3.2224  1.9341
  981TIP3    H224359   1.766   0.271  15.128 -1.4451  1.2288 -0.2461
  982TIP3   OH224360   4.265   3.194  15.123  0.6165 -0.0726 -0.0133
  982TIP3    H124361   4.214   3.270  15.152 -2.4098 -2.3596  1.2006
  982TIP3    H224362   4.334   3.185  15.188  0.2679  0.9083  0.5164
  983TIP3   OH224363   5.220   4.542  15.640 -0.0016 -0.3817  0.2982
  983TIP3    H124364   5.294   4.481  15.645  1.4033  1.2317  0.4831
  983TIP3    H224365   5.218   4.570  15.548  0.1164  0.1452  0.4516
  984TIP3   OH224366   3.519   6.305   3.023  0.1292  0.4269 -0.3188
  984TIP3    H124367   3.564   6.355   2.955 -0.4637  0.5979 -0.5879
  984TIP3    H224368   3.474   6.372   3.075  0.8372  0.3269  0.4366
  985TIP3   OH224369   5.470   0.912  10.883  0.4087  0.1247  0.1197
  985TIP3    H124370   5.508   0.919  10.796 -1.2654  2.6239 -0.5248
  985TIP3    H224371   5.545   0.911  10.942  1.5529  1.2991 -1.2389
  986TIP3   OH224372   5.886   4.179  14.163  0.2333 -1.1867  0.4251
  986TIP3    H124373   5.827   4.166  14.088  1.3550 -0.5250 -0.6163
  986TIP3    H224374   5.974   4.177  14.124  0.7952  0.6680  1.4767
  987TIP3   OH224375   0.718   6.448   4.599  0.4047 -0.4271 -0.1111
  987TIP3    H124376   0.719   6.355   4.576  0.9263 -0.5463  0.3634
  987TIP3    H224377   0.678   6.491   4.524  2.7154 -0.7209 -1.6351
  988TIP3   OH224378   0.400   5.154  12.761 -0.4304  0.2999 -0.6133
  988TIP3    H124379   0.449   5.106  12.693  0.3989 -0.0030  0.1688
  988TIP3    H224380   0.427   5.113  12.843 -0.4948  1.4440  0.0027
  989TIP3   OH224381   4.956   0.423  15.562 -0.1507 -0.0868 -0.9170
  989TIP3    H124382   4.861   0.422  15.565 -0.1676  1.0276  1.6879
  989TIP3    H224383   4.982   0.337  15.597 -0.3244  0.9606  2.1131
  990TIP3   OH224384   0.863   6.457  11.816 -0.7039  0.0416 -0.5051
  990TIP3    H124385   0.879   6.373  11.858 -0.5489  0.5337  0.4460
  990TIP3    H224386   0.831   6.435  11.729  0.3380 -0.9993 -0.6449
  991TIP3   OH224387   2.394   4.112  15.660 -0.7908 -0.0257  0.0502
  991TIP3    H124388   2.336   4.188  15.661 -0.7006  0.0403  0.4020
  991TIP3    H224389   2.440   4.115  15.744 -0.2079 -0.0254 -0.2621
  992TIP3   OH224390   5.005   5.871  16.928  0.1369 -0.6483  0.5389
  992TIP3    H124391   4.912   5.847  16.922  0.3528 -1.2804 -0.5393
  992TIP3    H224392   5.035   5.875  16.837  0.7960  1.1073  0.7966
  993TIP3   OH224393   0.899   2.638  14.897 -0.0763 -0.2003 -0.0376
  993TIP3    H124394   0.844   2.565  14.925 -1.4945  0.4528 -1.0307
  993TIP3    H224395   0.946   2.665  14.977 -1.0793 -0.8723  0.8016
  994TIP3   OH224396   2.021   4.082  13.333 -0.3966  0.2774 -0.1732
  994TIP3    H124397   2.030   4.105  13.425 -1.7217 -2.7643  0.8217
  994TIP3    H224398   2.075   4.004  13.322 -0.2419  0.5821 -2.0262
  995TIP3   OH224399   4.226   2.435  17.083  0.2260  0.3218 -0.3684
  995TIP3    H124400   4.239   2.341  17.073  1.2172  0.4300 -0.1600
  995TIP3    H224401   4.137   2.451  17.051 -1.1431 -1.1563  2.3728
  996TIP3   OH224402   3.015   3.804  12.754 -0.4635  0.6557 -0.5092
  996TIP3    H124403   3.039   3.879  12.808 -0.2560  0.1066  0.1812
  996TIP3    H224404   3.096   3.780  12.709 -0.1977  0.0741  0.2471
  997TIP3   OH224405   1.208   5.791   4.992  0.1922 -0.5321 -0.4045
  997TIP3    H124406   1.218   5.721   4.927  0.4074 -0.6542 -0.2373
  997TIP3    H224407   1.297   5.818   5.013  0.1288 -0.6289 -0.0058
  998TIP3   OH224408   4.916   1.760   4.937  0.4197 -0.4766 -0.2855
  998TIP3    H124409   4.874   1.747   5.022 -0.2132 -0.5891 -0.6130
  998TIP3    H224410   4.844   1.763   4.874  0.7498  1.4457 -0.6131
  999TIP3   OH224411   4.946   5.870  14.019 -0.5479 -0.0951  0.2652
  999TIP3    H124412   4.907   5.948  13.981  0.2235 -0.3807 -1.1857
  999TIP3    H224413   5.000   5.833  13.949 -0.2789 -1.5011  1.1648
 1000TIP3   OH224414   0.154   0.096   4.244  0.4051  0.4317  0.0319
 1000TIP3    H124415   0.092   0.168   4.236  0.1692  0.2708  0.3801
 1000TIP3    H224416   0.208   0.119   4.319  1.0817  0.8034 -0.5649
 1001TIP3   OH224417   6.081   4.025  14.791 -0.3561 -0.0317  0.3173
 1001TIP3    H124418   6.009   4.087  14.792  1.2540  2.0821 -2.0273
 1001TIP3    H224419   6.157   4.076  14.822  0.5603 -1.5704  0.7321
 1002TIP3   OH224420   2.315   1.529   2.817  0.1106 -0.3391 -0.1871
 1002TIP3    H124421   2.398   1.558   2.854  0.3112 -2.3452  1.1056
 1002TIP3    H224422   2.335   1.505   2.727  0.6823  0.1912 -0.2043
 1003TIP3   OH224423   0.834   4.330   2.060  0.0928  0.2926  0.0052
 1003TIP3    H124424   0.817   4.240   2.035  2.0991  0.1603 -1.1434
 1003TIP3    H224425   0.767   4.351   2.125 -0.3580 -2.0361  0.3560
 1004TIP3   OH224426   0.123   6.194  13.972  1.0056 -0.0537 -0.0997
 1004TIP3    H124427   0.140   6.282  13.940  0.5913  0.3225  0.6676
 1004TIP3    H224428   0.161   6.193  14.060  0.0222 -0.2674  0.3380
 1005TIP3   OH224429   2.507   4.651  10.782  0.8004  0.0992 -0.3152
 1005TIP3    H124430   2.418   4.623  10.760  1.1161 -2.3195  1.2377
 1005TIP3    H224431   2.536   4.700  10.705 -1.7507  0.7182 -0.9669
 1006TIP3   OH224432   1.982   6.020  12.146 -0.3846  0.1041 -0.2049
 1006TIP3    H124433   1.958   6.093  12.088 -1.2084  0.3115  0.3696
 1006TIP3    H224434   1.926   5.948  12.119  2.5876 -1.4155 -2.8947
 1007TIP3   OH224435   2.886   3.287  16.853  0.1625  0.3818  0.5027
 1007TIP3    H124436   2.919   3.337  16.778 -1.1063  0.3739 -0.0958
 1007TIP3    H224437   2.825   3.224  16.815 -1.4575  1.2020  1.6269
 1008TIP3   OH224438   0.275   4.901   5.512  0.4003  0.4467  0.7597
 1008TIP3    H124439   0.271   4.909   5.608  1.8423  2.6636  0.7042
 1008TIP3    H224440   0.358   4.856   5.496 -1.6280 -3.7013  0.5552
 1009TIP3   OH224441   0.048   3.708  12.184 -0.1150  0.6227  0.2001
 1009TIP3    H124442   0.080   3.659  12.260 -0.9455 -0.8221 -0.3359
 1009TIP3    H224443  -0.044   3.683  12.177 -0.0303  0.6485 -1.3557
 1010TIP3   OH224444   0.520   2.108  14.905 -0.3355  0.3035  0.3257
 1010TIP3    H124445   0.533   2.168  14.979 -2.3340  0.4793  0.6085
 1010TIP3    H224446   0.499   2.024  14.945 -0.3959  0.1362 -0.0483
 1011TIP3   OH224447   1.926   1.958   1.691 -0.3345  0.7644 -0.6140
 1011TIP3    H124448   1.958   1.929   1.777 -0.2815 -1.4496 -1.3262
 1011TIP3    H224449   1.842   2.000   1.709 -0.2909  0.3852  0.5380
 1012TIP3   OH224450   1.645   6.315  13.833  0.2815 -0.2613 -0.5314
 1012TIP3    H124451   1.573   6.261  13.867 -0.1070  0.6197  0.0900
 1012TIP3    H224452   1.681   6.359  13.910  0.8915  0.0139 -0.9625
 1013TIP3   OH224453   5.003   1.866  12.187 -0.1516 -0.2755 -0.1530
 1013TIP3    H124454   4.991   1.831  12.099  1.2349  1.7524 -1.2258
 1013TIP3    H224455   5.074   1.814  12.225  0.9273  0.3904 -1.1912
 1014TIP3   OH224456   4.849   4.705  11.244  0.2286  0.5900  0.2852
 1014TIP3    H124457   4.784   4.663  11.300 -0.6107  1.1596 -0.2412
 1014TIP3    H224458   4.864   4.643  11.173 -1.8713  1.5745 -1.1231
 1015TIP3   OH224459   2.592   2.157   3.901 -0.3004  0.2124  0.2499
 1015TIP3    H124460   2.605   2.177   3.809  0.1494  0.2350  0.3167
 1015TIP3    H224461   2.624   2.067   3.911  0.7026  0.5977  0.6092
 1016TIP3   OH224462   2.981   2.352  15.226  0.2001  0.2650 -0.2788
 1016TIP3    H124463   3.023   2.411  15.288  2.3632  0.0012 -1.4075
 1016TIP3    H224464   3.033   2.272  15.229 -2.0951 -1.3202  0.5037
 1017TIP3   OH224465   5.509   1.517  13.211  0.8495  0.6254 -0.4628
 1017TIP3    H124466   5.551   1.602  13.218  0.3860  0.7419  1.3067
 1017TIP3    H224467   5.416   1.534  13.225  0.4051  0.1163 -2.4452
 1018TIP3   OH224468   5.089   4.150  14.088  0.5953  0.3674 -0.3370
 1018TIP3    H124469   5.144   4.132  14.164  2.4403  1.9136 -1.2304
 1018TIP3    H224470   5.144   4.131  14.013 -0.9274 -0.3578 -1.3375
 1019TIP3   OH224471   3.302   5.578   0.421  0.0727 -0.0772 -0.3187
 1019TIP3    H124472   3.386   5.533   0.411  0.0794  0.0117 -0.6692
 1019TIP3    H224473   3.326   5.668   0.447  0.0678 -0.1880  0.0831
 1020TIP3   OH224474   3.348   0.536  15.172 -0.0793  0.0284  0.1994
 1020TIP3    H124475   3.362   0.457  15.119 -0.2606  0.2737 -0.2191
 1020TIP3    H224476   3.390   0.516  15.256 -0.2209 -0.5568  0.1397
 1021TIP3   OH224477   3.493   0.300  10.895  0.0782 -0.3599  0.4245
 1021TIP3    H124478   3.549   0.315  10.971 -1.7364  1.5316  1.4921
 1021TIP3    H224479   3.480   0.386  10.856 -1.1734 -0.8999 -0.4336
 1022TIP3   OH224480   2.522   6.055  14.164  0.5753 -0.1881 -0.0303
 1022TIP3    H124481   2.587   6.089  14.102  0.5821 -0.9631 -0.4565
 1022TIP3    H224482   2.573   6.033  14.243  1.1241 -2.2108 -0.8793
 1023TIP3   OH224483   1.031   1.010  16.016  0.0428 -0.3649 -0.3999
 1023TIP3    H124484   1.065   1.091  15.978  0.3318 -0.6994 -0.8740
 1023TIP3    H224485   1.106   0.970  16.060 -0.2815 -0.0073  0.4792
 1024TIP3   OH224486   1.043   4.007   5.499 -0.8360 -0.5414  0.6287
 1024TIP3    H124487   1.093   3.970   5.426  0.0338  0.3200  0.7633
 1024TIP3    H224488   0.954   3.974   5.486 -0.7545 -0.2345 -0.9527
 1025TIP3   OH224489   5.231   4.757   2.228  0.9572 -0.4760 -0.0573
 1025TIP3    H124490   5.268   4.846   2.229  0.0555 -0.0808 -0.5546
 1025TIP3    H224491   5.162   4.761   2.162 -0.3881 -1.0089  1.2668
 1026TIP3   OH224492   2.415   1.659   5.343 -0.0602  0.0441  0.2055
 1026TIP3    H124493   2.404   1.601   5.267  0.6173 -0.9841  0.8719
 1026TIP3    H224494   2.373   1.741   5.316 -0.1817 -0.4261 -1.1274
 1027TIP3   OH224495   5.707   5.754   3.358 -0.0558  0.2148 -0.5186
 1027TIP3    H124496   5.755   5.830   3.394 -0.4428  0.0075  0.4693
 1027TIP3    H224497   5.732   5.752   3.266  1.2665  0.5633 -0.1980
 1028TIP3   OH224498   4.944   6.754   5.196 -0.3939 -0.3587  0.0516
 1028TIP3    H124499   4.885   6.826   5.218 -0.7304  0.0562 -2.0217
 1028TIP3    H224500   5.010   6.794   5.139 -0.2354 -1.5473 -0.6210
 1029TIP3   OH224501   1.090   2.081  11.900 -0.1818 -0.1213 -0.4813
 1029TIP3    H124502   1.039   2.119  11.828  0.4839 -2.4352 -2.3228
 1029TIP3    H224503   1.180   2.111  11.885 -0.3509  1.0119  0.6215
 1030TIP3   OH224504   2.818   1.961   4.344 -0.2893  0.3474  0.0569
 1030TIP3    H124505   2.794   1.891   4.404 -0.8535 -0.1572 -0.7230
 1030TIP3    H224506   2.759   1.949   4.269 -0.5899  1.8347  0.0313
 1031TIP3   OH224507   3.595   2.820  14.657  0.4137  0.0199 -0.6181
 1031TIP3    H124508   3.600   2.793  14.566 -2.0262  3.0188 -1.8344
 1031TIP3    H224509   3.677   2.867  14.673  0.9889 -0.7963 -1.1538
 1032TIP3   OH224510   5.517   0.478   4.847 -0.0768 -0.1241 -0.2649
 1032TIP3    H124511   5.489   0.516   4.764 -0.3576  1.2129  0.4296
 1032TIP3    H224512   5.612   0.487   4.847 -0.0851 -0.0374 -0.3923
 1033TIP3   OH224513   3.412   1.043   4.653 -0.4576  0.4330  0.0250
 1033TIP3    H124514   3.457   1.034   4.736  2.6339  1.4244 -1.3832
 1033TIP3    H224515   3.365   0.961   4.641  1.1550 -0.7693  1.5548
 1034TIP3   OH224516   5.808   6.546  13.288 -0.0007 -0.1056 -0.0797
 1034TIP3    H124517   5.824   6.621  13.346 -0.3336  0.5527 -0.8106
 1034TIP3    H224518   5.763   6.584  13.212 -2.8680 -1.4788  0.7931
 1035TIP3   OH224519   6.794   2.112  10.809 -0.5249 -0.0123  0.1921
 1035TIP3    H124520   6.863   2.132  10.746 -1.1866  3.5353  0.4116
 1035TIP3    H224521   6.813   2.168  10.884 -2.4407 -0.5408  1.1427
 1036TIP3   OH224522   3.013   0.507   3.452  0.2793 -0.1752 -0.2166
 1036TIP3    H124523   3.076   0.504   3.523  0.4074  1.4324 -0.2182
 1036TIP3    H224524   2.939   0.455   3.483  1.0014 -0.8546  0.3937
 1037TIP3   OH224525   0.590   5.542   1.125  0.4860 -0.0540 -0.0991
 1037TIP3    H124526   0.538   5.599   1.181  1.2103 -0.0856  0.6269
 1037TIP3    H224527   0.668   5.522   1.176  0.1647 -1.8840 -0.2303
 1038TIP3   OH224528   4.988   5.723   5.108 -0.4397 -0.1353  0.4693
 1038TIP3    H124529   5.064   5.670   5.086 -2.2285 -3.5330  1.7305
 1038TIP3    H224530   4.990   5.731   5.204 -0.6291  1.5416  0.3754
 1039TIP3   OH224531   3.194   5.466  13.556 -0.5822 -0.5462  0.4928
 1039TIP3    H124532   3.161   5.456  13.467  0.0408 -1.1034  0.3115
 1039TIP3    H224533   3.284   5.433  13.552  0.3886  1.8972  0.7293
 1040TIP3   OH224534   5.043   4.492  14.253 -0.4896 -0.2997 -0.3573
 1040TIP3    H124535   5.077   4.464  14.168  0.2909 -1.0297  0.1750
 1040TIP3    H224536   4.960   4.536  14.232 -0.5521 -0.8901 -1.4494
 1041TIP3   OH224537   6.206   3.474  12.004  0.2378  0.3432  0.0948
 1041TIP3    H124538   6.125   3.432  11.977  0.4556  1.3788 -2.5118
 1041TIP3    H224539   6.185   3.516  12.087 -0.9538 -1.8982  1.0171
 1042TIP3   OH224540   2.910   4.343   0.474  0.3739 -0.4467 -0.1262
 1042TIP3    H124541   2.872   4.430   0.488  1.2524  0.0559 -0.7402
 1042TIP3    H224542   2.916   4.335   0.379 -2.4828 -2.4543 -0.2654
 1043TIP3   OH224543   0.704   5.987   5.667  0.4924 -0.6842  0.4320
 1043TIP3    H124544   0.690   5.893   5.658 -0.5712 -0.5706  0.6766
 1043TIP3    H224545   0.662   6.025   5.589 -2.0123 -0.2246  1.8788
 1044TIP3   OH224546   4.673   2.885  12.892 -0.3330  0.4668 -0.1170
 1044TIP3    H124547   4.761   2.922  12.887  0.3021 -0.5282  2.0836
 1044TIP3    H224548   4.687   2.790  12.890 -1.6518  0.2589 -2.6451
 1045TIP3   OH224549   1.687   1.025  11.596  0.0001 -0.4982  0.1168
 1045TIP3    H124550   1.755   0.960  11.578  0.1091  0.2111 -2.3464
 1045TIP3    H224551   1.732   1.094  11.644  0.6697 -0.7212 -0.1740
 1046TIP3   OH224552   4.964   0.261   2.706 -0.4543  0.0604 -0.0233
 1046TIP3    H124553   4.904   0.299   2.770  1.0913  1.7350  0.5184
 1046TIP3    H224554   5.026   0.211   2.758  1.6440  2.5396  0.0892
 1047TIP3   OH224555   3.898   2.116   0.270 -0.4484  0.8925 -0.5583
 1047TIP3    H124556   3.942   2.051   0.325  2.8064  2.7603 -0.7045
 1047TIP3    H224557   3.943   2.198   0.289 -0.9411  2.1284 -4.0666
 1048TIP3   OH224558   5.163   3.678   5.562 -0.0806  0.5468  0.3278
 1048TIP3    H124559   5.172   3.583   5.553  1.1694  0.5527  1.1737
 1048TIP3    H224560   5.244   3.705   5.605 -1.5687  1.6525  2.5987
 1049TIP3   OH224561   4.137   5.966  15.146  0.1166  0.6523 -0.3908
 1049TIP3    H124562   4.186   6.030  15.095  0.8094 -0.4843 -1.1988
 1049TIP3    H224563   4.085   5.919  15.081 -0.9240  0.8321  0.2772
 1050TIP3   OH224564   5.463   6.394  12.898  0.0444  0.1890 -0.2943
 1050TIP3    H124565   5.402   6.376  12.969 -0.7122  1.0430 -0.6982
 1050TIP3    H224566   5.533   6.330  12.909 -0.8657 -0.7403  0.2558
 1051TIP3   OH224567   0.856   3.920   1.215 -0.3415 -0.3964  0.3627
 1051TIP3    H124568   0.835   4.011   1.193  0.2893 -0.2560  0.3052
 1051TIP3    H224569   0.796   3.868   1.162 -0.7822 -0.0116  0.4779
 1052TIP3   OH224570   1.352   0.152  15.123 -0.7168 -0.6133  0.4946
 1052TIP3    H124571   1.353   0.169  15.217 -1.9811 -0.0114  0.4162
 1052TIP3    H224572   1.400   0.226  15.085 -2.9799  0.9310  0.4500
 1053TIP3   OH224573   4.792   2.788   5.114 -0.4210  0.4423  0.0274
 1053TIP3    H124574   4.739   2.767   5.191 -1.3040  0.6855 -0.4973
 1053TIP3    H224575   4.837   2.706   5.094 -1.2176 -0.0089  0.0184
 1054TIP3   OH224576   1.748   0.761   2.257  0.4163  0.8922 -1.2091
 1054TIP3    H124577   1.709   0.741   2.172 -0.8824  0.8128 -0.6287
 1054TIP3    H224578   1.678   0.807   2.305  1.3741  1.5957 -0.4489
 1055TIP3   OH224579   0.938   0.651  14.464 -0.1494  0.6885 -0.0151
 1055TIP3    H124580   0.973   0.662  14.552  0.0525  1.0421 -0.1364
 1055TIP3    H224581   0.934   0.556  14.451  0.2655  0.6385  0.1976
 1056TIP3   OH224582   2.164   1.262   1.029  0.2276  0.1416 -0.1768
 1056TIP3    H124583   2.097   1.325   1.055 -1.3598 -1.0311 -1.2152
 1056TIP3    H224584   2.224   1.312   0.974  0.5827  1.3646  1.2683
 1057TIP3   OH224585   5.423   4.518   3.148  0.4547  0.1426 -0.2051
 1057TIP3    H124586   5.367   4.508   3.225  0.2288  0.0796 -0.3773
 1057TIP3    H224587   5.368   4.491   3.074  1.0619 -1.0286 -0.2557
 1058TIP3   OH224588   5.093   0.050  14.281 -0.0903 -0.5139  0.2290
 1058TIP3    H124589   5.171   0.006  14.313  1.2550  1.2623 -0.4829
 1058TIP3    H224590   5.024  -0.017  14.286  1.4074 -2.0701  1.0038
 1059TIP3   OH224591   3.923   0.617   3.720  1.0321  0.1965 -0.3675
 1059TIP3    H124592   3.936   0.708   3.744 -1.9893  0.7960 -0.5863
 1059TIP3    H224593   3.867   0.581   3.789  0.3124 -0.8323 -1.4433
 1060TIP3   OH224594   6.371   2.456  16.779  0.3989 -0.4837 -0.3603
 1060TIP3    H124595   6.278   2.446  16.758 -0.2495  2.3887  0.6936
 1060TIP3    H224596   6.391   2.546  16.755  2.8166 -0.8851 -0.0767
 1061TIP3   OH224597   1.183   1.944   4.677  0.4301 -0.0489 -0.6602
 1061TIP3    H124598   1.108   1.901   4.717  1.1164  1.7613  2.9165
 1061TIP3    H224599   1.245   1.873   4.659  0.1486 -1.0116  1.8429
 1062TIP3   OH224600   5.180   2.458   0.116  0.4906 -0.0446 -0.0210
 1062TIP3    H124601   5.102   2.452   0.061  0.6938 -0.6296 -0.2514
 1062TIP3    H224602   5.211   2.548   0.105 -0.9059  0.6213  1.1221
 1063TIP3   OH224603   6.502   3.449   5.403  0.7705 -0.1667  0.1959
 1063TIP3    H124604   6.422   3.491   5.374  1.0926  1.2933  1.2799
 1063TIP3    H224605   6.539   3.510   5.467  1.7355 -1.7131  1.1801
 1064TIP3   OH224606   6.414   3.683   4.544  0.2315  0.0915  0.2514
 1064TIP3    H124607   6.370   3.614   4.494  0.6251 -0.5731  0.7970
 1064TIP3    H224608   6.441   3.639   4.625  2.3726  0.3175 -0.2820
 1065TIP3   OH224609   4.695   1.408  15.945  0.1168 -0.8331 -0.3371
 1065TIP3    H124610   4.716   1.472  15.877 -2.0863 -1.7536 -2.0202
 1065TIP3    H224611   4.774   1.403  15.999  0.7415  2.4411 -0.7635
 1066TIP3   OH224612   4.659   2.710  16.396  0.0515 -0.5255 -0.3131
 1066TIP3    H124613   4.740   2.714  16.446 -0.2990 -0.0743  0.2225
 1066TIP3    H224614   4.595   2.672  16.456 -0.5635  0.7357 -0.1307
 1067TIP3   OH224615   0.380   0.945  10.592 -0.1335  0.3501  0.2152
 1067TIP3    H124616   0.405   0.927  10.501 -0.4845 -0.7613  0.3230
 1067TIP3    H224617   0.284   0.951  10.590 -0.0502  2.3210  0.1919
 1068TIP3   OH224618   2.422   0.897  15.248 -0.9084 -0.5260 -0.2689
 1068TIP3    H124619   2.356   0.883  15.316  0.2831  0.1343  1.0594
 1068TIP3    H224620   2.506   0.888  15.293 -0.0590 -1.1477 -1.8744
 1069TIP3   OH224621   6.459   6.004   2.532 -0.0508  0.4299  0.1385
 1069TIP3    H124622   6.429   5.916   2.510 -0.1045  0.4734  0.0367
 1069TIP3    H224623   6.438   6.014   2.625  2.9522 -0.8935  1.0579
 1070TIP3   OH224624   3.737   2.095   4.392  0.2162 -0.5137  0.1924
 1070TIP3    H124625   3.731   2.034   4.466  1.0628 -1.0189 -0.1408
 1070TIP3    H224626   3.746   2.181   4.433  1.7731 -0.8901  0.7096
 1071TIP3   OH224627   5.337   4.961  15.001 -0.2433 -0.2447  0.1798
 1071TIP3    H124628   5.331   4.962  14.905  0.1475 -1.8418  0.1018
 1071TIP3    H224629   5.369   5.048  15.024 -0.8768  0.3550 -1.0950
 1072TIP3   OH224630   2.494   1.921   1.990 -0.2480  0.2638 -0.2529
 1072TIP3    H124631   2.589   1.926   1.976 -0.1987 -0.1617 -0.1080
 1072TIP3    H224632   2.482   1.941   2.082 -0.0687 -1.8148  0.2731
 1073TIP3   OH224633   1.607   5.242  15.735 -0.3183 -0.2087  0.1872
 1073TIP3    H124634   1.548   5.186  15.685  1.0249 -1.7076  0.2143
 1073TIP3    H224635   1.602   5.209  15.824  2.2276 -1.9399 -0.1990
 1074TIP3   OH224636   6.020   2.248   2.764  0.2010  0.6844 -0.0441
 1074TIP3    H124637   6.105   2.209   2.786 -0.4855 -0.9744 -0.1638
 1074TIP3    H224638   6.037   2.303   2.688  1.2519  0.7554  0.2307
 1075TIP3   OH224639   2.544   2.169   4.529  0.4024 -0.5202 -0.8592
 1075TIP3    H124640   2.624   2.189   4.480  0.3016 -0.9271 -1.1996
 1075TIP3    H224641   2.473   2.185   4.466  0.1933  0.1921 -0.4456
 1076TIP3   OH224642   3.098   3.671  13.646  0.3787 -0.0103  0.1074
 1076TIP3    H124643   3.110   3.757  13.607  0.4387  0.7492  1.7236
 1076TIP3    H224644   3.036   3.685  13.718  1.2566 -1.0712  1.1189
 1077TIP3   OH224645   1.780   2.632  11.951  0.1431  0.0231  0.2223
 1077TIP3    H124646   1.791   2.725  11.968  0.4710 -0.2033  1.2782
 1077TIP3    H224647   1.838   2.589  12.013  1.3128 -0.8527 -1.3866
 1078TIP3   OH224648   0.466   4.083  13.852  0.4594 -0.6403  0.4527
 1078TIP3    H124649   0.481   4.168  13.894  2.0316  0.2188 -1.6366
 1078TIP3    H224650   0.553   4.042  13.851 -0.0557 -1.7661  0.3389
 1079TIP3   OH224651   4.580   5.093  16.280  0.0705  0.2492  0.5206
 1079TIP3    H124652   4.553   5.071  16.190 -0.7094 -0.8254  0.9882
 1079TIP3    H224653   4.502   5.078  16.333  0.0711  2.3433  1.2096
 1080TIP3   OH224654   5.761   3.720  15.479  0.0347  0.0248 -0.0119
 1080TIP3    H124655   5.685   3.755  15.432 -1.0214 -1.5956  0.4011
 1080TIP3    H224656   5.828   3.713  15.411 -0.4415  0.7104 -0.5786
 1081TIP3   OH224657   1.469   0.992  11.453  0.2733  0.6782 -0.6975
 1081TIP3    H124658   1.457   1.080  11.418 -0.2317  1.7302  1.8993
 1081TIP3    H224659   1.533   1.002  11.524 -1.3604 -0.5891  1.0680
 1082TIP3   OH224660   4.393   0.886   4.663  0.1666 -0.1051 -0.2679
 1082TIP3    H124661   4.432   0.966   4.698  0.9417 -0.3352 -0.5872
 1082TIP3    H224662   4.321   0.866   4.723  1.5856 -0.6149  1.3595
 1083TIP3   OH224663   2.321   3.958  13.806  0.3570  0.1503 -0.1483
 1083TIP3    H124664   2.339   3.924  13.894  2.2882  0.1183 -0.5275
 1083TIP3    H224665   2.278   4.042  13.821  2.9432  1.3881  0.9190
 1084TIP3   OH224666   2.394   1.966   4.667 -0.0257  0.1543 -0.1473
 1084TIP3    H124667   2.471   2.002   4.622  2.1033 -0.5289  2.6607
 1084TIP3    H224668   2.424   1.881   4.701 -1.9553 -0.0246  1.2461
 1085TIP3   OH224669   0.719   6.179  13.055  0.0342  0.1887  0.5423
 1085TIP3    H124670   0.738   6.270  13.032 -1.1787  0.2411 -0.3534
 1085TIP3    H224671   0.624   6.174  13.056  0.0827 -1.0405  0.7121
 1086TIP3   OH224672   4.288   3.864  14.521  0.2236  0.0353  0.1430
 1086TIP3    H124673   4.210   3.878  14.574 -0.2331 -0.5624 -0.3637
 1086TIP3    H224674   4.257   3.819  14.443  0.8936  0.8418 -0.6127
 1087TIP3   OH224675   3.044   0.475  13.650  0.2830  0.1509  0.3235
 1087TIP3    H124676   3.097   0.420  13.708  1.3698 -0.0296 -0.7868
 1087TIP3    H224677   3.063   0.442  13.562 -1.8994 -0.0667 -0.1166
 1088TIP3   OH224678   0.336   4.979  15.442 -0.4982 -0.5448 -0.2086
 1088TIP3    H124679   0.381   4.987  15.358  0.5864  1.4422  0.4954
 1088TIP3    H224680   0.271   5.049  15.442 -0.0844 -0.1363  0.8162
 1089TIP3   OH224681   2.556   4.045   4.264 -0.2254  0.3466  0.1501
 1089TIP3    H124682   2.600   4.048   4.349  0.1349 -0.7993  0.0220
 1089TIP3    H224683   2.522   4.134   4.252 -0.7110  0.4062  1.7042
 1090TIP3   OH224684   6.484   3.693   6.108 -0.2900  0.2995 -0.3155
 1090TIP3    H124685   6.550   3.754   6.075  0.3440  0.9786  2.0198
 1090TIP3    H224686   6.534   3.625   6.153 -1.0756 -1.1112 -1.4823
 1091TIP3   OH224687   0.482   1.495   4.143  0.0246  0.0836 -0.0377
 1091TIP3    H124688   0.544   1.488   4.071 -0.0244 -3.2113  0.0796
 1091TIP3    H224689   0.537   1.510   4.220  0.3896  0.1539 -0.3098
 1092TIP3   OH224690   3.039   5.925  13.085  0.0545 -0.1857 -0.5393
 1092TIP3    H124691   3.063   5.833  13.102  3.1872  0.5954 -0.0569
 1092TIP3    H224692   3.003   5.956  13.168  0.7640 -0.4904 -0.1067
 1093TIP3   OH224693   5.560   1.681  11.713  0.3032  0.3965  0.0805
 1093TIP3    H124694   5.615   1.627  11.770  0.3032  0.8162  0.4850
 1093TIP3    H224695   5.473   1.677  11.752 -0.3837 -1.6578 -1.5115
 1094TIP3   OH224696   4.548   6.304  13.640  0.2190 -0.2731 -0.3156
 1094TIP3    H124697   4.585   6.247  13.707 -1.2501  0.0528  0.8125
 1094TIP3    H224698   4.604   6.290  13.564  1.0535 -1.7474  0.5182
 1095TIP3   OH224699   4.407   5.734   2.358 -0.2408  0.5383 -0.3221
 1095TIP3    H124700   4.497   5.753   2.386 -0.3144 -1.3884  1.4489
 1095TIP3    H224701   4.418   5.685   2.276  0.4113 -0.4309  0.3156
 1096TIP3   OH224702   6.586   0.596   3.829  0.0886  0.2515  0.0498
 1096TIP3    H124703   6.559   0.617   3.740  1.1677  4.3206  0.4601
 1096TIP3    H224704   6.509   0.557   3.870 -1.8981  2.2829 -1.5248
 1097TIP3   OH224705   2.153   2.975  11.086 -0.1755  0.1585 -0.2823
 1097TIP3    H124706   2.181   2.949  11.174  4.3759  0.0482 -1.5317
 1097TIP3    H224707   2.162   3.070  11.085 -0.8565  0.2260 -0.4790
 1098TIP3   OH224708   6.283   4.244  10.740 -0.6980 -0.6702 -0.0873
 1098TIP3    H124709   6.284   4.221  10.833 -4.5005  2.0099  0.8531
 1098TIP3    H224710   6.329   4.327  10.735 -1.4997 -0.2306 -0.3549
 1099TIP3   OH224711   1.359   1.751  16.938  0.0645 -0.2266 -0.1517
 1099TIP3    H124712   1.291   1.760  17.005 -0.3069  0.9250 -0.6582
 1099TIP3    H224713   1.359   1.658  16.916 -1.1145 -0.2949  0.0929
 1100TIP3   OH224714   1.694   6.260  15.584  0.2234  0.2808  0.0145
 1100TIP3    H124715   1.640   6.272  15.662  0.3026 -1.9576  0.4826
 1100TIP3    H224716   1.643   6.301  15.514 -1.7914 -1.0835  0.5741
 1101TIP3   OH224717   3.963   6.024  11.031 -0.0298  0.3686 -0.6252
 1101TIP3    H124718   3.933   5.936  11.008  1.1549  0.0158 -0.8777
 1101TIP3    H224719   3.883   6.075  11.042 -0.7525 -0.9194  0.2256
 1102TIP3   OH224720   4.550   0.012  15.240 -0.3666  0.1950  0.2213
 1102TIP3    H124721   4.636   0.055  15.234 -0.3472 -0.0545 -1.7685
 1102TIP3    H224722   4.537   0.000  15.334  0.9137  1.9590  0.6860
 1103TIP3   OH224723   2.686   0.673  16.165 -0.0912 -0.3617  0.0624
 1103TIP3    H124724   2.782   0.672  16.172 -0.0611 -1.8751 -0.2744
 1103TIP3    H224725   2.669   0.688  16.072 -0.2757  2.6863  0.4678
 1104TIP3   OH224726   3.805   3.365   0.412 -0.6879  0.2701  0.6325
 1104TIP3    H124727   3.753   3.379   0.332 -0.9000 -3.2083 -0.0121
 1104TIP3    H224728   3.865   3.439   0.414 -1.3561  1.0424 -2.2136
 1105TIP3   OH224729   4.265   0.667  11.730  0.0956 -0.8037  0.3117
 1105TIP3    H124730   4.298   0.753  11.702 -2.2325 -0.9416 -3.6183
 1105TIP3    H224731   4.212   0.687  11.808  0.5920  1.1413  0.2163
 1106TIP3   OH224732   3.549   3.100  13.918 -0.0331 -0.0939  0.3514
 1106TIP3    H124733   3.503   3.072  13.997 -2.5235  0.4553 -0.8203
 1106TIP3    H224734   3.505   3.181  13.891  2.9152  1.5943  0.1779
 1107TIP3   OH224735   1.857   5.141  15.696 -0.0652  0.2853 -0.0624
 1107TIP3    H124736   1.783   5.199  15.714 -0.3425  0.2440 -1.0167
 1107TIP3    H224737   1.846   5.115  15.604  0.4595 -0.6971  0.1351
 1108TIP3   OH224738   2.052   4.454   4.693  0.5857  0.7959 -0.1026
 1108TIP3    H124739   2.111   4.393   4.737  1.9340  0.9310 -1.6616
 1108TIP3    H224740   2.009   4.401   4.625  0.9657  1.3231 -0.7603
 1109TIP3   OH224741   4.097   4.305   1.009  0.2267  0.7679  0.3908
 1109TIP3    H124742   4.154   4.352   0.947  0.0975 -1.8606 -1.9213
 1109TIP3    H224743   4.019   4.284   0.957 -0.2532 -0.8557  1.7027
 1110TIP3   OH224744   1.572   4.334  12.525 -0.0544 -0.5361  0.5748
 1110TIP3    H124745   1.650   4.307  12.477  0.3942 -0.5738  1.3126
 1110TIP3    H224746   1.534   4.404  12.473  1.2286  0.4203  0.8919
 1111TIP3   OH224747   0.093   1.453   2.166 -0.1884 -0.4413 -0.6715
 1111TIP3    H124748   0.063   1.435   2.077  0.0337  1.7391 -1.2457
 1111TIP3    H224749   0.185   1.427   2.166 -0.6146 -2.0503 -0.5265
 1112TIP3   OH224750   0.434   2.750   5.398  0.1715  0.0660 -0.3881
 1112TIP3    H124751   0.456   2.813   5.467 -2.4042 -0.6316  1.2236
 1112TIP3    H224752   0.480   2.670   5.423 -0.2374  0.0025  0.1849
 1113TIP3   OH224753   6.563   6.514   1.005 -0.6162  0.7389  0.0232
 1113TIP3    H124754   6.509   6.554   1.073  1.7224  1.5166  1.5765
 1113TIP3    H224755   6.595   6.587   0.953 -1.5650  0.2301 -1.3446
 1114TIP3   OH224756   4.482   2.455  12.225  0.0906 -0.0395  0.1532
 1114TIP3    H124757   4.480   2.546  12.196  0.5106 -0.1764 -0.3274
 1114TIP3    H224758   4.502   2.459  12.318  2.0600  0.3036 -0.2470
 1115TIP3   OH224759   5.584   6.498  10.996 -0.0877  0.6171  0.5914
 1115TIP3    H124760   5.562   6.436  10.925  1.3088 -0.2581  0.8727
 1115TIP3    H224761   5.629   6.569  10.951 -0.9958  1.0709  0.3671
 1116TIP3   OH224762   3.531   3.971   4.661 -0.4279  0.0515 -0.2237
 1116TIP3    H124763   3.523   4.067   4.661 -0.9883  0.0339  1.5599
 1116TIP3    H224764   3.625   3.956   4.652 -0.2163  0.8106  0.5516
 1117TIP3   OH224765   0.097   1.412   3.606 -0.1630 -0.4435  0.4610
 1117TIP3    H124766   0.005   1.389   3.593 -0.0164 -0.4272 -0.7806
 1117TIP3    H224767   0.120   1.461   3.527  0.3005  1.5326  1.7411
 1118TIP3   OH224768   4.365   4.279   5.805  0.5928  0.7879  0.3087
 1118TIP3    H124769   4.353   4.290   5.899 -0.8120  0.7790  0.1544
 1118TIP3    H224770   4.347   4.366   5.769  0.8766  0.7309  0.0281
 1119TIP3   OH224771   5.513   5.599   2.610 -0.1666 -0.2109  0.6607
 1119TIP3    H124772   5.471   5.610   2.696 -0.2278  0.3832  0.5538
 1119TIP3    H224773   5.440   5.592   2.549 -0.1158  0.1799  0.5551
 1120TIP3   OH224774   2.364   1.911   5.288  0.2798  0.2293 -0.0870
 1120TIP3    H124775   2.345   1.995   5.246 -0.0253  0.5613  0.6828
 1120TIP3    H224776   2.332   1.922   5.378  1.6634 -0.1666  0.4766
 1121TIP3   OH224777   1.781   5.298   2.307  0.1621 -0.2487  0.4924
 1121TIP3    H124778   1.816   5.267   2.224  1.6225  1.5728  0.3723
 1121TIP3    H224779   1.833   5.253   2.374  2.6756  2.1646  0.3173
 1122TIP3   OH224780   0.472   3.967  17.184  0.6048 -0.3976  0.1416
 1122TIP3    H124781   0.553   3.969  17.134  0.7007 -1.6308  0.2283
 1122TIP3    H224782   0.434   3.881  17.166  0.3342 -0.6443  1.6896
 1123TIP3   OH224783   1.525   4.763  16.570 -1.0237  0.4539 -0.2563
 1123TIP3    H124784   1.535   4.856  16.592 -0.6515  0.3919 -0.1454
 1123TIP3    H224785   1.537   4.759  16.475  0.1113  0.3836 -0.1334
 1124TIP3   OH224786   5.465   0.408   3.683 -0.0074  0.3024 -0.4109
 1124TIP3    H124787   5.412   0.463   3.739 -1.0491 -1.0744  0.0046
 1124TIP3    H224788   5.533   0.467   3.648  1.2757  1.0466  2.9638
 1125TIP3   OH224789   2.965   2.811  15.297 -0.3210  0.0617 -0.0097
 1125TIP3    H124790   2.883   2.773  15.266 -0.7071  1.4965 -0.8531
 1125TIP3    H224791   3.007   2.844  15.218  0.3855  0.6271  0.5896
 1126TIP3   OH224792   2.236   5.701   2.369  0.0809  0.6205  0.4598
 1126TIP3    H124793   2.197   5.643   2.435  0.6257 -0.7248 -0.3454
 1126TIP3    H224794   2.172   5.702   2.298  0.0272  1.1074  0.5127
 1127TIP3   OH224795   5.355   1.550  11.887 -0.5222 -0.2918  0.1766
 1127TIP3    H124796   5.301   1.478  11.919  0.9105 -0.7077  1.7781
 1127TIP3    H224797   5.299   1.628  11.896 -0.9434 -0.7384  1.5773
 1128TIP3   OH224798   6.752   6.448  16.201 -0.4029  0.5077  0.2795
 1128TIP3    H124799   6.706   6.479  16.280 -0.3269 -1.3177  1.0923
 1128TIP3    H224800   6.694   6.472  16.129 -0.0506  3.0677  0.7332
 1129TIP3   OH224801   1.944   2.178  15.997 -0.1393 -0.1276 -0.2578
 1129TIP3    H124802   1.986   2.141  16.075  0.7494 -0.0919 -0.7112
 1129TIP3    H224803   1.910   2.102  15.950  1.8415 -0.4645 -1.2828
 1130TIP3   OH224804   4.359   5.555  10.687 -0.5778 -0.5186 -0.8163
 1130TIP3    H124805   4.290   5.525  10.628  1.1233 -1.0244 -2.6434
 1130TIP3    H224806   4.439   5.516  10.652  0.5066 -0.9548  1.9427
 1131TIP3   OH224807   2.349   6.511   1.946  0.3402 -0.0354  0.5196
 1131TIP3    H124808   2.426   6.552   1.984  1.5252 -0.6992 -1.0545
 1131TIP3    H224809   2.355   6.419   1.973 -0.1933  0.0106  0.8136
 1132TIP3   OH224810   5.874   2.728  12.502 -0.4555  0.0210  0.2578
 1132TIP3    H124811   5.953   2.737  12.448  0.2606 -1.1602  1.0776
 1132TIP3    H224812   5.847   2.637  12.490 -1.4745  0.3035  0.3154
 1133TIP3   OH224813   3.782   5.378  13.360  0.3398  0.1903  0.7041
 1133TIP3    H124814   3.705   5.427  13.332  1.1100  1.2341  0.3669
 1133TIP3    H224815   3.750   5.289  13.374 -1.0191  0.7162  1.0345
 1134TIP3   OH224816   2.593   3.523   3.940 -0.2421 -0.3765  0.3859
 1134TIP3    H124817   2.683   3.504   3.913 -0.4566 -4.9619  1.9170
 1134TIP3    H224818   2.602   3.594   4.005  1.9006  0.7994 -1.0757
 1135TIP3   OH224819   1.538   5.305  13.298  0.3273  0.3019 -0.0952
 1135TIP3    H124820   1.583   5.357  13.230  0.4794  0.0375 -0.1985
 1135TIP3    H224821   1.454   5.349  13.310 -0.3946 -0.5591 -1.6130
 1136TIP3   OH224822   6.311   2.638   5.491  0.0043 -0.2125 -0.2341
 1136TIP3    H124823   6.393   2.677   5.522  0.6240 -2.8693  1.7762
 1136TIP3    H224824   6.278   2.700   5.426  2.3295  2.1626  0.6913
 1137TIP3   OH224825   2.268   0.504  11.480 -0.7217  0.3857 -0.0220
 1137TIP3    H124826   2.344   0.554  11.450 -0.3254 -0.1685  0.0359
 1137TIP3    H224827   2.245   0.449  11.405 -0.7815  0.2255  0.1134
 1138TIP3   OH224828   2.917   6.683  12.662 -0.0579  0.1329  0.0061
 1138TIP3    H124829   2.896   6.677  12.569  0.6341 -0.6168 -0.1095
 1138TIP3    H224830   2.847   6.738  12.698 -0.9583 -0.4667 -0.7531
 1139TIP3   OH224831   3.697   5.857  17.101 -0.5891 -0.1675  0.0250
 1139TIP3    H124832   3.674   5.770  17.135 -1.0027 -0.3193 -0.6137
 1139TIP3    H224833   3.790   5.867  17.120 -0.2722 -1.2140 -0.8588
 1140TIP3   OH224834   4.630   1.753  16.125 -0.1035  0.4622  0.2197
 1140TIP3    H124835   4.646   1.785  16.036 -0.7225  2.4672  0.7987
 1140TIP3    H224836   4.588   1.668  16.112 -0.7986  1.0164 -1.4198
 1141TIP3   OH224837   6.653   6.761   0.864 -0.3265 -0.0877 -0.0188
 1141TIP3    H124838   6.636   6.740   0.772 -0.2391 -1.2078  0.1967
 1141TIP3    H224839   6.614   6.847   0.877 -0.6947 -0.0896 -1.0040
 1142TIP3   OH224840   4.397   0.459  16.724 -0.1739  0.0838  0.2604
 1142TIP3    H124841   4.426   0.396  16.791  1.2777  0.8749  0.4192
 1142TIP3    H224842   4.354   0.528  16.774 -1.8301 -0.7741  0.0796
 1143TIP3   OH224843   3.079   2.745  15.732 -0.0511 -0.2346  0.0371
 1143TIP3    H124844   3.102   2.836  15.716 -0.4017 -0.4814 -2.0468
 1143TIP3    H224845   3.111   2.728  15.821  1.8168  1.3220 -0.2782
 1144TIP3   OH224846   5.595   6.118  12.455  0.0749  0.8297  0.0572
 1144TIP3    H124847   5.503   6.093  12.461  0.1657  0.5871  0.5591
 1144TIP3    H224848   5.608   6.178  12.529  0.6326 -0.1799  0.8090
 1145TIP3   OH224849   6.099   2.393  13.744  0.1898  0.2644  0.0937
 1145TIP3    H124850   6.072   2.309  13.707  0.2858  0.2859 -0.0244
 1145TIP3    H224851   6.028   2.453  13.722 -0.4861 -0.0744  1.2706
 1146TIP3   OH224852   5.622   0.494  15.067  0.2549  0.6763  0.1803
 1146TIP3    H124853   5.565   0.555  15.113  0.9173  0.1268  1.8309
 1146TIP3    H224854   5.704   0.543  15.055  0.6645  0.2613  1.1817
 1147TIP3   OH224855   2.236   4.707   2.759 -0.5675 -0.3922 -0.1008
 1147TIP3    H124856   2.182   4.781   2.789 -0.8441 -0.4488 -0.4519
 1147TIP3    H224857   2.211   4.635   2.817 -1.5336 -0.6611 -0.8181
 1148TIP3   OH224858   5.762   2.139  14.491 -0.1532  0.3052  0.2503
 1148TIP3    H124859   5.686   2.104  14.537 -0.7632  0.6542 -0.4731
 1148TIP3    H224860   5.836   2.121  14.550 -0.4921 -1.7203  0.1330
 1149TIP3   OH224861   1.835   3.721   1.186  0.0860 -0.1582  0.3456
 1149TIP3    H124862   1.744   3.734   1.212 -0.6882 -0.5495 -1.9299
 1149TIP3    H224863   1.854   3.630   1.209  0.2016  0.1408  1.5209
 1150TIP3   OH224864   0.507   1.298   6.100  1.0036 -0.2583  0.5987
 1150TIP3    H124865   0.483   1.208   6.124  0.6321 -0.2151  0.4040
 1150TIP3    H224866   0.447   1.320   6.028  1.0874  0.1476  0.6515
 1151TIP3   OH224867   0.666   4.106   5.985 -0.1792  0.1420  0.2868
 1151TIP3    H124868   0.602   4.055   5.936 -0.2897 -0.5911  1.1702
 1151TIP3    H224869   0.750   4.082   5.946 -0.3181  0.0353  0.0502
 1152TIP3   OH224870   0.279   2.630   0.913  0.0958  0.2400  0.1109
 1152TIP3    H124871   0.222   2.592   0.847 -0.7727  1.1780  0.2887
 1152TIP3    H224872   0.237   2.713   0.936  0.1044 -0.2495  2.1571
 1153TIP3   OH224873   5.903   6.592   1.806  0.4290 -0.2198 -0.0762
 1153TIP3    H124874   5.821   6.597   1.855  0.4628  3.7472 -0.1234
 1153TIP3    H224875   5.877   6.558   1.720 -0.6068 -1.6329  0.7383
 1154TIP3   OH224876   1.677   4.196  13.077 -0.2016 -0.4774 -0.2704
 1154TIP3    H124877   1.640   4.208  12.989 -0.3265 -0.6705 -0.2449
 1154TIP3    H224878   1.631   4.260  13.131 -1.5147 -1.6360  0.0511
 1155TIP3   OH224879   2.219   3.379   4.221 -0.2380  0.3269  0.0036
 1155TIP3    H124880   2.291   3.439   4.201 -0.0778 -0.1031 -0.7476
 1155TIP3    H224881   2.147   3.408   4.165 -0.8917  1.1614  1.2170
 1156TIP3   OH224882   0.378   5.665  11.417  0.4077  0.0378  0.2721
 1156TIP3    H124883   0.424   5.720  11.481  0.7183  1.3711 -1.0487
 1156TIP3    H224884   0.398   5.704  11.332 -1.1478 -0.8439 -0.5537
 1157TIP3   OH224885   4.735   0.954  12.005 -0.2858 -0.2912  0.0832
 1157TIP3    H124886   4.790   0.989  11.936 -0.2078  0.2881  0.4396
 1157TIP3    H224887   4.695   0.876  11.966 -0.1720 -0.0212 -0.5822
 1158TIP3   OH224888   3.424   1.057  14.978 -0.0299  1.3635  0.7243
 1158TIP3    H124889   3.395   1.146  14.958 -0.4080  1.0181 -0.3262
 1158TIP3    H224890   3.343   1.006  14.981  0.3074  0.6787 -0.7119
 1159TIP3   OH224891   2.792   0.074  15.831  0.4995 -0.1000  0.0068
 1159TIP3    H124892   2.775   0.167  15.813 -0.7912 -0.5743 -1.4955
 1159TIP3    H224893   2.730   0.051  15.900  0.3336  0.0098 -0.1025
 1160TIP3   OH224894   4.700   2.178  16.808  0.2188 -0.1812  0.2131
 1160TIP3    H124895   4.784   2.208  16.842  0.1024 -0.2808  0.5936
 1160TIP3    H224896   4.721   2.102  16.754  0.5857  0.9220 -1.2389
 1161TIP3   OH224897   2.967   1.880   4.838  0.1835 -0.0806 -0.1908
 1161TIP3    H124898   2.876   1.912   4.842  0.4551  0.7590 -0.5352
 1161TIP3    H224899   2.959   1.791   4.802 -0.5146 -0.0746 -0.0788
 1162TIP3   OH224900   4.143   6.074   5.310 -0.4910 -0.0035  0.3209
 1162TIP3    H124901   4.143   6.148   5.250  0.7236  0.5797  0.9965
 1162TIP3    H224902   4.102   6.107   5.390  2.0274  0.6946  1.4205
 1163TIP3   OH224903   3.959   6.215   2.931 -0.6507 -0.2372  0.4223
 1163TIP3    H124904   4.035   6.178   2.977 -0.1713  0.5851  0.3212
 1163TIP3    H224905   3.892   6.147   2.937  0.2039 -1.1360  0.2129
 1164TIP3   OH224906   5.226   3.046  14.078 -0.3754 -0.3061  0.1098
 1164TIP3    H124907   5.246   2.966  14.029 -2.7070 -0.3864 -0.8535
 1164TIP3    H224908   5.130   3.053  14.075 -0.2379  2.9715 -0.5994
 1165TIP3   OH224909   1.721   5.846   1.151 -0.2214  0.4767  0.4300
 1165TIP3    H124910   1.790   5.827   1.216 -0.9618  2.4735  1.8888
 1165TIP3    H224911   1.725   5.941   1.139 -2.0035  0.4953 -0.2681
 1166TIP3   OH224912   6.071   2.668   5.620  0.1072 -0.0370 -0.0352
 1166TIP3    H124913   6.090   2.758   5.646  1.2772  0.1798 -1.4572
 1166TIP3    H224914   6.155   2.635   5.588 -0.5536 -1.2706 -0.5514
 1167TIP3   OH224915   4.713   2.304   0.461  0.0904 -0.1622 -0.3816
 1167TIP3    H124916   4.776   2.278   0.393 -0.9987 -1.2916 -1.0077
 1167TIP3    H224917   4.655   2.366   0.417  0.2978  0.2938 -0.0219
 1168TIP3   OH224918   1.808   1.581   0.490  0.5057  0.2090  0.1599
 1168TIP3    H124919   1.858   1.522   0.547 -0.0505  1.8594  2.5172
 1168TIP3    H224920   1.735   1.610   0.545  0.9962  3.3916 -0.6750
 1169TIP3   OH224921   5.141   4.673   3.575  0.5723  0.3085 -0.1191
 1169TIP3    H124922   5.222   4.695   3.621 -0.0252  0.4504  0.9067
 1169TIP3    H224923   5.078   4.739   3.605 -0.7158 -1.5146  1.4418
 1170TIP3   OH224924   1.862   2.258   2.363  0.4489 -0.8331 -0.3016
 1170TIP3    H124925   1.824   2.171   2.370  1.9747 -1.8157 -2.7261
 1170TIP3    H224926   1.897   2.262   2.274  1.4703  1.8394  0.1065
 1171TIP3   OH224927   0.333   6.250   5.615 -0.0352  0.0870  0.1085
 1171TIP3    H124928   0.418   6.292   5.603  0.1889 -0.0456  1.0868
 1171TIP3    H224929   0.344   6.161   5.582  0.0375  0.2400 -0.2818
 1172TIP3   OH224930   1.199   1.784   5.420 -0.4217  0.2046 -0.0494
 1172TIP3    H124931   1.264   1.816   5.482 -0.6014  0.3016  0.0922
 1172TIP3    H224932   1.249   1.742   5.351 -0.1848  0.7061 -0.1866
 1173TIP3   OH224933   1.661   6.042  14.547 -0.5439  0.4496  0.6840
 1173TIP3    H124934   1.573   6.019  14.577 -0.5261  1.4350  1.5572
 1173TIP3    H224935   1.651   6.131  14.512 -0.4384 -0.4415 -1.7760
 1174TIP3   OH224936   3.275   4.078  10.355 -0.2634 -0.1028  0.0262
 1174TIP3    H124937   3.280   4.078  10.259 -1.1044 -1.5567 -0.0509
 1174TIP3    H224938   3.182   4.075  10.374 -0.1303  1.1486  0.9224
 1175TIP3   OH224939   5.384   2.247   1.457 -0.1777  0.8964  0.1055
 1175TIP3    H124940   5.376   2.269   1.550 -0.4323  0.9157  0.0800
 1175TIP3    H224941   5.345   2.322   1.411 -1.6706  0.1109  0.0338
 1176TIP3   OH224942   1.913   0.171   3.371 -0.5377  0.0475 -0.4708
 1176TIP3    H124943   1.964   0.112   3.426 -0.1498  3.3016  3.0608
 1176TIP3    H224944   1.837   0.119   3.344  1.9363 -3.3504 -1.5550
 1177TIP3   OH224945   3.591   4.136  11.739  0.2991  0.1094 -0.7655
 1177TIP3    H124946   3.678   4.161  11.771  0.4714 -0.1319 -1.0377
 1177TIP3    H224947   3.533   4.205  11.770  0.2383 -0.7581  1.1731
 1178TIP3   OH224948   3.054   5.070  10.966 -0.4170  0.1354 -0.4105
 1178TIP3    H124949   3.142   5.052  10.997 -0.4046 -1.6631 -1.4086
 1178TIP3    H224950   3.057   5.055  10.872 -1.8846 -0.3977 -0.4072
 1179TIP3   OH224951   2.852   3.573  12.705 -0.8595  0.3585  0.0817
 1179TIP3    H124952   2.913   3.646  12.710  1.0347 -1.2631  2.4035
 1179TIP3    H224953   2.840   3.544  12.795  0.4231 -3.6942 -0.8102
 1180TIP3   OH224954   4.912   2.526   3.778  0.4123  0.3995 -0.4454
 1180TIP3    H124955   4.825   2.486   3.787 -0.3693  1.6857 -1.7241
 1180TIP3    H224956   4.973   2.452   3.780 -0.7785 -0.6226 -0.4663
 1181TIP3   OH224957   6.666   0.109   2.141 -0.2291  0.6050 -1.0285
 1181TIP3    H124958   6.600   0.048   2.108 -0.5292  0.2899  0.0908
 1181TIP3    H224959   6.671   0.090   2.235  2.4057 -0.2696 -1.2825
 1182TIP3   OH224960   4.235   4.539  12.041 -0.2732  0.1149  0.2674
 1182TIP3    H124961   4.269   4.629  12.043 -2.1388  0.9299 -1.6774
 1182TIP3    H224962   4.140   4.549  12.045 -0.4950 -1.8498  0.8493
 1183TIP3   OH224963   3.748   6.457  14.851  0.1031 -0.3840  0.0994
 1183TIP3    H124964   3.658   6.488  14.852  0.2900  0.2044 -0.5559
 1183TIP3    H224965   3.742   6.363  14.870 -0.5450 -0.1530  1.1382
 1184TIP3   OH224966   0.327   3.586  14.142  0.5498 -0.3881 -0.3063
 1184TIP3    H124967   0.372   3.668  14.160 -0.2803 -0.2868  1.4720
 1184TIP3    H224968   0.397   3.524  14.121  1.3262  0.2944  0.2362
 1185TIP3   OH224969   5.946   4.011   1.953 -0.5990 -0.5481 -0.0076
 1185TIP3    H124970   6.032   3.991   1.917 -0.8729  1.1422 -1.7615
 1185TIP3    H224971   5.962   4.025   2.046  1.2222  0.6181 -0.4362
 1186TIP3   OH224972   1.814   1.622  14.765  0.0908 -0.5356 -0.3225
 1186TIP3    H124973   1.813   1.544  14.820 -0.2863 -1.2883 -1.3664
 1186TIP3    H224974   1.797   1.589  14.676  0.9703  0.6066 -0.9398
 1187TIP3   OH224975   5.171   3.761   6.356  0.5734  0.3457  0.2003
 1187TIP3    H124976   5.134   3.832   6.302 -0.2021  0.3485  0.7242
 1187TIP3    H224977   5.221   3.806   6.423 -0.0417  0.4112  0.6224
 1188TIP3   OH224978   4.727   1.966   4.536 -0.4600  0.4621  0.0202
 1188TIP3    H124979   4.679   1.896   4.490  1.3084  0.7065 -2.3769
 1188TIP3    H224980   4.669   2.042   4.531 -1.3570 -0.1716  0.4717
 1189TIP3   OH224981   0.432   6.713   1.350 -0.2628  0.2007 -0.1230
 1189TIP3    H124982   0.360   6.748   1.297 -0.5046  1.3494  0.9152
 1189TIP3    H224983   0.510   6.756   1.316 -0.3608  0.5975  0.1433
 1190TIP3   OH224984   4.837   0.043  13.764  0.0474  0.1065  0.0406
 1190TIP3    H124985   4.910   0.018  13.821  1.4037  1.8912 -0.7886
 1190TIP3    H224986   4.879   0.089  13.691 -1.8464  0.2541 -1.0284
 1191TIP3   OH224987   0.182   4.267   4.181  0.3491  0.0946 -0.0322
 1191TIP3    H124988   0.250   4.270   4.247  0.3691  1.6531 -0.0869
 1191TIP3    H224989   0.142   4.354   4.184  0.4035  0.2360 -2.1054
 1192TIP3   OH224990   1.807   1.928  14.997  0.0739  0.3294  0.0044
 1192TIP3    H124991   1.839   1.957  14.912 -0.4634 -2.2678 -1.1661
 1192TIP3    H224992   1.866   1.857  15.023 -0.9764 -0.2829  0.8169
 1193TIP3   OH224993   1.077   5.365  16.230  0.1321 -0.0778  0.2444
 1193TIP3    H124994   1.068   5.384  16.323  1.8632 -0.7463  0.5897
 1193TIP3    H224995   1.057   5.271  16.223 -0.9848  0.1780 -0.2433
 1194TIP3   OH224996   3.787   3.662  14.691 -0.3825  0.1566  0.0320
 1194TIP3    H124997   3.794   3.609  14.770 -1.2802  0.2200  0.1573
 1194TIP3    H224998   3.798   3.601  14.619  0.6774  0.1321  0.1905
 1195TIP3   OH224999   2.213   5.628  16.386 -0.0768 -0.1938 -0.8225
 1195TIP3    H125000   2.154   5.704  16.386  0.4210  0.2048 -1.3616
 1195TIP3    H225001   2.155   5.553  16.378 -0.5869  0.1236 -0.1833
 1196TIP3   OH225002   0.854   5.253   4.736 -0.0237  0.6638  0.1469
 1196TIP3    H125003   0.799   5.308   4.681  0.1814 -0.3247 -1.0674
 1196TIP3    H225004   0.929   5.230   4.681  0.8137  0.6604  1.2437
 1197TIP3   OH225005   6.115   3.257   4.813  0.1644 -0.3546  0.4868
 1197TIP3    H125006   6.144   3.176   4.771  3.6641  1.1036 -0.2930
 1197TIP3    H225007   6.030   3.236   4.850 -0.1469 -3.6655 -1.6959
 1198TIP3   OH225008   4.388   4.012   6.107  0.2098  0.6736  0.2682
 1198TIP3    H125009   4.310   4.066   6.107 -1.0241 -0.9745 -1.2433
 1198TIP3    H225010   4.387   3.968   6.192  0.1948  1.5814  0.7453
 1199TIP3   OH225011   5.863   1.423  16.167  0.7224 -0.2418  0.7371
 1199TIP3    H125012   5.768   1.419  16.163  0.7254 -1.2727  1.4066
 1199TIP3    H225013   5.883   1.515  16.186 -0.0543  0.3306 -1.0155
 1200TIP3   OH225014   5.007   1.041   2.327 -0.0152  0.0702  0.4436
 1200TIP3    H125015   4.913   1.047   2.347 -0.6288 -1.2202 -1.7680
 1200TIP3    H225016   5.010   1.004   2.239  2.5336  2.1182 -0.4433
 1201TIP3   OH225017   3.059   0.898  15.412  0.2866 -0.7816 -0.3167
 1201TIP3    H125018   2.991   0.934  15.355  0.8733  1.1042  0.0988
 1201TIP3    H225019   3.104   0.833  15.358  1.2421  1.3774 -2.2813
 1202TIP3   OH225020   1.330   3.670   2.380 -0.4705  0.7572  0.1024
 1202TIP3    H125021   1.272   3.737   2.344  0.2567  0.6999 -1.2109
 1202TIP3    H225022   1.351   3.613   2.306 -1.2500 -1.0987  1.2168
 1203TIP3   OH225023   5.287   1.584   0.754  0.2263  0.0319  0.2314
 1203TIP3    H125024   5.294   1.663   0.807  0.6486 -0.0968  0.3756
 1203TIP3    H225025   5.361   1.530   0.782 -0.6281 -0.8579  0.8752
 1204TIP3   OH225026   3.350   1.809  13.498 -0.0603 -0.0235  0.1177
 1204TIP3    H125027   3.413   1.786  13.566  0.5696  1.6401  0.1552
 1204TIP3    H225028   3.272   1.836  13.546 -0.0108  0.0725  0.1445
 1205TIP3   OH225029   0.117   0.261  15.834 -0.0514 -0.5017  0.1404
 1205TIP3    H125030   0.055   0.220  15.895 -0.8043  0.1046 -0.1971
 1205TIP3    H225031   0.106   0.355  15.850  0.6794 -0.3851 -0.0341
 1206TIP3   OH225032   6.791   6.391  10.229  0.2873  0.3378 -0.4348
 1206TIP3    H125033   6.836   6.382  10.313 -0.6647  2.8306  0.4401
 1206TIP3    H225034   6.698   6.401  10.252 -0.1375 -0.0049 -1.8758
 1207TIP3   OH225035   5.466   5.976  16.477  0.1886  0.0379 -0.4585
 1207TIP3    H125036   5.492   5.891  16.514  0.4397  0.8000  1.2373
 1207TIP3    H225037   5.372   5.981  16.496  0.1714  0.1343 -0.5726
 1208TIP3   OH225038   1.888   4.594  15.712 -0.1750 -0.4147  0.1649
 1208TIP3    H125039   1.825   4.587  15.784 -1.1091  1.4587 -0.4334
 1208TIP3    H225040   1.907   4.687  15.705  0.8008 -0.6871 -1.2773
 1209TIP3   OH225041   1.178   5.120   5.362 -0.4605  0.3805  0.1996
 1209TIP3    H125042   1.124   5.136   5.285  0.9791 -0.7611 -1.1033
 1209TIP3    H225043   1.225   5.202   5.376 -0.1333  0.3467 -0.6451
 1210TIP3   OH225044   6.749   1.756  13.860 -0.1265 -0.0508  0.0055
 1210TIP3    H125045   6.681   1.816  13.892 -0.6621 -0.7935  0.2647
 1210TIP3    H225046   6.706   1.706  13.791 -0.2960 -1.5658  1.1802
 1211TIP3   OH225047   3.210   1.301   0.295 -0.7780 -0.5056  0.7228
 1211TIP3    H125048   3.144   1.322   0.361 -0.0340  2.9335  0.5997
 1211TIP3    H225049   3.293   1.299   0.344 -0.3639  0.8975  0.1287
 1212TIP3   OH225050   2.679   0.997   3.548 -0.3981  0.0576  0.2794
 1212TIP3    H125051   2.698   1.004   3.642  2.0874  0.1904 -0.1617
 1212TIP3    H225052   2.701   0.906   3.526  2.2133  0.8304 -0.7042
 1213TIP3   OH225053   4.343   5.885  13.107 -0.1859  0.0281  0.6104
 1213TIP3    H125054   4.356   5.970  13.065  0.5153  0.8362  2.3578
 1213TIP3    H225055   4.412   5.881  13.174 -0.7951 -1.4997  1.1767
 1214TIP3   OH225056   6.410   3.935  10.541  0.4473 -0.1223  0.1417
 1214TIP3    H125057   6.491   3.951  10.590 -0.8708  0.7807  2.1661
 1214TIP3    H225058   6.373   3.856  10.581 -0.7449  0.7397  0.8349
 1215TIP3   OH225059   6.271   3.872  15.155 -0.4040  0.2124  0.3102
 1215TIP3    H125060   6.318   3.808  15.101 -2.1938 -1.6744  0.8391
 1215TIP3    H225061   6.321   3.876  15.237 -0.4098 -0.7425  0.3738
 1216TIP3   OH225062   6.758   4.959   0.245  0.4502 -0.5075  0.0312
 1216TIP3    H125063   6.686   4.895   0.252 -0.9466  0.9670 -0.3524
 1216TIP3    H225064   6.786   4.973   0.335  0.2311 -1.0538  0.1915
 1217TIP3   OH225065   2.917   3.178  13.512 -0.2126  0.4798 -0.2991
 1217TIP3    H125066   2.949   3.103  13.562 -0.0006  0.9043  0.2146
 1217TIP3    H225067   2.891   3.242  13.579 -0.7366  0.7233 -0.7267
 1218TIP3   OH225068   4.096   3.357  16.678 -0.1834  0.2785  0.2252
 1218TIP3    H125069   4.015   3.320  16.712  0.1024 -1.8708 -1.2264
 1218TIP3    H225070   4.165   3.296  16.706  0.5579  0.6350 -0.7268
 1219TIP3   OH225071   3.635   6.231  10.013 -0.2914  0.6609  0.1540
 1219TIP3    H125072   3.555   6.268  10.050 -0.9591  0.3327 -0.9211
 1219TIP3    H225073   3.674   6.181  10.085 -2.1104 -0.8684  0.1584
 1220TIP3   OH225074   2.095   6.784  11.409  0.1122  0.4649  0.3485
 1220TIP3    H125075   2.038   6.749  11.478 -0.8192 -0.0090 -0.6226
 1220TIP3    H225076   2.086   6.722  11.336  0.6959  1.1986 -0.3719
 1221TIP3   OH225077   5.892   3.811   3.888 -0.2733 -0.9539 -0.5610
 1221TIP3    H125078   5.851   3.833   3.971  1.8462 -0.5287  0.4331
 1221TIP3    H225079   5.935   3.891   3.860  2.6168 -2.1363  0.1350
 1222TIP3   OH225080   0.162   5.245  16.749  0.1060  0.2843  0.5072
 1222TIP3    H125081   0.211   5.263  16.668 -0.7108  1.3158  0.2226
 1222TIP3    H225082   0.199   5.305  16.813 -0.0048  0.2517  0.6023
 1223TIP3   OH225083   6.397   1.848  12.623 -0.3575  0.3136  0.1711
 1223TIP3    H125084   6.463   1.918  12.625  0.1610 -0.1721  1.8796
 1223TIP3    H225085   6.314   1.893  12.638 -0.4786  0.9311 -1.9920
 1224TIP3   OH225086   3.121   6.177  12.829  0.3368  0.2888  0.3701
 1224TIP3    H125087   3.100   6.192  12.737  1.0242  0.7271  0.2773
 1224TIP3    H225088   3.065   6.238  12.877 -0.0540  0.0298  0.2529
 1225TIP3   OH225089   2.649   2.010   5.042 -0.1588  0.0042  0.6841
 1225TIP3    H125090   2.558   2.041   5.046 -0.8738 -1.9124  0.4948
 1225TIP3    H225091   2.669   2.007   4.949  0.0431  0.2666  0.7187
 1226TIP3   OH225092   1.671   4.157   3.626 -0.0198 -0.0033  0.0636
 1226TIP3    H125093   1.589   4.110   3.607  0.8971 -2.5502  1.8830
 1226TIP3    H225094   1.681   4.217   3.552 -2.3454 -1.2427 -1.3964
 1227TIP3   OH225095   2.238   1.940   5.540 -0.1048 -0.4083 -0.0534
 1227TIP3    H125096   2.269   1.880   5.607 -0.3466  0.9086  1.2835
 1227TIP3    H225097   2.143   1.933   5.543 -0.1116 -0.5566 -0.4743
 1228TIP3   OH225098   2.456   1.555   1.830 -0.4373  0.0938 -0.2564
 1228TIP3    H125099   2.427   1.637   1.791 -1.6030  0.3245  1.0460
 1228TIP3    H225100   2.435   1.563   1.923 -0.3542 -1.5729 -0.0616
 1229TIP3   OH225101   4.394   0.626  15.415  0.7632  0.7055  0.1415
 1229TIP3    H125102   4.373   0.700  15.472  1.7577  0.1401  1.2977
 1229TIP3    H225103   4.312   0.607  15.369 -0.3874  0.5775  2.1096
 1230TIP3   OH225104   0.438   6.106  13.086 -0.0836 -0.2506 -0.0887
 1230TIP3    H125105   0.382   6.149  13.021  0.4491  0.4334 -0.1064
 1230TIP3    H225106   0.476   6.032  13.040  0.1319  0.1133 -0.5033
 1231TIP3   OH225107   2.880   6.532  14.050 -0.2475  0.5034 -0.2549
 1231TIP3    H125108   2.841   6.481  13.979 -0.2376 -0.6250  0.5143
 1231TIP3    H225109   2.974   6.527  14.034 -0.2759  0.8122 -0.5259
 1232TIP3   OH225110   1.017   4.300  16.644 -0.0118  0.2608 -0.0972
 1232TIP3    H125111   1.080   4.298  16.717 -1.3559 -1.7068  1.1012
 1232TIP3    H225112   0.953   4.366  16.670 -1.7417 -1.9462  1.7725
 1233TIP3   OH225113   3.867   5.002  13.625 -0.1713  0.5466  0.5435
 1233TIP3    H125114   3.868   5.021  13.719 -0.3281 -0.4366  0.7532
 1233TIP3    H225115   3.810   4.925  13.616 -0.1445  0.6126 -0.3542
 1234TIP3   OH225116   6.103   6.537   0.263 -0.0046  0.0391  0.5886
 1234TIP3    H125117   6.125   6.478   0.191 -1.1505  2.1898 -1.6318
 1234TIP3    H225118   6.009   6.523   0.278  0.3460 -0.8761  2.2150
 1235TIP3   OH225119   0.199   4.929  16.780 -0.0192 -0.1712 -0.0922
 1235TIP3    H125120   0.169   5.010  16.739 -0.2329 -0.9203 -1.4541
 1235TIP3    H225121   0.120   4.891  16.819  0.3473  1.0167  1.9356
 1236TIP3   OH225122   1.941   3.400  13.092 -0.2364  0.1011 -0.0803
 1236TIP3    H125123   2.020   3.350  13.110 -0.3128  0.1659  0.4304
 1236TIP3    H225124   1.959   3.488  13.125 -0.7480 -0.0452  0.5984
 1237TIP3   OH225125   6.001   3.825   1.316 -0.8423  0.0685 -0.2445
 1237TIP3    H125126   5.941   3.890   1.280 -0.9607 -0.4125 -0.9401
 1237TIP3    H225127   6.061   3.806   1.244 -0.4677 -0.1840  0.1308
 1238TIP3   OH225128   2.540   2.611   5.030 -0.4482  0.1560 -0.6311
 1238TIP3    H125129   2.617   2.661   5.003 -0.8684  0.5948 -1.0337
 1238TIP3    H225130   2.491   2.597   4.949 -0.1021 -1.3491 -0.6125
 1239TIP3   OH225131   1.700   4.317   0.417 -0.1724 -0.0243  0.3813
 1239TIP3    H125132   1.633   4.319   0.348  0.1112  2.3278  0.0923
 1239TIP3    H225133   1.661   4.365   0.490 -0.0868 -1.6454  1.5625
 1240TIP3   OH225134   6.694   0.699   4.894  0.2396  0.7463  0.4845
 1240TIP3    H125135   6.781   0.665   4.912  0.5077  0.3498 -1.3072
 1240TIP3    H225136   6.645   0.623   4.862 -0.3496  1.2343  0.2011
 1241TIP3   OH225137   0.740   5.486  15.014 -0.4783  0.6369 -0.0047
 1241TIP3    H125138   0.742   5.394  14.987  1.5060  0.7023 -0.2342
 1241TIP3    H225139   0.706   5.533  14.938  0.9911  0.3488 -0.8762
 1242TIP3   OH225140   6.707   3.669   5.265 -0.0103 -0.3205  0.5825
 1242TIP3    H125141   6.658   3.668   5.347 -0.2851 -1.1922  0.4133
 1242TIP3    H225142   6.666   3.739   5.214  0.5900  0.6797  1.4249
 1243TIP3   OH225143   1.635   2.778  12.320 -0.8438  0.3170 -0.3808
 1243TIP3    H125144   1.584   2.698  12.334 -0.6900 -0.4213 -3.3909
 1243TIP3    H225145   1.592   2.844  12.375 -0.7995 -1.8189  2.4517
 1244TIP3   OH225146   4.338   0.833  12.476 -0.1646  0.6240  0.1462
 1244TIP3    H125147   4.307   0.913  12.518 -1.4658  0.7303 -0.9270
 1244TIP3    H225148   4.364   0.861  12.388  1.0942  0.1578  0.3502
 1245TIP3   OH225149   0.639   0.963   6.070  0.0585 -0.0324 -0.3845
 1245TIP3    H125150   0.557   1.010   6.081  0.6128  0.8830 -0.0003
 1245TIP3    H225151   0.646   0.909   6.149 -0.5652 -0.7559 -0.8119
 1246TIP3   OH225152   3.493   5.467   1.440  0.3480 -0.1814  0.2732
 1246TIP3    H125153   3.467   5.375   1.451  1.0387 -0.5520 -0.9013
 1246TIP3    H225154   3.555   5.465   1.366  0.2562  1.2510  0.1315
 1247TIP3   OH225155   1.964   1.970   5.481 -0.3409  0.8962  0.0824
 1247TIP3    H125156   1.896   1.949   5.544 -0.6681  2.6016  0.3211
 1247TIP3    H225157   1.940   2.055   5.445 -0.0781  0.0789 -2.2574
 1248TIP3   OH225158   3.533   2.008  16.615 -0.7197  0.3853 -0.0321
 1248TIP3    H125159   3.553   1.914  16.615 -0.3185  0.4274 -2.0042
 1248TIP3    H225160   3.491   2.023  16.700  1.8978 -0.9585  1.6286
 1249TIP3   OH225161   0.453   4.244   0.327 -0.1736  0.1158 -0.3973
 1249TIP3    H125162   0.545   4.218   0.323 -0.2143  0.1151 -2.0978
 1249TIP3    H225163   0.410   4.176   0.379  0.5557 -0.6592 -0.7887
 1250TIP3   OH225164   6.807   3.027  17.038  0.1369 -0.6840  0.0068
 1250TIP3    H125165   6.874   3.044  16.972 -0.4790 -0.8576 -0.6924
 1250TIP3    H225166   6.852   2.980  17.108  1.3495  1.5920  0.8608
 1251TIP3   OH225167   1.536   3.971  11.770  0.3542  0.0028  0.8891
 1251TIP3    H125168   1.490   4.028  11.832  0.4906  0.7350  0.3374
 1251TIP3    H225169   1.469   3.943  11.708  0.0617 -1.3382  1.7743
 1252TIP3   OH225170   4.207   1.351   4.381  0.6514 -0.3516 -0.4938
 1252TIP3    H125171   4.270   1.289   4.419  0.6060  0.3575  0.7868
 1252TIP3    H225172   4.129   1.342   4.436 -1.2280 -2.7052 -3.2386
 1253TIP3   OH225173   4.485   4.914   5.127  0.2433  0.3151  0.4507
 1253TIP3    H125174   4.457   4.826   5.102 -0.3468 -0.2606  2.8667
 1253TIP3    H225175   4.575   4.921   5.094 -0.5535 -0.1149 -2.0983
 1254TIP3   OH225176   4.381   2.489   4.676  0.1447  0.1446 -0.2633
 1254TIP3    H125177   4.468   2.511   4.709  0.0694 -0.9028  0.6870
 1254TIP3    H225178   4.358   2.408   4.721  0.2073 -1.6485 -3.1756
 1255TIP3   OH225179   6.173   6.649  11.330  0.5238  0.1690 -0.2641
 1255TIP3    H125180   6.255   6.677  11.291  1.2013 -0.0965  0.9183
 1255TIP3    H225181   6.197   6.578  11.390 -0.5680  0.0351  0.0497
 1256TIP3   OH225182   4.604   4.418   9.834 -0.4470 -0.3364  0.0009
 1256TIP3    H125183   4.580   4.449   9.921 -1.8489  0.4300 -0.6172
 1256TIP3    H225184   4.590   4.323   9.837 -0.4619 -0.3167  0.6190
 1257TIP3   OH225185   3.052   5.353  16.823 -0.5274 -0.3478  0.0667
 1257TIP3    H125186   2.995   5.425  16.850  0.3277  0.4485 -0.1936
 1257TIP3    H225187   3.134   5.395  16.797  0.9322 -1.5943  2.3128
 1258TIP3   OH225188   4.370   4.661  13.650  0.1362  0.4499 -0.1346
 1258TIP3    H125189   4.378   4.726  13.720  0.1419  0.7886 -0.4473
 1258TIP3    H225190   4.283   4.623  13.662 -0.0973  0.9252 -0.3041
 1259TIP3   OH225191   4.127   3.641  16.107 -0.1716  0.3973  0.1724
 1259TIP3    H125192   4.195   3.601  16.161 -1.1797 -0.7673  0.6044
 1259TIP3    H225193   4.126   3.733  16.135 -0.1945 -0.0341  1.6317
 1260TIP3   OH225194   0.565   6.611  12.724  0.2083  0.2788 -0.3203
 1260TIP3    H125195   0.470   6.603  12.727  0.2457 -0.3110 -0.6769
 1260TIP3    H225196   0.588   6.602  12.632  0.5221  1.5748 -0.3913
 1261TIP3   OH225197   0.229   2.665   6.012  0.0753  0.4002  0.5513
 1261TIP3    H125198   0.138   2.662   6.041  0.5310  0.8802  2.1395
 1261TIP3    H225199   0.239   2.753   5.974 -0.4207 -0.0917 -0.7806
 1262TIP3   OH225200   1.626   4.002   1.515  0.6347 -0.4090 -0.2424
 1262TIP3    H125201   1.721   3.992   1.522  0.6878 -1.6513 -2.0598
 1262TIP3    H225202   1.591   3.930   1.567  0.6950 -0.3254 -0.0845
 1263TIP3   OH225203   4.477   2.642   3.944  0.5320  0.1050  0.1116
 1263TIP3    H125204   4.422   2.606   3.874  0.7038  0.6778 -0.3292
 1263TIP3    H225205   4.421   2.642   4.022 -0.3295  1.2786 -0.4713
 1264TIP3   OH225206   0.193   1.059  15.442  0.2980  0.3686 -0.2709
 1264TIP3    H125207   0.139   1.137  15.433 -0.8363 -0.5379 -1.7670
 1264TIP3    H225208   0.134   0.986  15.422  1.7712 -0.7595 -0.6965
 1265TIP3   OH225209   1.088   4.799  11.236 -0.2974  0.2735 -0.6298
 1265TIP3    H125210   1.162   4.739  11.244 -1.5220 -0.9802  3.1725
 1265TIP3    H225211   1.028   4.755  11.175  0.2188 -0.7924 -0.3946
 1266TIP3   OH225212   1.254   1.485  16.553  0.0778  0.3250 -0.0968
 1266TIP3    H125213   1.328   1.429  16.529 -0.5584 -0.6851  0.2289
 1266TIP3    H225214   1.185   1.461  16.491 -0.9963 -1.0186  1.5316
 1267TIP3   OH225215   3.969   1.420  14.535  0.3984 -0.4585 -0.4540
 1267TIP3    H125216   3.964   1.364  14.458 -0.3178 -0.6956 -0.2487
 1267TIP3    H225217   3.903   1.384  14.595 -1.5775  1.7515 -1.1215
 1268TIP3   OH225218   1.526   0.296   0.854 -0.3615  0.5138 -0.9735
 1268TIP3    H125219   1.604   0.242   0.855 -0.6927  0.0133  0.7572
 1268TIP3    H225220   1.548   0.372   0.908 -1.4971 -0.3239  0.7365
 1269TIP3   OH225221   3.959   6.645   5.057  0.4212  0.8710  0.9784
 1269TIP3    H125222   3.874   6.685   5.035  0.4190  0.4501  0.1781
 1269TIP3    H225223   3.937   6.580   5.125 -0.2143 -0.4679 -0.4284
 1270TIP3   OH225224   5.602   2.623  11.621 -0.1307 -0.3721  0.2301
 1270TIP3    H125225   5.677   2.624  11.561 -0.4769 -0.5125 -0.2120
 1270TIP3    H225226   5.619   2.547  11.677 -0.4213 -0.9933 -0.5011
 1271TIP3   OH225227   0.902   1.909   4.273  0.7780  0.3830 -0.1860
 1271TIP3    H125228   0.825   1.863   4.241  1.3128  0.0123 -0.9619
 1271TIP3    H225229   0.869   1.962   4.346  0.0878 -0.9276  0.4884
 1272TIP3   OH225230   6.329   1.779  12.363 -0.5197  0.2798 -0.3083
 1272TIP3    H125231   6.243   1.817  12.348 -1.2215 -1.3897 -0.7358
 1272TIP3    H225232   6.347   1.796  12.456 -0.2696  2.5994 -0.7240
 1273TIP3   OH225233   0.502   1.999   0.635 -0.1659  0.2241 -0.3191
 1273TIP3    H125234   0.446   1.927   0.664  0.4649  0.3237  1.2853
 1273TIP3    H225235   0.442   2.060   0.593 -0.9696 -0.4935 -0.2527
 1274TIP3   OH225236   4.735   1.976   3.162 -0.3705 -0.0027  0.3486
 1274TIP3    H125237   4.830   1.966   3.168 -0.4002 -0.7562 -0.3758
 1274TIP3    H225238   4.722   2.066   3.131  0.1062  0.0971  0.4387
 1275TIP3   OH225239   5.121   3.640  15.008  0.5792  0.5734 -0.2763
 1275TIP3    H125240   5.141   3.548  14.990 -0.9259  0.5528 -2.0741
 1275TIP3    H225241   5.192   3.668  15.066  1.0890 -1.6917  0.3102
 1276TIP3   OH225242   0.431   0.972  10.294 -0.0095 -0.1103 -0.1031
 1276TIP3    H125243   0.483   0.932  10.225 -1.4359 -0.1624 -1.2007
 1276TIP3    H225244   0.476   1.054  10.315  0.3115  0.0243 -1.2765
 1277TIP3   OH225245   3.954   1.421  13.083  0.5849  0.3560 -0.1050
 1277TIP3    H125246   3.970   1.347  13.024  1.4984 -0.8954  1.6212
 1277TIP3    H225247   4.029   1.479  13.070  0.2401  0.6390 -0.9240
 1278TIP3   OH225248   2.270   2.877  10.206  0.2437 -0.4709 -0.2018
 1278TIP3    H125249   2.361   2.856  10.229  0.3775 -0.4446 -0.6900
 1278TIP3    H225250   2.217   2.811  10.250  0.3142  0.8399  2.0027
 1279TIP3   OH225251   3.433   3.566   5.670  0.2691 -0.8348 -0.1096
 1279TIP3    H125252   3.403   3.619   5.596  1.6173 -0.7687 -0.6400
 1279TIP3    H225253   3.372   3.587   5.741 -0.4451 -0.1366 -0.9065
 1280TIP3   OH225254   6.336   2.906  11.975  0.1701 -0.2413  0.5183
 1280TIP3    H125255   6.284   2.894  11.896  1.0047 -0.7381  0.0327
 1280TIP3    H225256   6.281   2.959  12.032 -0.7686 -0.5671 -0.0708
 1281TIP3   OH225257   3.214   4.638  13.664  0.1340  0.4298  0.0848
 1281TIP3    H125258   3.240   4.609  13.576  3.5516  0.8556  0.8303
 1281TIP3    H225259   3.295   4.665  13.706 -1.4087  0.5466  3.3256
 1282TIP3   OH225260   2.368   6.755   0.819  0.1937  0.3332  0.0848
 1282TIP3    H125261   2.389   6.845   0.795 -2.6736  0.3412 -3.3726
 1282TIP3    H225262   2.451   6.708   0.816  1.4716  2.5052  0.1120
 1283TIP3   OH225263   3.512   0.186  15.391  0.1777  0.2503  0.3096
 1283TIP3    H125264   3.512   0.108  15.446  0.9127 -0.2706 -0.3966
 1283TIP3    H225265   3.471   0.158  15.309  2.2044 -0.0010 -0.6918
 1284TIP3   OH225266   6.771   2.185  11.493 -0.5025 -0.1541 -0.1919
 1284TIP3    H125267   6.681   2.216  11.490 -0.5375  0.0468  1.7828
 1284TIP3    H225268   6.786   2.147  11.406 -2.8972 -1.3520 -0.1594
 1285TIP3   OH225269   3.055   3.510   2.672  0.9797  0.2653  0.1952
 1285TIP3    H125270   3.036   3.591   2.626 -1.4366 -1.1599 -1.5915
 1285TIP3    H225271   3.037   3.529   2.764  0.1140  1.6846 -0.2438
 1286TIP3   OH225272   3.842   4.885  15.175  0.1185  0.6131 -0.3410
 1286TIP3    H125273   3.831   4.941  15.251  1.6312 -1.0799  1.2381
 1286TIP3    H225274   3.776   4.816  15.186 -0.0922  0.7213 -0.9126
 1287TIP3   OH225275   3.860   3.527  14.115 -0.5550 -0.0974  0.1823
 1287TIP3    H125276   3.835   3.466  14.184  0.8494  1.7568  2.4789
 1287TIP3    H225277   3.787   3.590  14.111  0.5325  1.3911  2.0615
 1288TIP3   OH225278   4.191   3.229  14.436 -0.0367 -0.2863 -0.1769
 1288TIP3    H125279   4.249   3.246  14.362  0.2175 -0.9655 -0.1458
 1288TIP3    H225280   4.244   3.249  14.513  0.1488 -0.8442 -0.1499
 1289TIP3   OH225281   5.815   5.483  11.728  0.3901  0.0629 -0.4292
 1289TIP3    H125282   5.770   5.532  11.797 -0.9314  1.0362 -1.9118
 1289TIP3    H225283   5.745   5.435  11.683  1.1250 -0.0295 -1.5107
 1290TIP3   OH225284   3.683   5.762  12.406  0.6805  0.5306 -0.0115
 1290TIP3    H125285   3.706   5.669  12.418  0.8982  0.6442  0.4948
 1290TIP3    H225286   3.711   5.782  12.317  0.1039 -0.0404 -0.3300
 1291TIP3   OH225287   0.337   4.028   0.517 -0.2216  0.5006  0.1504
 1291TIP3    H125288   0.334   3.961   0.449  0.2393  0.1612  0.4618
 1291TIP3    H225289   0.335   3.980   0.599  0.6544  0.8297  0.3785
 1292TIP3   OH225290   1.688   2.749   3.809  0.1153  0.5942 -0.5803
 1292TIP3    H125291   1.735   2.686   3.754  0.3844  0.4131 -0.1506
 1292TIP3    H225292   1.633   2.694   3.866 -0.1568  0.7795 -0.6610
 1293TIP3   OH225293   4.487   4.165   0.836  0.2339 -0.2759  0.2480
 1293TIP3    H125294   4.425   4.238   0.829  1.2665  0.5806 -0.3675
 1293TIP3    H225295   4.572   4.208   0.848  0.5868 -1.4313  2.3766
 1294TIP3   OH225296   6.334   6.320  15.670 -0.6948  0.0044 -0.3810
 1294TIP3    H125297   6.331   6.312  15.574 -1.1498  0.2578 -0.3879
 1294TIP3    H225298   6.388   6.246  15.698 -0.5334 -0.0555 -0.8352
 1295TIP3   OH225299   1.465   3.692  10.995 -0.0311  0.6526  0.4488
 1295TIP3    H125300   1.548   3.690  10.947 -0.7672  0.7034 -0.8886
 1295TIP3    H225301   1.467   3.773  11.045  0.4197  1.0174 -0.1536
 1296TIP3   OH225302   0.645   1.778  16.067 -0.1450  0.2931 -0.6556
 1296TIP3    H125303   0.664   1.841  16.137  1.0067  0.7446 -1.3446
 1296TIP3    H225304   0.560   1.805  16.032  0.1800  1.2708 -0.7230
 1297TIP3   OH225305   4.407   1.044   3.668  0.1982 -0.4913  0.4617
 1297TIP3    H125306   4.415   1.065   3.761  1.8325 -0.4176  0.3326
 1297TIP3    H225307   4.322   1.078   3.642  0.3712  0.8572  1.5882
 1298TIP3   OH225308   1.927   1.428  16.387  0.2471 -0.3048 -0.0413
 1298TIP3    H125309   2.015   1.402  16.360 -1.0119 -3.5767 -1.6094
 1298TIP3    H225310   1.924   1.410  16.481  1.2656 -0.0670  0.0487
 1299TIP3   OH225311   0.544   1.926  16.805  0.0451 -0.4558 -0.1905
 1299TIP3    H125312   0.591   1.948  16.885  0.5256  0.6968 -0.7538
 1299TIP3    H225313   0.524   2.011  16.765 -0.9798 -0.9823 -0.8415
 1300TIP3   OH225314   0.660   4.632  14.236 -0.5486 -0.2398 -0.3556
 1300TIP3    H125315   0.669   4.556  14.294 -0.3058  0.2700  0.2929
 1300TIP3    H225316   0.732   4.690  14.262 -0.9141  0.3462 -0.6337
 1301TIP3   OH225317   6.066   1.705   1.058 -0.6662 -0.3769 -0.4304
 1301TIP3    H125318   6.077   1.687   1.151 -0.0925  1.1597 -0.1674
 1301TIP3    H225319   6.064   1.800   1.052 -0.1910 -0.4329 -2.0506
 1302TIP3   OH225320   5.233   3.974  13.584 -0.1591 -0.4643 -0.1120
 1302TIP3    H125321   5.193   3.913  13.522  0.2932  1.4484 -2.4479
 1302TIP3    H225322   5.322   3.940  13.596  0.0908 -0.3097 -1.3877
 1303TIP3   OH225323   3.680   3.887   1.712 -0.4283 -0.5325 -0.3168
 1303TIP3    H125324   3.596   3.933   1.715  0.0274  0.2885  0.2720
 1303TIP3    H225325   3.699   3.878   1.618 -0.2113  1.1082 -0.4618
 1304TIP3   OH225326   0.668   5.946   1.933  0.4495  0.3910  0.3526
 1304TIP3    H125327   0.709   5.880   1.877  0.4956  0.6267  0.1027
 1304TIP3    H225328   0.574   5.926   1.929  0.6534 -1.2397  2.3394
 1305TIP3   OH225329   0.917   5.324  12.297 -0.0742  0.1004  0.2315
 1305TIP3    H125330   0.990   5.296  12.242 -0.7001 -1.4077  0.1324
 1305TIP3    H225331   0.852   5.358  12.235 -1.0919 -2.2883 -0.1193
 1306TIP3   OH225332   1.255   2.508  14.809  0.0197 -0.1782 -0.2710
 1306TIP3    H125333   1.334   2.502  14.862  1.6107  1.5193 -2.2617
 1306TIP3    H225334   1.245   2.602  14.791 -2.1238 -0.4075 -0.6132
 1307TIP3   OH225335   2.210   4.335  15.722 -0.3064 -0.5391  0.5179
 1307TIP3    H125336   2.117   4.314  15.728 -0.6363  0.4308 -0.7044
 1307TIP3    H225337   2.214   4.429  15.737  0.1546 -0.1365 -1.7862
 1308TIP3   OH225338   5.587   2.489   0.233  0.2572  0.0755  0.3352
 1308TIP3    H125339   5.559   2.460   0.146  0.7040  2.1194 -0.5622
 1308TIP3    H225340   5.533   2.566   0.250  1.1725  0.5355  1.2247
 1309TIP3   OH225341   1.772   3.749   3.359 -0.0162  0.7358  0.0357
 1309TIP3    H125342   1.849   3.728   3.306 -1.0024 -0.2415 -1.0547
 1309TIP3    H225343   1.723   3.667   3.364 -0.6503  1.1613  1.3142
 1310TIP3   OH225344   6.588   4.891  11.035  0.0330 -0.0209  0.0817
 1310TIP3    H125345   6.621   4.919  10.949  1.1260 -0.8929  0.1904
 1310TIP3    H225346   6.626   4.953  11.097  1.4857 -0.9548  0.1948
 1311TIP3   OH225347   0.059   1.986  13.676 -0.2563  0.0715  0.4240
 1311TIP3    H125348   0.061   1.890  13.681  0.2050  0.1058  1.0435
 1311TIP3    H225349   0.046   2.015  13.766 -0.0110  0.5972  0.2972
 1312TIP3   OH225350   1.466   2.859   0.971 -0.3187  0.0872 -0.9536
 1312TIP3    H125351   1.558   2.836   0.975 -0.3339 -0.0254 -1.2259
 1312TIP3    H225352   1.465   2.947   0.933 -0.2190  0.8471  0.7282
 1313TIP3   OH225353   2.888   4.376  16.909 -0.1972  0.8750 -0.1422
 1313TIP3    H125354   2.952   4.306  16.899  0.9615  2.0635 -1.3638
 1313TIP3    H225355   2.911   4.419  16.992 -0.7108  0.0454  0.4462
 1314TIP3   OH225356   5.239   3.927  16.707 -0.1716  0.4348 -0.1587
 1314TIP3    H125357   5.229   3.972  16.623 -2.3850 -0.5321 -0.4833
 1314TIP3    H225358   5.214   3.836  16.689  0.0031  0.0434  1.4003
 1315TIP3   OH225359   3.581   3.060   5.471 -0.3775  0.0428  0.0851
 1315TIP3    H125360   3.493   3.066   5.433 -0.3935  1.4910  0.3241
 1315TIP3    H225361   3.640   3.068   5.396 -0.4072 -1.7440 -0.1896
 1316TIP3   OH225362   0.905   4.228   0.285  0.2963  0.7024 -0.4174
 1316TIP3    H125363   0.813   4.221   0.307  0.5329 -0.3927  0.3156
 1316TIP3    H225364   0.929   4.317   0.308 -0.7320  1.2296 -1.2927
 1317TIP3   OH225365   4.972   4.057  16.758 -0.0325 -0.7252 -0.3079
 1317TIP3    H125366   4.996   4.026  16.845  0.1129 -0.4313 -0.2418
 1317TIP3    H225367   4.978   3.980  16.702  0.7408 -0.7264 -0.2277
 1318TIP3   OH225368   2.757   6.347  15.521 -0.2930  0.0096  0.6299
 1318TIP3    H125369   2.746   6.368  15.428  0.0111 -1.5024  0.2121
 1318TIP3    H225370   2.807   6.420  15.557 -3.0169  2.1505  0.3382
 1319TIP3   OH225371   4.772   3.692  16.246  0.1222  0.5579 -0.2278
 1319TIP3    H125372   4.832   3.719  16.176  0.8027  0.3986  0.2772
 1319TIP3    H225373   4.686   3.722  16.218  0.1501 -0.6956 -1.8014
 1320TIP3   OH225374   0.006   6.259  15.557  0.0767 -0.0914  0.4651
 1320TIP3    H125375   0.081   6.294  15.508  0.6494 -0.7451  0.8620
 1320TIP3    H225376  -0.063   6.324  15.544  0.4078  0.0393 -0.7040
 1321TIP3   OH225377   0.925   4.722  13.803 -0.7723  0.3142 -0.0459
 1321TIP3    H125378   0.868   4.771  13.862 -1.4217  0.3094 -0.6459
 1321TIP3    H225379   0.934   4.778  13.726 -0.4468  0.0569 -0.1992
 1322TIP3   OH225380   1.809   4.529   1.499 -0.2077 -0.1575 -0.4637
 1322TIP3    H125381   1.766   4.543   1.414  0.2481  0.0984 -0.6509
 1322TIP3    H225382   1.751   4.467   1.544  0.5559 -1.8921 -1.7278
 1323TIP3   OH225383   6.595   1.693  10.479 -0.0692 -0.4405  1.0414
 1323TIP3    H125384   6.683   1.728  10.493 -0.1493  0.2869 -0.1185
 1323TIP3    H225385   6.538   1.749  10.533 -0.0989  0.7503 -0.1677
 1324TIP3   OH225386   4.135   5.370  10.993 -0.0800  0.1024  0.2179
 1324TIP3    H125387   4.094   5.381  10.907  0.3370 -0.4312 -0.0527
 1324TIP3    H225388   4.135   5.458  11.031 -2.2674  0.0081  0.5998
 1325TIP3   OH225389   0.798   4.072  14.209 -0.1361  0.0919 -0.2631
 1325TIP3    H125390   0.703   4.069  14.210 -0.1271 -1.5191  1.6582
 1325TIP3    H225391   0.826   3.981  14.215  1.5548  0.5194 -0.7967
 1326TIP3   OH225392   6.613   0.877   1.506  0.1671 -0.0871  0.5609
 1326TIP3    H125393   6.624   0.791   1.546 -2.3804 -0.4454  0.6715
 1326TIP3    H225394   6.637   0.939   1.575  0.0741 -0.7163  1.1704
 1327TIP3   OH225395   6.549   2.832   4.101 -0.5793 -0.0413  0.0456
 1327TIP3    H125396   6.552   2.848   4.007  0.4794 -1.6872 -0.2530
 1327TIP3    H225397   6.614   2.892   4.137 -0.5423  0.1576 -0.3396
 1328TIP3   OH225398   4.945   2.554   1.218 -0.1805 -0.3277 -0.1220
 1328TIP3    H125399   4.968   2.524   1.306  1.5454 -0.1695 -0.4771
 1328TIP3    H225400   4.870   2.612   1.231 -0.5271 -1.0182  1.1299
 1329TIP3   OH225401   4.782   4.740   5.669 -0.8166 -0.4868 -0.2497
 1329TIP3    H125402   4.687   4.742   5.666 -0.8848 -2.0259 -0.1316
 1329TIP3    H225403   4.803   4.735   5.763 -0.7876 -3.0280 -0.3098
 1330TIP3   OH225404   5.380   1.150  16.334 -0.1313 -0.3394 -0.1008
 1330TIP3    H125405   5.313   1.138  16.401 -0.4330  0.0592 -0.3270
 1330TIP3    H225406   5.339   1.205  16.268  0.1184 -0.8274 -0.6796
 1331TIP3   OH225407   4.725   1.630  16.698 -0.1763 -0.4696  0.3174
 1331TIP3    H125408   4.639   1.670  16.709 -0.3827 -0.1074 -2.0732
 1331TIP3    H225409   4.709   1.536  16.707 -0.2709 -0.2881  2.6465
 1332TIP3   OH225410   5.261   1.639  13.529 -0.0292  0.7719  0.0902
 1332TIP3    H125411   5.319   1.622  13.455  0.1086 -2.1090  0.7555
 1332TIP3    H225412   5.315   1.688  13.591  0.8379  0.4524 -0.4032
 1333TIP3   OH225413   0.836   4.303  15.259  0.1386 -0.2659 -0.2720
 1333TIP3    H125414   0.893   4.266  15.326 -1.0430 -1.3076  0.2093
 1333TIP3    H225415   0.785   4.229  15.227 -0.5945  0.5415 -1.0352
 1334TIP3   OH225416   2.879   4.015  13.485 -0.0511 -0.1742 -0.2231
 1334TIP3    H125417   2.792   4.014  13.524  0.5521 -1.9963  1.2577
 1334TIP3    H225418   2.865   3.989  13.394 -1.2553  1.8126 -0.6519
 1335TIP3   OH225419   2.213   4.168   2.681  0.1476 -0.4143 -0.1165
 1335TIP3    H125420   2.124   4.133   2.692  0.0630 -0.8976 -2.0214
 1335TIP3    H225421   2.211   4.251   2.728 -1.3530 -0.3724 -0.1878
 1336TIP3   OH225422   4.839   1.212  14.579 -0.1714 -0.5887 -0.1010
 1336TIP3    H125423   4.846   1.117  14.586 -1.2107 -0.6895 -0.2565
 1336TIP3    H225424   4.915   1.238  14.528 -0.5725 -1.4952 -1.1999
 1337TIP3   OH225425   3.614   1.632   3.892 -0.5782  0.5819 -0.3342
 1337TIP3    H125426   3.529   1.610   3.853 -0.2488  0.7575 -1.1727
 1337TIP3    H225427   3.678   1.614   3.822  0.4357 -2.3727  1.1584
 1338TIP3   OH225428   4.696   0.845  16.676 -0.7377 -0.4233 -0.8064
 1338TIP3    H125429   4.752   0.875  16.604 -1.0624  0.7767 -0.5968
 1338TIP3    H225430   4.757   0.818  16.745 -0.4180 -2.1621 -1.7229
 1339TIP3   OH225431   3.399   4.897  10.976 -0.5686 -0.3307  0.2607
 1339TIP3    H125432   3.462   4.903  10.904 -0.8747 -0.1090  0.0083
 1339TIP3    H225433   3.447   4.855  11.047 -0.3420 -0.8037 -0.1654
 1340TIP3   OH225434   4.496   4.746   3.127 -0.3317 -0.3058 -0.0161
 1340TIP3    H125435   4.484   4.682   3.198  0.2521 -0.7204 -0.2872
 1340TIP3    H225436   4.525   4.825   3.172 -2.8496  0.3929  0.5460
 1341TIP3   OH225437   2.451   3.181  12.168 -0.3962 -0.3522  0.9043
 1341TIP3    H125438   2.425   3.089  12.167  0.1851 -0.5664 -1.7257
 1341TIP3    H225439   2.533   3.183  12.118 -2.4800  2.0450 -2.9160
 1342TIP3   OH225440   5.311   6.582   2.033  0.2255  0.1374  0.1925
 1342TIP3    H125441   5.398   6.547   2.051  0.4614  0.9843  0.8243
 1342TIP3    H225442   5.294   6.641   2.107 -1.3629 -0.8545  0.6710
 1343TIP3   OH225443   1.638   5.788   2.087 -0.8075 -0.0631  0.3220
 1343TIP3    H125444   1.662   5.697   2.107 -1.0939  0.1326  1.6590
 1343TIP3    H225445   1.698   5.840   2.140  0.0938  0.5775 -1.2800
 1344TIP3   OH225446   3.396   2.871  15.852 -0.4383 -0.6422 -0.7899
 1344TIP3    H125447   3.337   2.946  15.842 -0.2577 -0.5459 -1.1750
 1344TIP3    H225448   3.358   2.819  15.923 -0.9977 -0.5971 -1.0517
 1345TIP3   OH225449   2.565   2.595   4.444 -0.0734 -0.2384  0.2353
 1345TIP3    H125450   2.588   2.545   4.522 -1.4122  1.6891  1.9847
 1345TIP3    H225451   2.509   2.536   4.394 -1.0936 -0.7622  1.9016
 1346TIP3   OH225452   4.753   5.453   3.557 -0.4973 -0.8060 -0.8198
 1346TIP3    H125453   4.716   5.539   3.574 -1.8549 -1.3269 -1.0527
 1346TIP3    H225454   4.797   5.461   3.473 -0.1337 -0.1992 -0.5760
 1347TIP3   OH225455   5.450   0.657  14.667  0.0458 -0.1149 -0.1074
 1347TIP3    H125456   5.370   0.638  14.619 -0.8562  1.4170  0.6837
 1347TIP3    H225457   5.521   0.624  14.612 -1.0391  0.1097 -1.6852
 1348TIP3   OH225458   4.707   5.228  16.976  0.1346  0.1112 -0.0944
 1348TIP3    H125459   4.685   5.175  17.053  0.9484  0.0746  0.1225
 1348TIP3    H225460   4.646   5.200  16.909 -0.2274 -0.2506  0.3795
 1349TIP3   OH225461   1.959   3.323   1.812 -0.1251  0.1997  0.3970
 1349TIP3    H125462   1.998   3.311   1.725  0.2660  0.3181  0.5580
 1349TIP3    H225463   1.949   3.417   1.821  0.2986  0.2192  0.6851
 1350TIP3   OH225464   6.792   5.058   2.272  0.4792 -0.4184  0.0753
 1350TIP3    H125465   6.825   5.076   2.361  2.0584 -1.6950 -0.2084
 1350TIP3    H225466   6.776   5.145   2.235  3.3332  0.3497  0.3693
 1351TIP3   OH225467   6.499   5.138   3.482 -0.1680  0.1628  0.3979
 1351TIP3    H125468   6.431   5.071   3.479 -0.7766  0.7859 -1.7004
 1351TIP3    H225469   6.462   5.208   3.535 -1.6592  0.9136 -1.5077
 1352TIP3   OH225470   4.679   6.360  16.604  0.3697  0.0172 -0.4706
 1352TIP3    H125471   4.736   6.318  16.668 -1.9148 -1.4606  0.7527
 1352TIP3    H225472   4.728   6.359  16.522  1.5388 -2.4537  0.1819
 1353TIP3   OH225473   4.594   3.221  15.933  0.4310  0.3033 -0.2557
 1353TIP3    H125474   4.689   3.210  15.945  0.9197 -2.5911 -4.4793
 1353TIP3    H225475   4.586   3.283  15.860 -0.9912  0.6610  0.1721
 1354TIP3   OH225476   4.988   2.461  15.721 -0.0741  0.0176  0.5659
 1354TIP3    H125477   5.025   2.436  15.636 -2.0755 -0.4990 -0.2074
 1354TIP3    H225478   4.948   2.381  15.755 -0.6138  0.5734  1.2846
 1355TIP3   OH225479   3.951   5.514   1.877 -0.3391 -0.5357  0.3373
 1355TIP3    H125480   3.866   5.471   1.884 -0.2002 -1.2468 -1.5603
 1355TIP3    H225481   3.941   5.575   1.804  0.5916 -0.1956  0.4812
 1356TIP3   OH225482   2.295   6.424  13.586 -0.2629 -0.7642 -0.4327
 1356TIP3    H125483   2.287   6.438  13.680  0.4340 -1.7537 -0.2056
 1356TIP3    H225484   2.208   6.394  13.559 -0.0414 -2.0322  0.2044
 1357TIP3   OH225485   5.024   0.113   4.769  0.4770 -0.4375  0.3675
 1357TIP3    H125486   5.103   0.058   4.765  1.2928  0.4488  2.8403
 1357TIP3    H225487   4.961   0.061   4.819  0.0908 -0.4135 -0.0809
 1358TIP3   OH225488   2.168   1.719   3.452  0.0880  0.6476 -0.3340
 1358TIP3    H125489   2.185   1.784   3.521 -0.5992  1.3979 -0.8478
 1358TIP3    H225490   2.240   1.731   3.390  1.5045 -0.9935  0.8963
 1359TIP3   OH225491   6.724   0.800  13.385  0.0642 -0.5247 -0.4442
 1359TIP3    H125492   6.748   0.785  13.293  4.4501  0.0996  0.3764
 1359TIP3    H225493   6.689   0.717  13.415  0.3920 -1.3421 -2.1970
 1360TIP3   OH225494   5.428   0.682  15.065 -0.4220  0.3205  0.6750
 1360TIP3    H125495   5.366   0.613  15.040  1.2151 -1.4514  1.2474
 1360TIP3    H225496   5.451   0.724  14.982 -1.2057 -0.0588  0.2569
 1361TIP3   OH225497   5.783   2.795  16.737 -0.2602 -0.0789  0.2706
 1361TIP3    H125498   5.818   2.721  16.788 -0.6980 -0.6542 -0.2464
 1361TIP3    H225499   5.848   2.864  16.747  2.0886 -1.7372 -2.3153
 1362TIP3   OH225500   6.395   4.138  14.150 -0.0940 -0.0857  0.2688
 1362TIP3    H125501   6.304   4.117  14.170 -0.4565  0.4212 -0.7768
 1362TIP3    H225502   6.393   4.231  14.126  0.6351 -0.1578 -0.0985
 1363TIP3   OH225503   3.701   2.536   1.383  0.2891  0.1185 -0.3150
 1363TIP3    H125504   3.647   2.469   1.342 -1.5058  1.4264 -0.1979
 1363TIP3    H225505   3.642   2.610   1.397  2.0088  1.4660  0.2474
 1364TIP3   OH225506   3.961   3.078   3.618  0.1748  0.0348 -0.4223
 1364TIP3    H125507   3.893   3.127   3.572 -0.5556 -0.6225 -0.0684
 1364TIP3    H225508   3.982   3.131   3.694  0.0427  0.2242 -0.5179
 1365TIP3   OH225509   5.665   6.237  12.900 -0.1325 -0.4021 -0.1833
 1365TIP3    H125510   5.728   6.238  12.828  0.1428  0.2543  0.0558
 1365TIP3    H225511   5.651   6.145  12.919  0.8461 -0.5515 -0.1604
 1366TIP3   OH225512   0.607   2.175   5.116 -0.0450 -0.5057 -0.0372
 1366TIP3    H125513   0.639   2.107   5.057  0.3203 -0.4790  0.1320
 1366TIP3    H225514   0.542   2.223   5.064  1.8634  0.9647 -1.1953
 1367TIP3   OH225515   5.919   5.369   0.857 -0.2380  0.5237 -0.5542
 1367TIP3    H125516   5.843   5.381   0.914 -1.5500  1.4934 -2.4090
 1367TIP3    H225517   5.977   5.310   0.906 -2.0321  0.0021  1.0507
 1368TIP3   OH225518   1.991   3.607   1.855 -0.4350 -0.1446  0.0877
 1368TIP3    H125519   2.073   3.656   1.854 -0.8033  0.4828 -0.5036
 1368TIP3    H225520   1.941   3.643   1.782 -2.0523  0.8826  1.6322
 1369TIP3   OH225521   3.745   5.652  16.175  0.2731  0.7138  0.2745
 1369TIP3    H125522   3.730   5.708  16.251  1.5787  0.2480  0.9151
 1369TIP3    H225523   3.838   5.662  16.156  0.5777 -1.2472  0.4568
 1370TIP3   OH225524   5.459   1.255   6.248 -0.0211  0.0660 -0.9937
 1370TIP3    H125525   5.451   1.334   6.193 -0.7963 -1.4818 -3.2621
 1370TIP3    H225526   5.405   1.274   6.325  0.9623  2.2724 -0.7733
 1371TIP3   OH225527   3.647   2.201   2.505  0.2138  0.2101 -0.0939
 1371TIP3    H125528   3.668   2.197   2.412  2.5331  2.1454  0.2412
 1371TIP3    H225529   3.709   2.141   2.547  1.3771  1.6716  0.4004
 1372TIP3   OH225530   3.324   5.100  13.584 -0.1712  0.2313  0.5940
 1372TIP3    H125531   3.392   5.165  13.600 -0.3160  0.4488  0.3379
 1372TIP3    H225532   3.262   5.112  13.657 -0.3032  0.5253  0.4397
 1373TIP3   OH225533   4.880   5.720   3.393 -0.0658 -0.1823 -0.3613
 1373TIP3    H125534   4.841   5.738   3.307  0.0682 -2.9095 -1.0990
 1373TIP3    H225535   4.860   5.797   3.445 -1.8259  0.7652 -2.2791
 1374TIP3   OH225536   6.684   0.229   1.490 -0.3092  0.0111 -0.4886
 1374TIP3    H125537   6.749   0.174   1.446  0.0081  0.2530 -0.3225
 1374TIP3    H225538   6.685   0.311   1.440 -1.9046 -0.6638 -1.7156
 1375TIP3   OH225539   5.471   0.666  12.617  0.2517  0.1341  0.3206
 1375TIP3    H125540   5.461   0.758  12.593  3.1470  0.7167  0.8900
 1375TIP3    H225541   5.475   0.666  12.713 -4.0091 -1.2484  0.6796
 1376TIP3   OH225542   0.401   4.884  15.840 -0.0570 -0.2925 -0.3117
 1376TIP3    H125543   0.401   4.800  15.795  2.8356 -1.1437  1.0848
 1376TIP3    H225544   0.475   4.932  15.803 -0.0076  0.5298  0.7989
 1377TIP3   OH225545   1.653   1.999   1.708 -0.6390  0.3649  0.1884
 1377TIP3    H125546   1.623   1.913   1.678 -0.8220  0.1236  1.0289
 1377TIP3    H225547   1.582   2.058   1.683  0.3534  0.6385 -2.1717
 1378TIP3   OH225548   0.543   2.563  14.480 -0.9864 -0.1360 -0.2219
 1378TIP3    H125549   0.566   2.479  14.441 -0.0142  0.5673 -1.2562
 1378TIP3    H225550   0.449   2.570  14.468 -1.3119 -1.6737  1.1616
 1379TIP3   OH225551   0.645   4.541   1.328  0.2584 -0.2513  0.6284
 1379TIP3    H125552   0.712   4.506   1.387 -0.6300 -1.8028  0.7629
 1379TIP3    H225553   0.620   4.467   1.274 -0.7709  0.5141  0.0289
 1380TIP3   OH225554   2.695   6.610   3.455  0.0506 -0.0610 -0.8575
 1380TIP3    H125555   2.605   6.584   3.471  0.2329 -0.0594  0.2582
 1380TIP3    H225556   2.707   6.689   3.508  1.2998 -1.2209  0.6915
 1381TIP3   OH225557   0.471   0.158  16.891  0.2833 -0.1550 -0.6460
 1381TIP3    H125558   0.479   0.253  16.897 -2.2310  0.0420  3.4854
 1381TIP3    H225559   0.378   0.143  16.870  0.1433 -1.6106  0.7989
 1382TIP3   OH225560   6.485   5.559  11.112  0.2311 -0.0886 -0.2528
 1382TIP3    H125561   6.573   5.578  11.078 -0.4582  0.8189 -1.6113
 1382TIP3    H225562   6.432   5.545  11.034 -1.0930  0.5246  0.5020
 1383TIP3   OH225563   0.984   0.059  15.356  0.2280 -0.2348 -0.1778
 1383TIP3    H125564   0.954   0.105  15.278 -1.9684 -0.6491  0.3728
 1383TIP3    H225565   1.010  -0.028  15.325 -2.6280 -1.1501 -0.2374
 1384TIP3   OH225566   4.966   0.363   5.983  0.1327  0.5615 -0.3129
 1384TIP3    H125567   5.029   0.359   6.055 -0.7674  2.3253  0.6429
 1384TIP3    H225568   4.986   0.445   5.938 -0.1306  0.0915 -1.3128
 1385TIP3   OH225569   4.649   4.502   2.360  0.5248 -0.3527  0.2047
 1385TIP3    H125570   4.690   4.459   2.435  0.2337  1.0064  1.1856
 1385TIP3    H225571   4.578   4.554   2.398 -0.0092 -0.0983 -1.0899
 1386TIP3   OH225572   4.564   6.754  16.887  0.4326  1.0226 -0.3524
 1386TIP3    H125573   4.617   6.676  16.875  0.7550  1.3639 -1.2429
 1386TIP3    H225574   4.601   6.818  16.826 -0.9397  1.3020 -0.9388
 1387TIP3   OH225575   4.831   1.633  13.051 -0.8033 -0.2233 -0.3132
 1387TIP3    H125576   4.823   1.709  12.995 -1.8311 -0.4949 -0.5509
 1387TIP3    H225577   4.759   1.576  13.026 -1.7607 -0.0360  1.7534
 1388TIP3   OH225578   5.487   1.285   5.662 -0.2689  0.2514  0.4269
 1388TIP3    H125579   5.411   1.322   5.617  0.7531  0.4512 -1.2242
 1388TIP3    H225580   5.503   1.345   5.735 -1.0928  0.7577  0.2052
 1389TIP3   OH225581   2.377   5.686   4.349 -0.4006 -0.4067 -0.4194
 1389TIP3    H125582   2.295   5.637   4.334  0.1021 -1.7523  0.9882
 1389TIP3    H225583   2.404   5.660   4.437  0.4964  1.6038 -0.0523
 1390TIP3   OH225584   3.655   3.969   2.758 -0.1435 -0.5658 -0.1821
 1390TIP3    H125585   3.749   3.951   2.752  0.3305  1.5525 -0.0407
 1390TIP3    H225586   3.628   3.928   2.840  0.5609 -1.4937 -0.3912
 1391TIP3   OH225587   2.038   2.507   0.270 -0.0895 -0.3507 -0.2473
 1391TIP3    H125588   2.128   2.496   0.300 -0.2179  1.1130  0.8123
 1391TIP3    H225589   1.985   2.487   0.347 -0.7356 -1.8244 -1.0354
 1392TIP3   OH225590   6.041   0.112   3.933 -0.0326 -0.0962 -0.8483
 1392TIP3    H125591   6.119   0.121   3.988 -1.3996 -1.2591  1.4372
 1392TIP3    H225592   6.073   0.076   3.851  1.6991 -1.9875  0.5621
 1393TIP3   OH225593   6.237   5.265  11.859 -0.3920  0.1767  0.1591
 1393TIP3    H125594   6.212   5.354  11.835  0.0180  0.9102  2.2119
 1393TIP3    H225595   6.178   5.242  11.932  1.6500  0.1290  1.9059
 1394TIP3   OH225596   5.819   1.564  15.743 -0.3821 -0.3017  0.4629
 1394TIP3    H125597   5.899   1.578  15.795 -0.7835 -0.1197  1.0448
 1394TIP3    H225598   5.799   1.650  15.708 -0.4962 -0.2815  0.5768
 1395TIP3   OH225599   5.092   0.723   0.789 -0.3330  0.3014  0.2377
 1395TIP3    H125600   5.163   0.733   0.725  1.0891 -0.7602  1.5748
 1395TIP3    H225601   5.035   0.798   0.772 -0.4137 -0.2935 -2.7133
 1396TIP3   OH225602   0.674   4.335   5.600 -0.4525  0.0346  0.2681
 1396TIP3    H125603   0.642   4.252   5.636 -1.0633 -0.2610 -0.8881
 1396TIP3    H225604   0.753   4.354   5.651 -0.5275 -1.0430  0.8360
 1397TIP3   OH225605   5.252   4.832  12.344 -0.1049 -0.1135 -0.2620
 1397TIP3    H125606   5.254   4.897  12.413 -1.9778 -1.2222  0.9182
 1397TIP3    H225607   5.272   4.881  12.264 -0.1792  1.6355  0.7527
 1398TIP3   OH225608   2.891   2.509  16.399  0.1292  0.4899  0.0994
 1398TIP3    H125609   2.812   2.514  16.453  0.9142 -0.5405  1.4388
 1398TIP3    H225610   2.933   2.427  16.427  0.7833  0.1124 -1.8352
 1399TIP3   OH225611   1.345   5.761   1.743  0.0759  0.1004  0.4791
 1399TIP3    H125612   1.406   5.797   1.679 -0.1916 -1.2013 -0.5625
 1399TIP3    H225613   1.358   5.666   1.738 -1.7094 -0.1913  0.5330
 1400TIP3   OH225614   4.217   3.979  10.961 -0.4250 -0.0576 -0.3190
 1400TIP3    H125615   4.122   3.996  10.963 -0.5182 -0.6249  0.2803
 1400TIP3    H225616   4.227   3.894  11.003  0.3369 -0.1009 -0.5753
 1401TIP3   OH225617   2.581   1.665  16.544 -0.2765 -0.3149 -0.4171
 1401TIP3    H125618   2.559   1.731  16.479 -0.1878 -0.4950 -0.6349
 1401TIP3    H225619   2.675   1.678  16.560 -0.2472 -0.4206 -0.5001
 1402TIP3   OH225620   6.113   6.600  12.040  0.0614  0.1513 -0.0712
 1402TIP3    H125621   6.131   6.635  12.127  0.4934 -1.0116  0.3228
 1402TIP3    H225622   6.182   6.638  11.985  0.2711  0.2582  0.2571
 1403TIP3   OH225623   1.670   4.063  16.753  0.6136  0.4400 -0.1468
 1403TIP3    H125624   1.709   4.085  16.669  1.4543  0.9381  0.3534
 1403TIP3    H225625   1.672   4.145  16.803 -2.3267  0.8610 -0.5255
 1404TIP3   OH225626   4.728   3.716   0.992  0.1576 -0.3427 -0.0865
 1404TIP3    H125627   4.821   3.694   0.996 -0.1304 -1.5753  0.1257
 1404TIP3    H225628   4.691   3.677   1.071 -0.5973 -0.1192 -0.3211
 1405TIP3   OH225629   2.330   5.616  13.456 -0.0881 -0.1621  0.0946
 1405TIP3    H125630   2.333   5.592  13.363  0.5842  0.1691  0.0254
 1405TIP3    H225631   2.291   5.541  13.499  0.5870 -0.7689 -0.3245
 1406TIP3   OH225632   4.679   1.189  13.070  0.0564  0.8666 -0.7134
 1406TIP3    H125633   4.679   1.269  13.122 -0.3064  0.8839 -0.7392
 1406TIP3    H225634   4.684   1.118  13.134 -1.8398  0.8253 -0.5412
 1407TIP3   OH225635   2.366   0.224   1.135 -0.2075  0.4010  0.1077
 1407TIP3    H125636   2.299   0.161   1.111 -0.5665  0.6170  0.5259
 1407TIP3    H225637   2.363   0.227   1.231  2.0510 -1.4004  0.3397
 1408TIP3   OH225638   4.241   6.673  16.893 -0.2492 -0.0936  0.1718
 1408TIP3    H125639   4.195   6.754  16.869 -0.9865 -1.2186 -2.6390
 1408TIP3    H225640   4.333   6.693  16.878 -0.1038  0.9765  2.1059
 1409TIP3   OH225641   0.300   2.104   1.176  0.0503 -0.2167 -0.6174
 1409TIP3    H125642   0.231   2.046   1.208  0.7991 -1.5010 -1.2625
 1409TIP3    H225643   0.303   2.175   1.240 -1.0386 -0.7702  0.0737
 1410TIP3   OH225644   4.632   0.934   5.449 -0.2134 -0.3809  0.2536
 1410TIP3    H125645   4.658   1.023   5.474  2.6796 -0.8965 -0.4574
 1410TIP3    H225646   4.616   0.939   5.355 -0.6486 -0.5035  0.3182
 1411TIP3   OH225647   4.776   5.947  10.691  0.6610 -0.5024 -0.2021
 1411TIP3    H125648   4.796   5.853  10.694  0.9639 -0.4645 -0.8399
 1411TIP3    H225649   4.782   5.969  10.598 -1.6870 -0.3275 -0.3623
 1412TIP3   OH225650   2.556   2.113  15.208 -0.2926  0.2379 -0.4623
 1412TIP3    H125651   2.635   2.058  15.208 -1.1265 -0.9972 -0.0468
 1412TIP3    H225652   2.484   2.051  15.219 -1.1618  1.5614  2.2102
 1413TIP3   OH225653   1.175   4.880   4.569  0.3281 -0.7937  0.0030
 1413TIP3    H125654   1.260   4.894   4.527 -0.2394  0.2449 -0.8577
 1413TIP3    H225655   1.133   4.813   4.516 -0.4495  0.6252 -1.2576
 1414TIP3   OH225656   1.160   5.276  12.161 -0.4182 -0.3572 -0.0233
 1414TIP3    H125657   1.245   5.320  12.154  0.6205 -1.9060  1.9521
 1414TIP3    H225658   1.137   5.255  12.071  1.4275 -0.1307 -0.6028
 1415TIP3   OH225659   5.288   4.575  13.992 -0.4406  0.3363 -0.2493
 1415TIP3    H125660   5.319   4.612  13.909 -0.1840 -0.0445 -0.3295
 1415TIP3    H225661   5.202   4.538  13.971 -1.9142  3.1141  0.4234
 1416TIP3   OH225662   0.594   0.168  12.740  0.2162 -0.3247  0.0387
 1416TIP3    H125663   0.571   0.094  12.683 -1.9738  0.0155  0.3945
 1416TIP3    H225664   0.641   0.128  12.814  1.0469 -1.0481 -0.8544
 1417TIP3   OH225665   4.731   3.429   0.732  0.2881 -0.0328  0.4431
 1417TIP3    H125666   4.809   3.407   0.782  0.9196  0.1350 -0.4455
 1417TIP3    H225667   4.727   3.525   0.734 -0.5201 -0.0660  1.3943
 1418TIP3   OH225668   4.400   6.260   2.518 -0.0272  0.7760 -0.2454
 1418TIP3    H125669   4.471   6.315   2.550  0.7560 -0.0475 -0.5274
 1418TIP3    H225670   4.321   6.296   2.559  0.6218  1.3134  0.5563
 1419TIP3   OH225671   0.347   4.152   5.321 -0.1719 -0.2732  0.4644
 1419TIP3    H125672   0.298   4.070   5.329 -0.4104 -0.2354 -0.4876
 1419TIP3    H225673   0.281   4.221   5.335  0.0842 -0.2224  1.5682
 1420TIP3   OH225674   6.453   2.217  14.485 -0.0644  0.5315  0.1166
 1420TIP3    H125675   6.492   2.130  14.492 -0.9061 -0.0822 -2.1518
 1420TIP3    H225676   6.374   2.204  14.433 -0.6146  2.5588  0.3526
 1421TIP3   OH225677   5.844   2.982   5.596 -0.5194  0.0166 -0.2775
 1421TIP3    H125678   5.754   2.949   5.599 -0.4087 -0.1963  0.7721
 1421TIP3    H225679   5.835   3.077   5.605 -0.6505  0.0173 -0.4134
 1422TIP3   OH225680   6.625   0.550  13.463 -0.0533 -1.4497 -0.3119
 1422TIP3    H125681   6.624   0.527  13.556 -0.6794  0.9361  0.3488
 1422TIP3    H225682   6.551   0.504  13.426 -1.3860 -0.4400  0.9773
 1423TIP3   OH225683   6.090   5.208  11.152 -0.2927  0.2063 -0.5563
 1423TIP3    H125684   6.159   5.228  11.215 -0.5762 -1.1890  0.2599
 1423TIP3    H225685   6.132   5.217  11.066 -0.1415  3.0110 -0.2581
 1424TIP3   OH225686   1.606   0.148  16.041 -0.1731  0.6276 -0.6597
 1424TIP3    H125687   1.561   0.205  16.104 -0.5420  0.3396 -0.6549
 1424TIP3    H225688   1.536   0.094  16.004  0.3309 -0.6182  0.1689
 1425TIP3   OH225689   2.044   4.761   5.550  0.1688 -0.1028  0.1923
 1425TIP3    H125690   2.059   4.842   5.598  0.9257 -0.4989  0.6553
 1425TIP3    H225691   1.985   4.710   5.605 -0.1491  0.0517 -0.0047
 1426TIP3   OH225692   4.781   4.208   5.122  0.4407 -0.2974  0.7479
 1426TIP3    H125693   4.875   4.210   5.140  0.1860 -1.0686  2.4375
 1426TIP3    H225694   4.770   4.135   5.061  0.7086 -1.9986  2.6203
 1427TIP3   OH225695   1.973   3.135   0.848 -0.0543  0.0824  0.1242
 1427TIP3    H125696   2.036   3.146   0.777 -0.6220 -0.4550 -0.4782
 1427TIP3    H225697   2.011   3.182   0.922  0.4006  0.9159 -0.6263
 1428TIP3   OH225698   1.555   5.714  15.220 -0.1245 -0.1423  0.3802
 1428TIP3    H125699   1.503   5.673  15.289 -0.2435  1.1433  1.0720
 1428TIP3    H225700   1.576   5.801  15.253 -1.1775  0.9701 -1.6637
 1429TIP3   OH225701   1.761   5.507  13.248 -0.2724 -0.4788  0.5827
 1429TIP3    H125702   1.853   5.497  13.272  0.1102  1.8541  0.3757
 1429TIP3    H225703   1.720   5.545  13.326 -0.7095 -0.1053  0.1811
 1430TIP3   OH225704   6.773   2.468  11.468  0.4918 -1.0615  0.0919
 1430TIP3    H125705   6.680   2.470  11.494  0.9429 -0.7601  1.7925
 1430TIP3    H225706   6.789   2.376  11.448  0.2276 -1.4409  1.4746
 1431TIP3   OH225707   3.924   2.800  15.625 -0.6028  0.0052 -0.0804
 1431TIP3    H125708   3.951   2.739  15.694 -1.5210 -1.0686 -0.6409
 1431TIP3    H225709   3.853   2.756  15.580 -1.3895  1.5630 -0.4389
 1432TIP3   OH225710   0.397   1.279  16.763 -0.1461  0.5443  0.0806
 1432TIP3    H125711   0.454   1.356  16.767 -0.5467  0.7928  2.1521
 1432TIP3    H225712   0.320   1.309  16.714  0.9381  0.5352 -1.7425
 1433TIP3   OH225713   6.108   2.085  13.774 -0.2327  0.1608 -0.1271
 1433TIP3    H125714   6.130   2.158  13.832  1.1639  0.0226 -0.4496
 1433TIP3    H225715   6.192   2.046  13.751 -0.9067 -1.1304 -0.5196
 1434TIP3   OH225716   2.347   4.113  16.060 -0.4679 -0.5725  0.4190
 1434TIP3    H125717   2.317   4.118  16.150  0.9144  0.5646  0.8604
 1434TIP3    H225718   2.354   4.019  16.042 -2.9970 -0.8678  0.6633
 1435TIP3   OH225719   0.515   3.102   5.027 -0.3946 -0.3341  0.0457
 1435TIP3    H125720   0.475   3.149   5.100  0.3209  0.4593 -0.0561
 1435TIP3    H225721   0.442   3.087   4.966 -0.5849  0.9191 -0.0534
 1436TIP3   OH225722   2.357   1.225  16.616  0.7281 -0.0943  0.1984
 1436TIP3    H125723   2.425   1.254  16.677  1.5863 -0.5537 -0.5190
 1436TIP3    H225724   2.378   1.271  16.534  0.4994 -0.6550 -0.1780
 1437TIP3   OH225725   2.921   5.861  16.648 -0.6498 -0.0993 -0.5234
 1437TIP3    H125726   2.986   5.808  16.602 -0.0154 -0.9072  1.2237
 1437TIP3    H225727   2.837   5.832  16.612 -0.1689 -0.5091 -1.3444
 1438TIP3   OH225728   2.972   6.390   3.603 -0.0585 -0.3876  0.1238
 1438TIP3    H125729   3.030   6.346   3.665 -0.0290 -0.6867 -0.1147
 1438TIP3    H225730   2.891   6.404   3.652  0.8823  1.9454  1.1637
 1439TIP3   OH225731   1.573   3.275  10.878 -0.2770 -0.6820 -0.0629
 1439TIP3    H125732   1.493   3.261  10.828  0.5929 -0.8452 -1.4486
 1439TIP3    H225733   1.600   3.186  10.905 -1.3225 -0.5193  1.7029
 1440TIP3   OH225734   0.011   3.829   2.741 -0.2848 -0.2894 -0.1977
 1440TIP3    H125735   0.005   3.871   2.828 -1.7384 -1.0835  0.1113
 1440TIP3    H225736  -0.034   3.745   2.752 -1.9754  0.2854 -2.1333
 1441TIP3   OH225737   0.233   3.967   0.825 -0.4593  0.4216 -0.2826
 1441TIP3    H125738   0.146   4.001   0.848 -0.0988  1.0414  0.1980
 1441TIP3    H225739   0.292   4.040   0.841  0.3422 -0.4307  0.7881
 1442TIP3   OH225740   6.619   5.603  13.613 -0.2427 -0.2947  0.4816
 1442TIP3    H125741   6.636   5.527  13.670 -1.7406 -0.4961  0.7079
 1442TIP3    H225742   6.538   5.641  13.648 -0.5520  0.2744 -0.8099
 1443TIP3   OH225743   0.474   5.069   5.348  0.1981  0.3682  0.1382
 1443TIP3    H125744   0.398   5.102   5.395  0.6253  0.6258  0.6687
 1443TIP3    H225745   0.548   5.088   5.407  0.7357  0.6254 -0.6077
 1444TIP3   OH225746   4.652   4.517  15.967  0.2378  0.1646 -0.1047
 1444TIP3    H125747   4.702   4.467  16.032 -0.4303 -1.6548 -0.9083
 1444TIP3    H225748   4.568   4.534  16.010  0.6503  1.0655  0.3564
 1445TIP3   OH225749   5.932   6.564   3.223  0.0969  0.1059 -0.1519
 1445TIP3    H125750   5.887   6.493   3.178 -1.3573  0.2282  1.0477
 1445TIP3    H225751   5.912   6.642   3.171 -0.3859  0.0280 -0.0842
 1446TIP3   OH225752   4.965   5.838   3.712 -0.2166  0.2746  0.4447
 1446TIP3    H125753   4.969   5.747   3.743 -1.3171 -0.1930 -0.7269
 1446TIP3    H225754   4.872   5.854   3.695  0.2268  0.7597 -1.8091
 1447TIP3   OH225755   4.200   5.146   3.378  0.0391 -0.0956 -0.7792
 1447TIP3    H125756   4.245   5.065   3.402 -1.4658 -0.2742  1.8256
 1447TIP3    H225757   4.138   5.119   3.310 -2.2097 -1.8438  1.7244
 1448TIP3   OH225758   4.641   6.483  11.089  0.1148 -0.1828 -0.2066
 1448TIP3    H125759   4.659   6.518  11.001  2.7454 -0.7394  0.0285
 1448TIP3    H225760   4.658   6.389  11.081  1.2036 -0.1280  1.0419
 1449TIP3   OH225761   5.677   0.288   5.164 -0.5918 -0.2274  0.2920
 1449TIP3    H125762   5.583   0.295   5.149 -0.4509  1.5029  0.0542
 1449TIP3    H225763   5.690   0.317   5.255 -0.4109 -1.7226  0.7701
 1450TIP3   OH225764   2.316   5.216   1.852 -0.0797  0.2340  0.4920
 1450TIP3    H125765   2.367   5.210   1.772  2.2155 -1.5902  1.9638
 1450TIP3    H225766   2.314   5.309   1.872 -0.6952  0.7240 -1.6150
 1451TIP3   OH225767   2.211   4.393  13.170  0.2492  0.6058 -0.1823
 1451TIP3    H125768   2.291   4.383  13.120  0.4993  2.2469 -0.1825
 1451TIP3    H225769   2.150   4.330  13.132  1.7627 -1.2922  0.3799
 1452TIP3   OH225770   5.206   3.112   6.746  0.5181  0.3462  0.0582
 1452TIP3    H125771   5.219   3.173   6.818  0.8921  0.5072 -0.1432
 1452TIP3    H225772   5.224   3.164   6.667 -0.5909  0.3726 -0.1962
 1453TIP3   OH225773   4.259   3.316   5.645  0.2176 -0.5502 -0.0879
 1453TIP3    H125774   4.173   3.342   5.612  0.8269 -0.7914 -1.9572
 1453TIP3    H225775   4.247   3.308   5.740 -2.0178 -1.3663 -0.3850
 1454TIP3   OH225776   6.230   5.750  10.244  0.0256  0.4649 -0.2349
 1454TIP3    H125777   6.166   5.685  10.212  1.0115 -0.5567 -0.1843
 1454TIP3    H225778   6.286   5.701  10.303  0.5827  1.4645  0.0781
 1455TIP3   OH225779   0.444   4.317  14.267  0.2204 -0.3191 -0.0609
 1455TIP3    H125780   0.454   4.317  14.172  0.1678 -1.1622 -0.0726
 1455TIP3    H225781   0.350   4.301  14.280  0.7429 -4.2133  0.1295
 1456TIP3   OH225782   0.602   5.198   3.623  0.6306  0.0130 -0.2577
 1456TIP3    H125783   0.632   5.249   3.548  1.7773 -1.6988 -1.0268
 1456TIP3    H225784   0.514   5.168   3.597  1.0445 -0.6247 -0.9942
 1457TIP3   OH225785   5.632   3.702  14.995 -0.2803 -0.6666  0.1240
 1457TIP3    H125786   5.708   3.715  14.938  0.4374 -1.1988  0.9265
 1457TIP3    H225787   5.646   3.616  15.034 -0.8681 -0.4190  0.9181
 1458TIP3   OH225788   1.728   3.576  11.240  0.4857  0.1972 -0.0531
 1458TIP3    H125789   1.685   3.643  11.294  1.9774  0.7256  0.5106
 1458TIP3    H225790   1.656   3.536  11.191 -0.4423  2.1725 -0.3881
 1459TIP3   OH225791   5.986   3.038  12.361  0.4171  0.0378  0.3444
 1459TIP3    H125792   5.921   2.969  12.346  1.9850 -1.1995 -1.2961
 1459TIP3    H225793   5.935   3.114  12.389 -1.9812 -0.3272 -2.5126
 1460TIP3   OH225794   6.035   3.812  10.723  0.9040  0.1141  0.6809
 1460TIP3    H125795   6.083   3.739  10.762 -0.1911 -2.0599 -1.7254
 1460TIP3    H225796   5.943   3.786  10.728  0.5030  1.2383 -0.3939
 1461TIP3   OH225797   0.687   0.802  16.102  0.1472  0.0134 -0.4641
 1461TIP3    H125798   0.767   0.761  16.135 -0.4069 -0.3367  0.4483
 1461TIP3    H225799   0.654   0.853  16.175 -0.5681  0.0101 -0.7788
 1462TIP3   OH225800   3.297   1.708   0.219 -0.6307 -0.3107  1.2163
 1462TIP3    H125801   3.322   1.659   0.140 -1.9872 -0.1698  0.6653
 1462TIP3    H225802   3.356   1.783   0.221  0.5563 -1.2157  1.2985
 1463TIP3   OH225803   6.228   3.384   2.117  1.0435 -0.1973 -0.0961
 1463TIP3    H125804   6.274   3.408   2.198  2.2228  2.1769 -1.3515
 1463TIP3    H225805   6.135   3.388   2.141  1.3763 -0.2647  1.3163
 1464TIP3   OH225806   4.060   0.189   1.131 -0.4607 -0.0180  0.0945
 1464TIP3    H125807   4.063   0.284   1.140 -1.0661  0.2283 -1.8580
 1464TIP3    H225808   4.081   0.173   1.039  0.4819 -1.8385  0.5944
 1465TIP3   OH225809   4.177   1.767   6.472  0.8430  0.2368 -0.0156
 1465TIP3    H125810   4.183   1.832   6.402 -0.4446  1.3445  0.8763
 1465TIP3    H225811   4.189   1.817   6.553 -2.4494 -0.1517  0.8526
 1466TIP3   OH225812   4.416   3.292  13.092 -0.0668 -0.1119 -0.0924
 1466TIP3    H125813   4.469   3.363  13.128 -0.9373 -0.4204  1.9542
 1466TIP3    H225814   4.476   3.241  13.038  1.4006  0.2538  1.1435
 1467TIP3   OH225815   3.305   0.633   2.969 -0.0285  0.1487 -0.1155
 1467TIP3    H125816   3.271   0.718   2.997 -1.1235  0.5639 -2.4312
 1467TIP3    H225817   3.395   0.650   2.944 -0.3038  0.6979 -0.7587
 1468TIP3   OH225818   4.896   0.035   0.889  0.1466  0.1318 -0.3823
 1468TIP3    H125819   4.900   0.007   0.798 -1.5666  1.5020 -0.9397
 1468TIP3    H225820   4.953   0.112   0.892  1.9318 -1.1637  0.2659
 1469TIP3   OH225821   2.094   2.038  16.475  0.2554  0.0918  0.0485
 1469TIP3    H125822   2.117   1.949  16.448 -0.0576 -0.5930  1.9104
 1469TIP3    H225823   2.060   2.079  16.395 -1.6218 -2.1374 -0.4145
 1470TIP3   OH225824   2.558   3.794  16.860 -0.3760 -0.3934  0.4076
 1470TIP3    H125825   2.532   3.879  16.896  1.1687 -0.3697  1.5748
 1470TIP3    H225826   2.487   3.735  16.885 -0.8209  0.2774  0.7666
 1471TIP3   OH225827   3.047   4.149  16.874  0.3396  0.0196  0.5484
 1471TIP3    H125828   3.051   4.117  16.784  1.9186  0.9814  0.2409
 1471TIP3    H225829   3.021   4.072  16.925 -0.5931 -0.5339 -0.7081
 1472TIP3   OH225830   4.021   5.654  15.151  0.5534  0.8650 -0.3134
 1472TIP3    H125831   3.991   5.563  15.155 -2.1903  1.6600 -1.3223
 1472TIP3    H225832   4.116   5.646  15.141  0.3703 -1.8955 -0.8273
 1473TIP3   OH225833   6.741   3.759   1.349  0.1338 -0.1329 -0.3523
 1473TIP3    H125834   6.673   3.716   1.297  0.6223 -1.1523 -0.1687
 1473TIP3    H225835   6.731   3.723   1.437 -0.9068  1.8384  0.3834
 1474TIP3   OH225836   4.369   5.098   1.042  0.5519 -0.1254 -0.2065
 1474TIP3    H125837   4.398   5.080   0.953  0.8040 -0.3020 -0.0893
 1474TIP3    H225838   4.384   5.192   1.055 -1.4515  0.3585 -1.0774
 1475TIP3   OH225839   3.137   2.694   3.553  0.7366 -0.0246  0.6397
 1475TIP3    H125840   3.044   2.709   3.571  0.3022 -1.3834 -0.2525
 1475TIP3    H225841   3.158   2.753   3.481  0.7070  0.6649  1.1954
 1476TIP3   OH225842   3.087   5.059   4.119 -0.7334 -0.3766  0.1296
 1476TIP3    H125843   3.058   5.082   4.207 -0.2361  1.1785 -0.0845
 1476TIP3    H225844   3.049   5.126   4.062  0.2309 -0.4409 -0.6270
 1477TIP3   OH225845   3.468   6.704  13.762  0.3718 -0.2382  0.6916
 1477TIP3    H125846   3.387   6.752  13.747  0.1627 -0.9918 -0.7872
 1477TIP3    H225847   3.514   6.754  13.829 -0.8316  0.7791  0.7854
 1478TIP3   OH225848   4.712   2.646   0.788  0.1238 -0.1865  0.2320
 1478TIP3    H125849   4.709   2.664   0.694  2.0841  0.3043  0.2145
 1478TIP3    H225850   4.754   2.560   0.795  2.6402  0.9712  0.6629
 1479TIP3   OH225851   2.518   5.476  16.862 -0.4376  0.5364 -0.1849
 1479TIP3    H125852   2.484   5.564  16.875  0.1997  0.9248 -1.0910
 1479TIP3    H225853   2.464   5.421  16.919  1.4084  1.9459  3.2160
 1480TIP3   OH225854   0.149   2.723  14.712 -0.0569 -0.1887  0.0492
 1480TIP3    H125855   0.094   2.782  14.764 -0.0676 -2.2439  2.5871
 1480TIP3    H225856   0.181   2.777  14.640 -2.9682  1.8918  0.1345
 1481TIP3   OH225857   0.142   0.222  13.554  0.1625  0.0232  0.3040
 1481TIP3    H125858   0.154   0.280  13.629  0.2964  2.2922 -1.3557
 1481TIP3    H225859   0.118   0.280  13.482  2.9494 -1.5725 -2.1772
 1482TIP3   OH225860   4.276   0.181  15.325  0.3673 -0.0255 -0.4896
 1482TIP3    H125861   4.305   0.210  15.412  0.2992 -0.3664 -0.3533
 1482TIP3    H225862   4.350   0.201  15.267  0.3513  0.3479 -0.3823
 1483TIP3   OH225863   2.608   5.884  11.751 -0.1403  0.3007 -0.5084
 1483TIP3    H125864   2.573   5.970  11.772 -1.3113 -0.4889  0.9764
 1483TIP3    H225865   2.671   5.865  11.821 -0.2181 -0.2307 -0.5758
 1484TIP3   OH225866   1.462   3.355   0.602  0.2351 -0.2655  0.0557
 1484TIP3    H125867   1.508   3.369   0.520 -1.9014  1.7299 -0.9111
 1484TIP3    H225868   1.532   3.352   0.668  1.8272  2.0898 -1.3631
 1485TIP3   OH225869   0.774   1.455   2.187  0.1756 -0.1857 -0.3560
 1485TIP3    H125870   0.825   1.394   2.134  1.7194 -0.6293  1.5417
 1485TIP3    H225871   0.808   1.541   2.163  2.6939 -0.5158  1.5766
 1486TIP3   OH225872   2.734   5.306   1.253 -0.0356  0.0918 -0.2340
 1486TIP3    H125873   2.806   5.318   1.315  0.2714  0.7300 -0.6982
 1486TIP3    H225874   2.727   5.211   1.242  0.9126  0.0245 -0.3698
 1487TIP3   OH225875   5.729   3.842  12.628 -0.0158  0.3503  0.2861
 1487TIP3    H125876   5.747   3.748  12.632 -1.3719  0.0898  0.8559
 1487TIP3    H225877   5.770   3.878  12.706 -0.3481  0.0604  0.5998
 1488TIP3   OH225878   1.126   5.262  15.949  0.1484 -0.0583  0.2267
 1488TIP3    H125879   1.042   5.218  15.939 -0.7670  1.6074  0.2863
 1488TIP3    H225880   1.104   5.352  15.973  1.8441  1.0861 -2.1107
 1489TIP3   OH225881   3.433   5.716  12.227  0.2276 -0.3165 -0.0273
 1489TIP3    H125882   3.442   5.808  12.200 -1.2563 -0.2380 -0.3412
 1489TIP3    H225883   3.514   5.697  12.273 -0.1985  1.7438  1.7580
 1490TIP3   OH225884   3.459   2.249  15.749 -0.4385 -0.0671  0.1604
 1490TIP3    H125885   3.525   2.197  15.796 -0.6456 -0.4169  0.0691
 1490TIP3    H225886   3.449   2.328  15.802 -0.2138 -0.1778  0.3709
 1491TIP3   OH225887   6.038   6.216  10.228 -0.4022 -0.4090  0.0077
 1491TIP3    H125888   6.112   6.154  10.227 -0.7687 -0.8507  0.0202
 1491TIP3    H225889   5.964   6.164  10.259 -1.4642 -0.8223 -2.9130
 1492TIP3   OH225890   4.185   0.486  10.573 -0.3646  0.2371  0.6439
 1492TIP3    H125891   4.110   0.449  10.527  0.0234  1.9414 -1.5339
 1492TIP3    H225892   4.241   0.411  10.592 -1.3591 -0.7350 -0.1391
 1493TIP3   OH225893   4.532   1.274   3.022 -0.0463 -0.1742  0.0552
 1493TIP3    H125894   4.502   1.345   3.079  1.4334 -1.3454  2.4645
 1493TIP3    H225895   4.615   1.304   2.987  0.4028 -0.5208  0.7880
 1494TIP3   OH225896   5.495   3.112   3.710 -0.0590 -0.7639 -0.8180
 1494TIP3    H125897   5.574   3.083   3.663  0.4137 -0.1768 -0.3962
 1494TIP3    H225898   5.436   3.142   3.641  1.2470  1.6204 -0.9899
 1495TIP3   OH225899   4.826   3.698   1.959  0.2587 -0.1606 -0.0023
 1495TIP3    H125900   4.839   3.793   1.958 -2.4033  0.2734 -0.1286
 1495TIP3    H225901   4.765   3.682   2.030  1.1578 -1.9083  0.4445
 1496TIP3   OH225902   3.419   3.265  16.863 -0.4587  0.2703  0.1724
 1496TIP3    H125903   3.332   3.259  16.902 -0.0915 -0.4011  0.9072
 1496TIP3    H225904   3.479   3.237  16.933  0.4936  2.2513  0.2353
 1497TIP3   OH225905   4.342   0.399  13.943  0.0703  0.3298  0.0265
 1497TIP3    H125906   4.313   0.312  13.967  0.0563  0.5576  0.8521
 1497TIP3    H225907   4.328   0.404  13.848 -1.7554  0.1139  0.2513
 1498TIP3   OH225908   5.291   6.476   4.421  0.1677 -0.2612  0.0185
 1498TIP3    H125909   5.271   6.569   4.420 -0.7384 -0.4380 -0.6532
 1498TIP3    H225910   5.224   6.438   4.478 -0.8645 -0.7443 -1.4389
 1499TIP3   OH225911   5.295   5.501  16.616  0.1401  0.2900 -0.0534
 1499TIP3    H125912   5.349   5.455  16.681 -1.1158  0.7126  1.3406
 1499TIP3    H225913   5.276   5.435  16.549  0.9868 -0.3229  0.2932
 1500TIP3   OH225914   0.875   0.921   5.675  0.1534  0.1261 -0.1140
 1500TIP3    H125915   0.796   0.875   5.647  0.9213 -1.9074  0.8739
 1500TIP3    H225916   0.849   0.967   5.755 -1.1140  3.1233 -2.0651
 1501TIP3   OH225917   0.269   6.490  14.701  0.0820 -0.1348 -0.2295
 1501TIP3    H125918   0.333   6.446  14.757 -0.4298 -1.2740 -0.5106
 1501TIP3    H225919   0.187   6.486  14.751  0.2717  1.6068  0.2769
 1502TIP3   OH225920   0.699   2.109  14.684 -0.5311  0.0446  0.0029
 1502TIP3    H125921   0.623   2.123  14.629 -1.0189 -0.1921  0.6024
 1502TIP3    H225922   0.666   2.117  14.774  0.4326  1.3878  0.2630
 1503TIP3   OH225923   6.721   3.563  11.736 -0.4044 -0.2999  0.4826
 1503TIP3    H125924   6.664   3.487  11.727 -1.4176  0.4847  0.0747
 1503TIP3    H225925   6.691   3.607  11.815 -0.5752  0.2732  0.1114
 1504TIP3   OH225926   4.457   6.296  10.036  0.0069 -0.2819  0.1534
 1504TIP3    H125927   4.508   6.365  10.077  0.7899 -1.4413  1.2054
 1504TIP3    H225928   4.424   6.335   9.955  2.0928  0.6844 -0.2909
 1505TIP3   OH225929   1.614   1.510   4.355 -0.1450  0.3811  0.6180
 1505TIP3    H125930   1.551   1.497   4.426  1.7003  1.7857  2.6559
 1505TIP3    H225931   1.605   1.602   4.331 -0.8870 -0.1241 -1.1840
 1506TIP3   OH225932   1.568   1.189  16.222  0.0337 -0.0661 -0.4244
 1506TIP3    H125933   1.535   1.228  16.141  0.6127 -1.9487 -1.6439
 1506TIP3    H225934   1.569   1.095  16.203  0.1554 -0.5520  1.8040
 1507TIP3   OH225935   5.302   0.943   0.270  0.1712 -0.2785 -0.0844
 1507TIP3    H125936   5.384   0.953   0.319 -1.3839  1.9767  2.2766
 1507TIP3    H225937   5.240   0.908   0.333 -1.1395 -0.2584 -1.3250
 1508TIP3   OH225938   1.263   0.624  12.512  0.4578  0.3659 -0.4980
 1508TIP3    H125939   1.356   0.643  12.525  0.5159 -0.7321  0.9040
 1508TIP3    H225940   1.225   0.630  12.599 -0.3162 -1.5359 -0.6569
 1509TIP3   OH225941   3.194   1.931   1.975  0.1055 -0.5521  0.1177
 1509TIP3    H125942   3.103   1.914   2.001 -0.4672 -0.1808 -1.5065
 1509TIP3    H225943   3.225   1.848   1.940  0.5392 -0.7838  1.0271
 1510TIP3   OH225944   0.375   2.042   3.400  0.3670  0.5819 -0.2557
 1510TIP3    H125945   0.407   1.990   3.326 -1.9387 -0.2815 -0.7331
 1510TIP3    H225946   0.316   1.983   3.447 -0.1935  1.9328  0.8032
 1511TIP3   OH225947   6.692   1.961  16.476 -0.2350 -0.1953 -0.0119
 1511TIP3    H125948   6.712   2.025  16.407  0.8264 -0.5387 -0.0331
 1511TIP3    H225949   6.769   1.906  16.481 -1.2082 -1.6230 -0.1242
 1512TIP3   OH225950   2.882   1.144  10.753  0.4135  0.2296  0.8355
 1512TIP3    H125951   2.850   1.059  10.723  1.3572  0.3024 -0.4534
 1512TIP3    H225952   2.974   1.147  10.724 -0.3218  2.8074 -1.6842
 1513TIP3   OH225953   4.983   1.818   5.749 -0.7674 -0.0245  0.0441
 1513TIP3    H125954   4.889   1.836   5.753 -0.7974 -0.3318  0.9843
 1513TIP3    H225955   5.001   1.765   5.827  0.3610  0.8608  0.4094
 1514TIP3   OH225956   2.708   6.319  11.562  0.3500  0.2368 -0.3453
 1514TIP3    H125957   2.784   6.353  11.609 -0.7582  2.3192  0.0456
 1514TIP3    H225958   2.735   6.319  11.470  0.2978  2.6746 -0.4178
 1515TIP3   OH225959   5.990   1.710   3.110 -0.0479  0.4718 -0.1677
 1515TIP3    H125960   5.951   1.659   3.039 -1.3812  2.1441 -0.7164
 1515TIP3    H225961   5.920   1.770   3.137  1.3758  1.8556  0.5771
 1516TIP3   OH225962   5.726   0.674   4.566 -0.5277 -0.1048  0.4745
 1516TIP3    H125963   5.726   0.762   4.528 -1.2279 -0.3632 -0.1590
 1516TIP3    H225964   5.777   0.682   4.646 -0.0603  0.7411  0.1061
 1517TIP3   OH225965   5.735   3.674   1.319  0.2219  0.6359  0.4994
 1517TIP3    H125966   5.829   3.661   1.316  0.2665  1.0278  0.1381
 1517TIP3    H225967   5.699   3.599   1.271  0.5435  2.4659 -2.9044
 1518TIP3   OH225968   3.079   2.101  14.485 -0.0219 -1.2179  0.1496
 1518TIP3    H125969   3.083   2.069  14.575  2.4354  0.4864  0.7520
 1518TIP3    H225970   3.078   2.022  14.431 -0.4326 -2.2570  1.6235
 1519TIP3   OH225971   2.607   6.546   4.418 -0.3202 -0.2918 -0.2102
 1519TIP3    H125972   2.617   6.556   4.323  0.9792 -0.6589 -0.1342
 1519TIP3    H225973   2.694   6.562   4.453 -1.0431  1.1086  1.0625
 1520TIP3   OH225974   5.337   5.053   4.716 -0.2432 -0.6371  0.3021
 1520TIP3    H125975   5.386   5.124   4.676 -0.9648  0.0609  0.6352
 1520TIP3    H225976   5.266   5.035   4.655 -0.9336 -0.0468  0.9174
 1521TIP3   OH225977   3.524   3.774   4.033 -0.5206  0.1196  0.1110
 1521TIP3    H125978   3.602   3.728   4.064  1.0753  1.5415 -1.5392
 1521TIP3    H225979   3.501   3.833   4.105  0.1848 -0.0226  0.4608
 1522TIP3   OH225980   4.584   0.609   6.218  0.0997 -0.0434  0.1438
 1522TIP3    H125981   4.614   0.626   6.129 -0.6918  0.5222 -0.0346
 1522TIP3    H225982   4.661   0.576   6.264 -0.0254 -2.6831 -1.3431
 1523TIP3   OH225983   0.312   5.440   0.431 -0.2086 -0.2995  0.1828
 1523TIP3    H125984   0.343   5.350   0.439 -0.6128 -0.3690  1.1820
 1523TIP3    H225985   0.355   5.486   0.504  1.7431  0.8630 -1.5600
 1524TIP3   OH225986   3.147   3.423  15.669  0.5530  0.2805 -0.2555
 1524TIP3    H125987   3.154   3.519  15.673 -1.3640  0.4422  0.0554
 1524TIP3    H225988   3.053   3.405  15.678  0.7582 -1.5882 -1.2673
 1525TIP3   OH225989   5.903   3.160   2.091 -0.0363  0.1227 -0.2779
 1525TIP3    H125990   5.809   3.157   2.106 -0.0562  1.4709 -0.0443
 1525TIP3    H225991   5.912   3.185   1.999  0.1148 -0.8679 -0.5524
 1526TIP3   OH225992   6.073   6.152   3.618  0.1623  0.4198  0.0433
 1526TIP3    H125993   6.090   6.245   3.634 -1.4015  0.9488 -1.1103
 1526TIP3    H225994   6.081   6.142   3.524 -1.2448 -0.2673 -0.0211
 1527TIP3   OH225995   5.004   4.526   5.709  0.9516 -0.2321 -0.8302
 1527TIP3    H125996   4.921   4.529   5.758  1.3536 -1.1067 -0.0545
 1527TIP3    H225997   4.984   4.567   5.625 -1.0862 -2.9433 -1.8388
 1528TIP3   OH225998   4.240   4.306  10.370 -0.3405 -0.4695 -0.1181
 1528TIP3    H125999   4.191   4.388  10.382  1.0190  0.6253 -1.6797
 1528TIP3    H226000   4.276   4.312  10.282  1.5660 -1.8058  0.5071
 1529TIP3   OH226001   0.650   2.823  13.114 -0.2980 -0.3222 -0.1598
 1529TIP3    H126002   0.582   2.889  13.100 -1.3897 -1.4827 -0.5788
 1529TIP3    H226003   0.729   2.873  13.133 -1.5207  1.0873  1.6730
 1530TIP3   OH226004   3.536   1.772  13.698  0.3435  0.1613 -1.1124
 1530TIP3    H126005   3.586   1.719  13.760  0.2929 -2.3429 -3.0506
 1530TIP3    H226006   3.574   1.860  13.705  0.4203 -0.0268  2.2816
 1531TIP3   OH226007   1.571   1.423  10.906 -0.1790 -0.1898  0.0833
 1531TIP3    H126008   1.495   1.449  10.853 -1.3373 -1.2443  1.1390
 1531TIP3    H226009   1.602   1.343  10.865 -0.1985 -0.2359  0.1574
 1532TIP3   OH226010   3.440   5.472  16.452 -0.5243  0.2570 -0.1181
 1532TIP3    H126011   3.477   5.513  16.530  0.1478 -0.6822  0.0828
 1532TIP3    H226012   3.356   5.436  16.481 -1.1029  1.4171 -0.2906
 1533TIP3   OH226013   4.187   3.265  12.482  0.0934  0.0709  0.0769
 1533TIP3    H126014   4.204   3.344  12.534 -1.8040 -0.0767  1.0183
 1533TIP3    H226015   4.226   3.283  12.396  0.0125  1.8971  0.3931
 1534TIP3   OH226016   6.411   3.982  11.138 -0.2218  0.1621 -0.1396
 1534TIP3    H126017   6.328   3.967  11.183  0.2119 -0.8691  0.3516
 1534TIP3    H226018   6.390   3.975  11.045 -0.6456 -0.3726 -0.0093
 1535TIP3   OH226019   1.179   3.975  15.897 -0.2149  0.8805  0.6959
 1535TIP3    H126020   1.102   4.005  15.848 -0.2903  0.2158  0.4054
 1535TIP3    H226021   1.251   3.980  15.835 -0.0016  1.5899  0.9956
 1536TIP3   OH226022   3.473   3.840   5.888  0.1747  0.6023  0.3901
 1536TIP3    H126023   3.410   3.904   5.922 -0.0944  1.6876 -1.9502
 1536TIP3    H226024   3.430   3.756   5.901 -2.0078  1.3259 -1.3858
 1537TIP3   OH226025   5.200   3.836   5.286 -0.0260  0.5129  0.3205
 1537TIP3    H126026   5.273   3.879   5.242 -0.5017  0.7000 -0.2896
 1537TIP3    H226027   5.208   3.865   5.377  0.6891  0.4842  0.2785
 1538TIP3   OH226028   0.223   2.664   2.676  0.2836  0.1830  0.2447
 1538TIP3    H126029   0.141   2.620   2.697 -0.4066  0.0563 -2.3896
 1538TIP3    H226030   0.290   2.613   2.723 -0.9256 -1.0273  0.7160
 1539TIP3   OH226031   5.891   2.370   5.486 -0.5829  0.5330 -0.1106
 1539TIP3    H126032   5.966   2.403   5.437 -1.0023  0.3644 -0.8751
 1539TIP3    H226033   5.852   2.449   5.525 -0.5296  0.7345 -0.4555
 1540TIP3   OH226034   2.971   0.717   4.407 -0.0143 -0.0496 -0.3771
 1540TIP3    H126035   2.958   0.803   4.366  0.6752  0.4720  0.4749
 1540TIP3    H226036   2.927   0.724   4.492  1.3748  0.0115  0.3670
 1541TIP3   OH226037   4.833   3.305   2.430  0.4964 -0.0808  0.0662
 1541TIP3    H126038   4.805   3.374   2.371  0.0068  1.6219  2.1954
 1541TIP3    H226039   4.921   3.281   2.399  0.5388  1.2455 -0.9069
 1542TIP3   OH226040   4.266   2.687  13.349 -0.0170  0.4909 -0.0068
 1542TIP3    H126041   4.252   2.651  13.436 -0.3853  0.3735 -0.1111
 1542TIP3    H226042   4.269   2.610  13.291 -0.4388  0.6004 -0.1814
 1543TIP3   OH226043   2.484   5.728   0.652  0.2555 -0.2562 -0.0658
 1543TIP3    H126044   2.572   5.701   0.628  0.5753  0.4972  0.2323
 1543TIP3    H226045   2.480   5.821   0.629 -1.5245 -0.9429 -3.0909
 1544TIP3   OH226046   4.690   4.213  12.712 -0.1409 -0.1622 -0.5245
 1544TIP3    H126047   4.770   4.254  12.677 -0.6046  0.1378 -1.2597
 1544TIP3    H226048   4.660   4.156  12.642 -0.4259 -0.4789 -0.1442
 1545TIP3   OH226049   6.327   2.882   0.983  0.0205 -0.1061  0.3429
 1545TIP3    H126050   6.301   2.940   0.912  1.8256  0.8735  0.4386
 1545TIP3    H226051   6.248   2.830   1.001 -0.8334  0.4481 -1.5359
 1546TIP3   OH226052   0.580   1.194   3.955 -0.7655  0.0294 -0.0684
 1546TIP3    H126053   0.556   1.129   3.889 -1.4824  0.1150  0.1062
 1546TIP3    H226054   0.625   1.143   4.023 -0.5426 -0.1444 -0.3432
 1547TIP3   OH226055   0.202   4.086  10.252  0.4543 -0.1465  0.4456
 1547TIP3    H126056   0.132   4.091  10.318  1.2721  0.7224  1.2879
 1547TIP3    H226057   0.275   4.044  10.297  1.0505  0.5209  0.1277
 1548TIP3   OH226058   5.798   2.621  13.964  0.5855  0.0274 -0.1283
 1548TIP3    H126059   5.869   2.600  13.903  1.2383  0.5587  0.4349
 1548TIP3    H226060   5.770   2.536  13.998  2.0887 -0.0951  0.8932
 1549TIP3   OH226061   2.495   3.056  14.337  0.0085 -0.4890  0.1534
 1549TIP3    H126062   2.481   2.963  14.318  1.0651 -1.2702  2.7514
 1549TIP3    H226063   2.568   3.081  14.280 -0.6073 -1.0707 -0.9388
 1550TIP3   OH226064   3.233   5.352  13.306  0.2422  0.1019 -0.1006
 1550TIP3    H126065   3.202   5.357  13.216 -0.4038  1.2036  0.1740
 1550TIP3    H226066   3.186   5.277  13.343 -0.7568  0.6562 -0.2121
 1551TIP3   OH226067   6.290   2.138  12.253  0.1007 -0.3798  0.6334
 1551TIP3    H126068   6.282   2.197  12.177 -0.3688  0.8101  1.5708
 1551TIP3    H226069   6.200   2.111  12.271  0.1207 -0.0685  1.2096
 1552TIP3   OH226070   2.881   5.782   4.349 -0.9931 -0.3497 -0.7982
 1552TIP3    H126071   2.951   5.761   4.287  0.7137  0.7162  0.6633
 1552TIP3    H226072   2.856   5.872   4.327  0.6989  0.6152  0.9116
 1553TIP3   OH226073   2.676   6.255   6.091 -0.2921 -0.1311 -0.4896
 1553TIP3    H126074   2.586   6.227   6.106 -0.4366 -0.1761 -1.3731
 1553TIP3    H226075   2.727   6.214   6.161 -0.6735 -1.6609 -1.0659
 1554TIP3   OH226076   0.104   5.346   4.234  0.3970 -0.1497 -0.4253
 1554TIP3    H126077   0.151   5.311   4.158 -0.9351 -1.6343 -0.6206
 1554TIP3    H226078   0.103   5.273   4.296  0.0133  0.4954  0.3438
 1555TIP3   OH226079   5.878   0.642  11.395 -0.2263 -0.0972  0.3672
 1555TIP3    H126080   5.943   0.705  11.362 -0.5213  1.7661  2.9750
 1555TIP3    H226081   5.929   0.580  11.447 -0.2653 -0.1493  0.3433
 1556TIP3   OH226082   3.859   4.115   4.623  0.2289  0.3062  0.2936
 1556TIP3    H126083   3.852   4.020   4.617  1.2205  0.1708  1.0246
 1556TIP3    H226084   3.912   4.130   4.701 -0.1996  1.4749  0.3780
 1557TIP3   OH226085   2.196   5.445  12.798  0.0661  0.1036  0.0705
 1557TIP3    H126086   2.281   5.490  12.802  1.1452 -1.9062  2.5042
 1557TIP3    H226087   2.134   5.514  12.777  2.2313  1.6993 -1.6328
 1558TIP3   OH226088   0.772   2.417   3.770 -0.9603 -0.5949 -0.1921
 1558TIP3    H126089   0.690   2.373   3.747 -0.7820 -0.9296 -0.1917
 1558TIP3    H226090   0.839   2.370   3.721 -0.6261 -1.0321  0.6622
 1559TIP3   OH226091   2.659   3.169  10.536  0.2520 -0.2684 -0.0918
 1559TIP3    H126092   2.671   3.077  10.561  0.5693  0.1642  1.4519
 1559TIP3    H226093   2.591   3.167  10.468  0.0759 -1.6130  0.1057
 1560TIP3   OH226094   4.057   0.687  13.731  0.5656  0.6559  0.5051
 1560TIP3    H126095   4.013   0.757  13.683  0.4644  1.4939  1.7539
 1560TIP3    H226096   4.045   0.609  13.677 -0.2587  1.3843 -0.3996
 1561TIP3   OH226097   1.816   3.109  14.111  0.4342  0.0296 -0.5938
 1561TIP3    H126098   1.773   3.110  14.025  0.7718 -0.5299 -0.7719
 1561TIP3    H226099   1.792   3.025  14.149 -0.6538  0.7333  0.3623
 1562TIP3   OH226100   5.045   2.194  13.639 -0.6013 -0.1601 -0.3652
 1562TIP3    H126101   5.128   2.195  13.593 -0.3957 -0.9437 -0.0381
 1562TIP3    H226102   5.069   2.198  13.732 -1.0546  4.9580 -0.1557
 1563TIP3   OH226103   0.885   2.192  15.528 -0.7302 -0.5250  0.2938
 1563TIP3    H126104   0.925   2.105  15.525 -0.0567 -0.3719  2.7730
 1563TIP3    H226105   0.809   2.182  15.584 -0.9126  0.3977  0.2257
 1564TIP3   OH226106   4.963   5.909  13.287 -0.5116 -0.2825  0.3299
 1564TIP3    H126107   4.954   5.859  13.206 -1.1972 -1.6512  1.2179
 1564TIP3    H226108   5.052   5.943  13.284 -0.8412  0.5605 -1.4591
 1565TIP3   OH226109   4.311   4.343  11.287 -0.0315  0.5256  0.3051
 1565TIP3    H126110   4.334   4.314  11.375  3.3187 -0.2941 -0.7011
 1565TIP3    H226111   4.341   4.433  11.282  0.1790  0.4380 -0.0939
 1566TIP3   OH226112   6.784   2.255   5.225  0.2402 -0.5072  0.2463
 1566TIP3    H126113   6.839   2.222   5.154 -0.9163 -1.0227 -0.4456
 1566TIP3    H226114   6.695   2.252   5.190 -0.2553  0.2041  1.3670
 1567TIP3   OH226115   6.348   0.834  12.323  0.9471 -0.2467 -0.2857
 1567TIP3    H126116   6.327   0.913  12.274  0.8188  0.8709  1.4556
 1567TIP3    H226117   6.421   0.794  12.276  1.9352  1.6555 -0.4546
 1568TIP3   OH226118   6.547   6.601  11.738  0.0193 -0.0400 -0.0312
 1568TIP3    H126119   6.549   6.653  11.658  2.7824  0.5845  0.3366
 1568TIP3    H226120   6.596   6.653  11.802  0.7789 -1.9661  1.0590
 1569TIP3   OH226121   5.086   2.207   5.476  0.5954 -0.0606 -0.0114
 1569TIP3    H126122   5.097   2.149   5.402  0.5903  1.2003 -1.0359
 1569TIP3    H226123   5.175   2.230   5.503  0.5965 -0.4731  0.3469
 1570TIP3   OH226124   3.126   4.706  12.119  0.5660  0.1840  0.1676
 1570TIP3    H126125   3.070   4.761  12.174 -1.4542 -2.0242  0.4998
 1570TIP3    H226126   3.175   4.652  12.181 -0.3278 -1.0037 -0.1182
 1571TIP3   OH226127   3.974   1.471   2.986  0.5997  0.1064 -0.2074
 1571TIP3    H126128   3.969   1.538   3.054  0.9946  0.1173 -0.1909
 1571TIP3    H226129   4.066   1.447   2.981  0.8441  1.2287 -1.8376
 1572TIP3   OH226130   5.225   2.760   0.414 -0.3105 -0.1223 -0.2612
 1572TIP3    H126131   5.162   2.810   0.363 -0.6043 -0.1964  0.0264
 1572TIP3    H226132   5.172   2.702   0.469  0.0338 -1.4386 -1.2628
 1573TIP3   OH226133   3.410   1.088  15.773  0.2995  0.6012  0.4682
 1573TIP3    H126134   3.336   1.109  15.716  0.4573 -0.4551 -0.1626
 1573TIP3    H226135   3.465   1.166  15.772 -0.4344  1.1289  0.3609
 1574TIP3   OH226136   4.356   1.121  15.146  0.3863 -0.7417 -0.0726
 1574TIP3    H126137   4.440   1.082  15.173  0.4495 -0.2513  0.4433
 1574TIP3    H226138   4.369   1.215  15.156 -0.1074 -0.6414 -0.3557
 1575TIP3   OH226139   1.527   2.771  13.150 -0.1444 -0.7558 -0.5430
 1575TIP3    H126140   1.476   2.830  13.206  0.2041 -1.1294  0.1686
 1575TIP3    H226141   1.516   2.808  13.062 -0.9795 -0.3652 -0.2901
 1576TIP3   OH226142   2.782   0.288  13.265 -0.4218  0.2171 -0.6125
 1576TIP3    H126143   2.693   0.283  13.300 -0.5551 -1.2937 -1.1086
 1576TIP3    H226144   2.784   0.371  13.217 -1.4681  0.4079 -0.3534
 1577TIP3   OH226145   6.018   4.543  15.437 -0.7435 -0.0378 -0.2437
 1577TIP3    H126146   6.087   4.572  15.496 -1.8144  0.4083  0.8472
 1577TIP3    H226147   5.965   4.622  15.421 -3.8266 -1.1463  2.9377
 1578TIP3   OH226148   4.842   3.273  15.974  0.6227 -0.1626  0.0978
 1578TIP3    H126149   4.838   3.209  16.045  0.7517 -0.3139 -0.0305
 1578TIP3    H226150   4.877   3.352  16.016  1.8813 -0.6124 -0.0438
 1579TIP3   OH226151   4.315   5.275  12.636  0.5043  0.1875 -0.9018
 1579TIP3    H126152   4.279   5.186  12.647  0.6141 -0.3716 -4.2177
 1579TIP3    H226153   4.403   5.261  12.601  0.3602  1.5895 -1.9006
 1580TIP3   OH226154   3.010   2.777  17.186  0.0436  0.1110  0.4284
 1580TIP3    H126155   3.096   2.762  17.224  0.4692 -0.7371 -0.7993
 1580TIP3    H226156   2.948   2.757  17.256  0.8463  1.1229  1.4384
 1581TIP3   OH226157   6.092   0.028  16.560  0.1767  0.0117  0.2103
 1581TIP3    H126158   6.146   0.058  16.487 -0.7786  0.8868 -0.1593
 1581TIP3    H226159   6.139   0.058  16.638 -0.3347  1.8149 -0.1307
 1582TIP3   OH226160   4.948   2.743  12.681  0.0324  0.3231 -0.0649
 1582TIP3    H126161   4.909   2.656  12.693 -0.5305 -0.0664 -3.4995
 1582TIP3    H226162   4.876   2.797  12.647  0.8890  1.5040 -0.0761
 1583TIP3   OH226163   6.349   2.778   2.871  0.2201 -0.2321 -0.4796
 1583TIP3    H126164   6.422   2.811   2.923  0.3316 -0.7303 -0.3201
 1583TIP3    H226165   6.390   2.741   2.793  0.0664  0.3494 -0.8496
 1584TIP3   OH226166   1.024   0.094  14.439 -0.1590  0.0225  0.5434
 1584TIP3    H126167   0.957   0.025  14.430 -0.2944  0.2556 -0.2374
 1584TIP3    H226168   1.086   0.058  14.502 -1.1702 -0.0841  1.5194
 1585TIP3   OH226169   6.099   3.914   2.915  0.4231  0.1519  0.2054
 1585TIP3    H126170   6.045   3.935   2.838 -0.3978 -0.9606  0.4565
 1585TIP3    H226171   6.183   3.888   2.878  0.4468  0.8204 -0.2441
 1586TIP3   OH226172   6.606   5.157  16.834  0.4588 -0.2412  0.1032
 1586TIP3    H126173   6.633   5.174  16.743  1.1258 -0.0974  0.3160
 1586TIP3    H226174   6.610   5.061  16.842  1.0706 -0.2197  0.1657
 1587TIP3   OH226175   0.288   2.444  12.321 -0.4197 -0.0036 -0.1750
 1587TIP3    H126176   0.259   2.379  12.385 -2.2754  2.0086  1.1525
 1587TIP3    H226177   0.240   2.523  12.344  1.6525  1.8359 -1.8040
 1588TIP3   OH226178   2.643   2.245  15.503  0.5401  0.1771  0.0588
 1588TIP3    H126179   2.590   2.169  15.477  0.6560  0.1071  0.0286
 1588TIP3    H226180   2.638   2.304  15.428 -1.1802  1.0851  0.8151
 1589TIP3   OH226181   4.501   0.622  12.972  0.1656 -0.0081  0.6613
 1589TIP3    H126182   4.457   0.541  12.996 -1.5160  0.4534 -0.6655
 1589TIP3    H226183   4.484   0.682  13.044  0.1414 -0.3693  0.9568
 1590TIP3   OH226184   6.738   2.987   4.244 -0.1532  0.2523  0.0005
 1590TIP3    H126185   6.694   2.997   4.328 -0.1237  1.4002 -0.1049
 1590TIP3    H226186   6.824   3.027   4.256 -0.3853  1.0221 -0.7357
 1591TIP3   OH226187   5.630   4.017   3.201  0.4085 -0.4055  0.4092
 1591TIP3    H126188   5.535   4.027   3.201  0.1976 -1.5779 -2.1027
 1591TIP3    H226189   5.663   4.100   3.165  0.3924  0.0963  1.5072
 1592TIP3   OH226190   6.325   6.693  12.930 -0.6796  0.2035  0.5284
 1592TIP3    H126191   6.386   6.744  12.982 -0.5927  0.3280  0.3029
 1592TIP3    H226192   6.298   6.621  12.988 -0.3408  0.1624  0.6339
 1593TIP3   OH226193   0.661   2.161  15.670 -0.5882 -0.0527  0.1828
 1593TIP3    H126194   0.650   2.106  15.747 -0.5434 -1.3313 -0.6874
 1593TIP3    H226195   0.612   2.116  15.601  1.4179 -0.3368 -1.1575
 1594TIP3   OH226196   1.335   1.574  13.627 -0.2027  0.5390 -0.1709
 1594TIP3    H126197   1.280   1.646  13.657 -0.4218 -0.0447  0.8754
 1594TIP3    H226198   1.306   1.558  13.537  1.1938  3.0403 -1.1852
 1595TIP3   OH226199   4.123   1.040  11.665  0.4531  0.2247  0.2715
 1595TIP3    H126200   4.078   0.956  11.659  2.2184 -0.9011  1.6571
 1595TIP3    H226201   4.077   1.086  11.735  0.3284 -0.1611  0.4473
 1596TIP3   OH226202   0.192   0.110   1.713 -0.1197  0.3082 -0.0819
 1596TIP3    H126203   0.165   0.128   1.622  0.3920  0.3826 -0.2218
 1596TIP3    H226204   0.184   0.194   1.757  0.6147  0.5060 -0.3132
 1597TIP3   OH226205   0.016   0.299  12.124 -0.0098 -0.3549  0.1173
 1597TIP3    H126206  -0.010   0.350  12.200  1.1702  0.1314  0.2123
 1597TIP3    H226207   0.092   0.344  12.089 -0.4773 -0.6141 -1.3232
 1598TIP3   OH226208   4.340   1.916  11.818 -0.4748  0.0031 -0.3005
 1598TIP3    H126209   4.246   1.928  11.818 -0.6228 -1.0525 -0.7594
 1598TIP3    H226210   4.372   1.974  11.887 -1.3691  0.9463 -0.6686
 1599TIP3   OH226211   5.564   0.898  14.877  0.0065  0.3190 -0.7749
 1599TIP3    H126212   5.553   0.832  14.808  0.3199 -1.1761  0.5335
 1599TIP3    H226213   5.617   0.967  14.836  0.9513 -0.9354 -1.7714
 1600TIP3   OH226214   1.405   0.023   2.480 -0.2081 -0.2672  0.0975
 1600TIP3    H126215   1.348   0.047   2.408  1.3071 -1.7000 -1.6796
 1600TIP3    H226216   1.369  -0.060   2.513  0.3712 -0.7755 -0.5214
 1601TIP3   OH226217   6.266   0.440  14.719 -0.1679  0.4683  0.6109
 1601TIP3    H126218   6.228   0.514  14.766  0.5449  0.1878  1.6535
 1601TIP3    H226219   6.288   0.475  14.633 -1.0665  1.1070  0.6235
 1602TIP3   OH226220   0.355   1.311  11.869  0.2791  0.6534 -0.4829
 1602TIP3    H126221   0.340   1.217  11.857 -0.1283  0.8735 -2.0270
 1602TIP3    H226222   0.286   1.339  11.929  0.9795 -0.1796  0.7430
 1603TIP3   OH226223   2.575   5.324   5.766  0.0192 -0.0846  0.0564
 1603TIP3    H126224   2.565   5.398   5.826  0.4402  0.6096 -0.7100
 1603TIP3    H226225   2.659   5.285   5.790  0.0975  0.0748  0.0424
 1604TIP3   OH226226   1.557   2.358  16.191 -0.3337 -0.8467  0.8018
 1604TIP3    H126227   1.490   2.316  16.136  0.2624 -3.2754  1.7866
 1604TIP3    H226228   1.518   2.441  16.216 -2.3568 -1.4981  0.0735
 1605TIP3   OH226229   5.235   1.504  11.139  0.2801  0.5649 -0.3122
 1605TIP3    H126230   5.328   1.484  11.137  0.0398 -0.6898  0.3067
 1605TIP3    H226231   5.215   1.533  11.049  0.8831 -1.0385 -1.0052
 1606TIP3   OH226232   3.662   1.725  12.795 -0.0137  0.2156  0.6601
 1606TIP3    H126233   3.580   1.767  12.771  0.0453  0.0144  0.1061
 1606TIP3    H226234   3.720   1.739  12.720  0.5882  0.6932  1.1959
 1607TIP3   OH226235   2.731   2.705  12.356  0.1131  0.0318  0.2606
 1607TIP3    H126236   2.677   2.702  12.435 -1.0008  0.0811 -0.4680
 1607TIP3    H226237   2.755   2.798  12.347 -0.0900  0.0904  0.3273
 1608TIP3   OH226238   0.130   3.499  16.859 -0.1754 -0.3246 -0.3210
 1608TIP3    H126239   0.163   3.455  16.937 -0.1900 -0.7065 -0.5274
 1608TIP3    H226240   0.047   3.456  16.840 -0.5251  0.2559 -0.1302
 1609TIP3   OH226241   2.741   6.326  11.295 -0.0338  0.5944  0.1643
 1609TIP3    H126242   2.651   6.358  11.288  0.9742  3.5820 -0.8669
 1609TIP3    H226243   2.761   6.291  11.208  0.1817  1.1368 -0.0097
 1610TIP3   OH226244   5.977   5.630  14.743 -0.6539 -0.1801 -0.3604
 1610TIP3    H126245   6.014   5.574  14.676  0.8430  0.1979  0.1129
 1610TIP3    H226246   5.956   5.711  14.697  0.8494  0.2693 -0.3212
 1611TIP3   OH226247   1.316   2.592  12.009  0.1572  0.6474  0.1840
 1611TIP3    H126248   1.345   2.662  11.952  1.9231  1.2309  1.6997
 1611TIP3    H226249   1.292   2.637  12.091 -0.0702 -0.3835  0.6994
 1612TIP3   OH226250   0.015   4.955  11.241 -0.1610 -0.3843  0.0540
 1612TIP3    H126251   0.050   5.006  11.315  0.9972  1.7596 -1.8444
 1612TIP3    H226252   0.062   4.872  11.245  0.3445 -0.0676  1.3513
 1613TIP3   OH226253   2.087   4.883   2.879  0.6761 -0.1145 -0.9120
 1613TIP3    H126254   2.014   4.940   2.853  0.4575  0.0943  0.1062
 1613TIP3    H226255   2.082   4.881   2.975  0.4030 -2.2305 -0.9277
 1614TIP3   OH226256   5.162   2.931  15.282 -0.0256 -0.1881  0.6127
 1614TIP3    H126257   5.096   2.924  15.351  0.8710 -0.6762  1.4561
 1614TIP3    H226258   5.215   2.852  15.292  1.0549  0.4793  0.3490
 1615TIP3   OH226259   3.510   3.089   1.348  0.0994 -0.0920 -0.0136
 1615TIP3    H126260   3.475   3.154   1.409  2.0404  1.6628 -0.6634
 1615TIP3    H226261   3.480   3.118   1.262  0.4339 -0.4426 -0.2510
 1616TIP3   OH226262   2.142   6.178   2.352 -0.3547 -0.2182 -0.5122
 1616TIP3    H126263   2.063   6.229   2.334 -0.2555  0.0879 -0.0813
 1616TIP3    H226264   2.145   6.113   2.281 -0.2431  0.6480 -1.3194
 1617TIP3   OH226265   5.372   2.068  12.496 -0.1572 -0.2755  0.0275
 1617TIP3    H126266   5.391   2.078  12.589 -0.8443 -0.7064  0.2203
 1617TIP3    H226267   5.439   2.007  12.464 -0.8584 -1.3567  0.5776
 1618TIP3   OH226268   5.915   1.412  13.636  0.3746  0.0858  0.5288
 1618TIP3    H126269   6.000   1.367  13.634  0.6460  0.5973 -1.1669
 1618TIP3    H226270   5.903   1.437  13.728  2.1479  0.1803  0.7595
 1619TIP3   OH226271   0.980   1.922  16.967  0.7641 -0.6740 -0.5156
 1619TIP3    H126272   0.994   1.882  16.882 -0.1203 -0.7252 -0.6497
 1619TIP3    H226273   0.897   1.969  16.958  0.7246 -0.5707  0.2742
 1620TIP3   OH226274   5.809   3.262  11.705 -0.1180  0.1909  0.5448
 1620TIP3    H126275   5.737   3.303  11.752 -0.4285  0.2939 -0.0049
 1620TIP3    H226276   5.767   3.219  11.630  0.4810  1.0387 -0.2951
 1621TIP3   OH226277   4.349   4.713  10.199 -0.0144  0.5531  0.5397
 1621TIP3    H126278   4.271   4.768  10.194  0.8883  1.7762 -0.7417
 1621TIP3    H226279   4.370   4.709  10.292 -2.1939 -0.7049  1.0478
 1622TIP3   OH226280   1.072   3.776  10.800 -0.4283  0.4706  0.4857
 1622TIP3    H126281   1.068   3.718  10.876 -1.2114 -0.5003 -0.2751
 1622TIP3    H226282   1.060   3.719  10.725  0.6606  1.3667 -0.4099
 1623TIP3   OH226283   5.643   1.556   3.739 -0.3312 -0.1011  0.1508
 1623TIP3    H126284   5.686   1.636   3.770  2.0978 -1.2394 -0.1310
 1623TIP3    H226285   5.596   1.584   3.660  0.4990  1.0457  0.0339
 1624TIP3   OH226286   5.390   5.686   2.855  0.2175  0.2247 -0.4969
 1624TIP3    H126287   5.463   5.651   2.907 -0.6040 -0.9141 -0.0576
 1624TIP3    H226288   5.414   5.777   2.837  0.1920  0.9459  2.5698
 1625TIP3   OH226289   4.046   6.130  16.665  0.2148  0.3439 -0.2893
 1625TIP3    H126290   4.112   6.069  16.701 -0.1010  0.2160  0.0785
 1625TIP3    H226291   4.077   6.148  16.577  0.9735  0.6087  0.0159
 1626TIP3   OH226292   0.538   2.357  13.361  0.2354  0.3272 -0.4547
 1626TIP3    H126293   0.471   2.362  13.293 -0.6458 -0.3654  0.3202
 1626TIP3    H226294   0.496   2.308  13.432  1.3192  0.5255  0.3566
 1627TIP3   OH226295   4.550   0.399   2.863  0.4569  0.5277 -0.2266
 1627TIP3    H126296   4.518   0.388   2.953 -0.8411  0.4157 -0.6907
 1627TIP3    H226297   4.604   0.322   2.848 -0.5531 -0.2317 -0.0497
 1628TIP3   OH226298   3.104   2.817  11.967  0.1943 -0.0289 -0.7926
 1628TIP3    H126299   3.192   2.855  11.970  0.3737 -0.4901  0.2210
 1628TIP3    H226300   3.099   2.762  12.046 -1.0715  0.1421 -0.7369
 1629TIP3   OH226301   1.591   3.689   1.299  0.9194 -0.5645  0.0160
 1629TIP3    H126302   1.612   3.695   1.392  1.7385  1.1036 -0.2420
 1629TIP3    H226303   1.503   3.726   1.292  2.0324  2.2336 -0.2218
 1630TIP3   OH226304   4.312   5.635  16.918 -0.2721 -0.0598  0.0110
 1630TIP3    H126305   4.256   5.558  16.918  0.2421 -0.4655  1.1787
 1630TIP3    H226306   4.390   5.608  16.869 -1.2006  0.6232 -1.9328
 1631TIP3   OH226307   1.832   3.069   3.474 -0.1362 -0.1577  0.2589
 1631TIP3    H126308   1.884   3.016   3.415  1.1890 -0.3432  1.5303
 1631TIP3    H226309   1.867   3.158   3.464 -1.4724  0.2713 -0.9043
 1632TIP3   OH226310   3.118   4.743  13.315  0.1952  0.1794  0.5164
 1632TIP3    H126311   3.152   4.802  13.248  0.1911  0.3841  0.6938
 1632TIP3    H226312   3.108   4.798  13.393  1.3942 -0.3315  1.0482
 1633TIP3   OH226313   5.414   1.107   2.348  0.7982 -0.1671 -0.2338
 1633TIP3    H126314   5.425   1.142   2.437  0.0281  0.3710 -0.3404
 1633TIP3    H226315   5.453   1.020   2.352  0.7253 -0.1707  0.6532
 1634TIP3   OH226316   2.701   5.237   3.689  0.4519  0.4643 -0.2395
 1634TIP3    H126317   2.783   5.189   3.706 -0.6462 -1.6636 -0.5668
 1634TIP3    H226318   2.639   5.169   3.663 -1.3363  2.0727 -0.3743
 1635TIP3   OH226319   3.283   0.401   1.885  0.8149  0.7273 -0.2008
 1635TIP3    H126320   3.211   0.464   1.886 -0.6042 -0.8169 -0.4879
 1635TIP3    H226321   3.274   0.356   1.801 -0.2956 -2.0613  1.2758
 1636TIP3   OH226322   5.755   3.457  13.027  0.1096 -0.9258  0.1694
 1636TIP3    H126323   5.684   3.395  13.011  1.6908 -2.5627 -1.0392
 1636TIP3    H226324   5.778   3.489  12.940 -0.2533  0.9354  0.7213
 1637TIP3   OH226325   4.333   5.847  11.156  0.3717 -0.2317 -0.0756
 1637TIP3    H126326   4.367   5.820  11.070 -1.3560 -1.6813 -0.3745
 1637TIP3    H226327   4.272   5.918  11.136 -1.2559 -1.6330 -0.3005
 1638TIP3   OH226328   6.061   5.207  12.060 -0.1555  0.6815 -0.3492
 1638TIP3    H126329   5.989   5.268  12.050 -1.4444 -0.5443  1.0544
 1638TIP3    H226330   6.080   5.205  12.153 -0.8405 -1.7348 -0.1798
 1639TIP3   OH226331   3.971   2.251   4.836 -0.0620  0.0191 -0.3069
 1639TIP3    H126332   3.981   2.273   4.743 -0.3054  0.1610 -0.3003
 1639TIP3    H226333   3.905   2.182   4.838  0.6363 -0.6727 -0.3210
 1640TIP3   OH226334   6.098   5.454  15.858 -0.0205  0.0889  0.5112
 1640TIP3    H126335   6.029   5.404  15.814 -0.1738  0.7153  0.0166
 1640TIP3    H226336   6.051   5.520  15.908  0.2093  0.3680  0.3628
 1641TIP3   OH226337   3.503   5.788   1.276  0.2577 -0.2270 -0.3917
 1641TIP3    H126338   3.424   5.734   1.273  0.5322 -0.6746  0.3428
 1641TIP3    H226339   3.575   5.727   1.258  0.6933 -0.3903  1.7306
 1642TIP3   OH226340   4.548   2.125   3.799 -0.6116 -0.3265  0.5217
 1642TIP3    H126341   4.535   2.117   3.894  1.1851 -2.8053  0.6374
 1642TIP3    H226342   4.493   2.056   3.762 -1.9999  1.1869 -0.3877
 1643TIP3   OH226343   3.042   6.343  15.326 -0.3417  0.4345  0.7387
 1643TIP3    H126344   3.121   6.376  15.284  0.8668 -2.5555  0.4240
 1643TIP3    H226345   3.050   6.373  15.417  0.0397  1.9240  0.2478
 1644TIP3   OH226346   1.460   6.707  16.220 -0.2129 -0.1137  0.2551
 1644TIP3    H126347   1.435   6.615  16.229  0.1455 -0.1425  1.1318
 1644TIP3    H226348   1.462   6.723  16.126  0.0892 -1.1088  0.0801
 1645TIP3   OH226349   2.657   3.158  12.439  0.0655  0.0572 -0.4973
 1645TIP3    H126350   2.597   3.136  12.367  0.4026 -0.9854 -0.4742
 1645TIP3    H226351   2.660   3.079  12.492 -0.5610  0.9811  0.9613
 1646TIP3   OH226352   3.820   3.425   2.945  0.5145  0.3931 -0.4745
 1646TIP3    H126353   3.850   3.505   2.988 -1.6081  0.7864  0.3678
 1646TIP3    H226354   3.735   3.448   2.907 -1.3609 -2.0261  1.8804
 1647TIP3   OH226355   6.706   2.109   0.081  0.2733  0.5214  0.4317
 1647TIP3    H126356   6.712   2.168   0.156  1.0078 -0.2515  0.9999
 1647TIP3    H226357   6.616   2.077   0.084  0.6619 -0.5446  1.8193
 1648TIP3   OH226358   1.574   5.938  15.805 -0.3588  0.3048  0.0260
 1648TIP3    H126359   1.610   5.877  15.870  0.2305 -1.4784 -1.8530
 1648TIP3    H226360   1.651   5.967  15.755 -0.8476  1.3300 -0.1574
 1649TIP3   OH226361   3.050   0.242  16.047  0.5907  0.2611  0.4064
 1649TIP3    H126362   2.957   0.255  16.068  0.6021 -0.0976  0.7048
 1649TIP3    H226363   3.067   0.152  16.074  0.8952  0.1565 -0.1346
 1650TIP3   OH226364   2.227   0.574  12.078 -0.1621 -0.1962 -0.0392
 1650TIP3    H126365   2.193   0.557  11.990 -0.4314 -0.5295  0.1259
 1650TIP3    H226366   2.319   0.550  12.073 -0.2904 -0.6904 -0.0999
 1651TIP3   OH226367   3.920   0.852   4.897  0.1318  0.5184  0.3732
 1651TIP3    H126368   3.921   0.948   4.904  0.2604  0.6043 -0.7307
 1651TIP3    H226369   3.966   0.833   4.816  2.2021 -0.5986  1.7024
 1652TIP3   OH226370   3.991   3.519   3.739  0.0253 -0.7828 -0.8350
 1652TIP3    H126371   3.978   3.481   3.826  1.3204 -1.7520 -1.0235
 1652TIP3    H226372   3.907   3.558   3.716  0.0210  0.7184  1.4154
 1653TIP3   OH226373   3.120   6.719  16.842  0.2508  0.1820  0.4144
 1653TIP3    H126374   3.105   6.797  16.788  1.1002 -1.1289 -1.8537
 1653TIP3    H226375   3.207   6.733  16.880 -0.4198  1.1871  1.6422
 1654TIP3   OH226376   0.039   2.121   4.559  0.0800  0.3494  0.5800
 1654TIP3    H126377   0.087   2.152   4.636  1.2959  0.0285 -0.0255
 1654TIP3    H226378  -0.036   2.180   4.553  1.6000  2.3746  0.2476
 1655TIP3   OH226379   3.956   3.635   5.371 -0.0456 -0.3193  0.2865
 1655TIP3    H126380   3.919   3.651   5.284  0.9965  2.2046  0.2337
 1655TIP3    H226381   3.891   3.669   5.432  0.0422 -0.4048  0.4294
 1656TIP3   OH226382   1.631   6.050  11.377 -0.0762 -0.4938  0.0378
 1656TIP3    H126383   1.572   6.118  11.345 -1.5321 -1.3875  0.7277
 1656TIP3    H226384   1.634   6.062  11.472  1.4509 -0.0386 -0.0264
 1657TIP3   OH226385   2.967   5.597   1.619  0.1500  0.0821 -0.0916
 1657TIP3    H126386   3.036   5.647   1.663 -1.2589  1.3481  0.7837
 1657TIP3    H226387   2.960   5.517   1.670  0.3865  0.3369  0.3523
 1658TIP3   OH226388   3.581   1.785   3.053 -0.1610  0.0069  0.3390
 1658TIP3    H126389   3.517   1.772   3.123 -1.3740  0.7230 -0.6100
 1658TIP3    H226390   3.540   1.750   2.974  0.8874 -0.1219 -0.1778
 1659TIP3   OH226391   2.111   2.083   1.173  0.4057 -0.5695 -0.1573
 1659TIP3    H126392   2.131   2.020   1.242  0.5379  0.6769  0.9977
 1659TIP3    H226393   2.048   2.143   1.213  1.4265  0.9052 -0.6635
 1660TIP3   OH226394   5.635   5.927  13.248  0.0887 -0.3480 -0.0169
 1660TIP3    H126395   5.674   5.867  13.312 -1.6478 -1.2716  0.2369
 1660TIP3    H226396   5.627   5.876  13.168  1.1250  0.4302 -0.6409
 1661TIP3   OH226397   0.608   3.671   5.567  0.0152  0.2601 -0.1026
 1661TIP3    H126398   0.617   3.683   5.662 -1.1950  0.1195  0.0457
 1661TIP3    H226399   0.569   3.584   5.557  1.8101 -0.5142 -0.8370
 1662TIP3   OH226400   6.296   6.238  13.330  0.5570 -0.0609  0.1627
 1662TIP3    H126401   6.249   6.290  13.395 -0.4745 -1.3738  0.5130
 1662TIP3    H226402   6.373   6.206  13.376  0.2319 -0.3555  0.4999
 1663TIP3   OH226403   6.576   3.188  15.386 -0.1543  0.4274  0.1305
 1663TIP3    H126404   6.600   3.221  15.299 -1.7522 -1.3114 -1.0710
 1663TIP3    H226405   6.639   3.228  15.446  1.7116  0.8174 -1.9642
 1664TIP3   OH226406   4.947   2.194   2.829 -0.0976  0.2039  0.2791
 1664TIP3    H126407   5.001   2.138   2.884 -0.4685 -0.6935 -0.2392
 1664TIP3    H226408   4.945   2.279   2.874  0.6819 -0.1245  0.9479
 1665TIP3   OH226409   0.418   3.648  13.631 -0.4282  0.3420  0.0552
 1665TIP3    H126410   0.481   3.713  13.600  0.6995 -0.3026  0.9075
 1665TIP3    H226411   0.333   3.684  13.607  0.1229  2.3532  0.8581
 1666TIP3   OH226412   1.674   1.634  15.749 -0.7993  0.3659  0.8088
 1666TIP3    H126413   1.651   1.601  15.836 -1.7138  0.9019  0.7784
 1666TIP3    H226414   1.594   1.624  15.698 -0.5958  1.1074  0.3441
 1667TIP3   OH226415   6.666   1.761  14.605  0.2343 -0.0643 -0.1469
 1667TIP3    H126416   6.652   1.679  14.652 -0.0640 -0.0355 -0.1846
 1667TIP3    H226417   6.758   1.757  14.577  0.1339 -0.5337 -0.4284
 1668TIP3   OH226418   0.316   0.210   1.030 -0.2959 -0.4847 -0.2534
 1668TIP3    H126419   0.239   0.256   0.997 -0.8943 -1.3339 -0.0538
 1668TIP3    H226420   0.390   0.255   0.989 -0.8516  0.7953  0.1088
 1669TIP3   OH226421   4.091   3.793   2.517 -0.2571  0.0111  0.0739
 1669TIP3    H126422   4.019   3.815   2.458 -0.9245 -0.0567  0.8427
 1669TIP3    H226423   4.048   3.764   2.598  0.5886 -2.5048 -0.3043
 1670TIP3   OH226424   3.234   2.128  13.430 -0.7814  0.4360 -0.5923
 1670TIP3    H126425   3.321   2.156  13.459 -1.3028  1.2109  0.2854
 1670TIP3    H226426   3.234   2.148  13.336 -0.5255  1.8483 -0.3155
 1671TIP3   OH226427   2.313   4.008  13.247  0.2351  0.2545 -0.6885
 1671TIP3    H126428   2.291   3.930  13.298 -1.4012  2.0248  1.5575
 1671TIP3    H226429   2.280   3.989  13.159 -0.9842 -1.2191  0.0341
 1672TIP3   OH226430   4.197   0.706   1.611 -0.2879  0.5814  0.1323
 1672TIP3    H126431   4.209   0.611   1.611 -1.6937  0.3662  0.9570
 1672TIP3    H226432   4.102   0.718   1.600 -0.1671  1.8792  0.2963
 1673TIP3   OH226433   3.494   0.016  12.920  0.0576  0.2647  0.5292
 1673TIP3    H126434   3.493  -0.008  12.827 -1.4535 -0.7056  0.7730
 1673TIP3    H226435   3.469   0.108  12.921  1.0103  0.5536 -0.0641
 1674TIP3   OH226436   1.225   4.448  12.521  0.3126  0.4653  0.0404
 1674TIP3    H126437   1.296   4.505  12.491  0.4527 -0.1356 -0.8117
 1674TIP3    H226438   1.224   4.458  12.616  0.6386  1.5238 -0.0626
 1675TIP3   OH226439   4.453   0.846  10.259 -0.2275  0.1878  0.0880
 1675TIP3    H126440   4.494   0.899  10.327 -1.7830 -0.9328  1.9688
 1675TIP3    H226441   4.523   0.789  10.228  0.8198  1.5746 -0.2165
 1676TIP3   OH226442   0.356   2.570  13.486 -0.3157 -0.2579 -0.3000
 1676TIP3    H126443   0.392   2.658  13.472  0.9284 -0.5243  0.9527
 1676TIP3    H226444   0.418   2.512  13.444 -1.1049 -0.5675 -1.0706
 1677TIP3   OH226445   2.090   2.323   2.844  0.0550 -0.4276  0.1076
 1677TIP3    H126446   2.020   2.383   2.817  0.8509  0.3548 -0.2706
 1677TIP3    H226447   2.145   2.314   2.766  1.0136 -0.1061  0.7298
 1678TIP3   OH226448   6.386   4.649  16.418  0.1158  0.2840  0.7510
 1678TIP3    H126449   6.312   4.709  16.429 -1.1530 -0.9526 -0.6033
 1678TIP3    H226450   6.351   4.563  16.444  1.1738 -0.2633  0.3945
 1679TIP3   OH226451   4.583   4.425   6.031 -0.2544 -0.5710  0.2007
 1679TIP3    H126452   4.669   4.448   5.997 -0.7220 -0.0903 -0.6839
 1679TIP3    H226453   4.577   4.330   6.020  0.0527 -0.5689  0.0126
 1680TIP3   OH226454   6.219   3.162  13.975  0.7642  0.5128  0.5097
 1680TIP3    H126455   6.256   3.090  14.027  2.0711  0.5406 -0.3347
 1680TIP3    H226456   6.148   3.197  14.030 -0.1959 -1.6678  0.7809
 1681TIP3   OH226457   1.447   3.996  13.225  0.2787 -0.2083  0.5484
 1681TIP3    H126458   1.365   3.952  13.203 -0.6776 -0.2129  3.7044
 1681TIP3    H226459   1.503   3.926  13.258  0.9682  0.0456 -0.0734
 1682TIP3   OH226460   4.170   1.757   4.770  0.2071 -0.4195 -0.1775
 1682TIP3    H126461   4.129   1.766   4.684 -0.3993  0.3834  0.1790
 1682TIP3    H226462   4.108   1.798   4.830  1.8413  1.4843  0.2941
 1683TIP3   OH226463   0.127   3.551  13.695 -0.2496 -0.3914 -0.3891
 1683TIP3    H126464   0.205   3.517  13.652 -0.7142 -1.3702 -0.4748
 1683TIP3    H226465   0.054   3.505  13.654 -0.8612  0.3298 -0.1373
 1684TIP3   OH226466   1.762   0.508   0.815 -0.4391 -0.0877 -0.1859
 1684TIP3    H126467   1.812   0.585   0.843  1.4294 -0.2784 -2.6721
 1684TIP3    H226468   1.672   0.541   0.807 -0.1059  1.2247  0.9583
 1685TIP3   OH226469   4.294   1.971   3.750 -0.6333  0.1884  1.6327
 1685TIP3    H126470   4.248   1.889   3.732 -1.5754  1.4363 -3.1566
 1685TIP3    H226471   4.226   2.032   3.776 -0.3787  0.1574  2.3945
 1686TIP3   OH226472   4.713   3.972   4.418 -0.3697 -0.4872  0.2025
 1686TIP3    H126473   4.650   3.984   4.347  1.2026  1.4414 -0.9374
 1686TIP3    H226474   4.671   4.014   4.494 -1.1839 -0.7681 -0.0760
 1687TIP3   OH226475   2.075   5.866   4.984 -0.7597 -0.2142 -0.0467
 1687TIP3    H126476   2.012   5.936   5.002 -0.5031  0.0971 -0.3209
 1687TIP3    H226477   2.126   5.857   5.065  0.7290  1.5279 -0.7083
 1688TIP3   OH226478   6.137   1.515   1.884 -0.3685 -0.2758 -0.3854
 1688TIP3    H126479   6.212   1.458   1.899 -1.5207 -1.7142  0.1265
 1688TIP3    H226480   6.129   1.566   1.965  0.5043  0.4505 -0.7425
 1689TIP3   OH226481   1.602   6.260  12.262  0.2572 -0.3584  0.0948
 1689TIP3    H126482   1.516   6.266  12.303  0.7963  0.4721  1.1677
 1689TIP3    H226483   1.634   6.174  12.288  0.0328 -0.3866  0.2828
 1690TIP3   OH226484   4.682   2.269   5.226  0.5609 -0.4134  0.2338
 1690TIP3    H126485   4.693   2.177   5.202  1.2303 -0.4774  0.7474
 1690TIP3    H226486   4.597   2.273   5.269 -1.9599  0.1475 -4.1584
 1691TIP3   OH226487   0.948   3.639  15.787 -0.5918  0.0382 -0.0074
 1691TIP3    H126488   0.973   3.572  15.850 -0.6156  1.2834  1.3779
 1691TIP3    H226489   1.030   3.663  15.744 -1.1015 -4.4135 -4.3953
 1692TIP3   OH226490   0.047   0.590   1.919 -0.0587 -0.4066  0.2561
 1692TIP3    H126491   0.037   0.633   1.834  2.2283  1.3732  0.7820
 1692TIP3    H226492  -0.024   0.627   1.973  0.9289  1.6452  0.2419
 1693TIP3   OH226493   5.124   4.377   2.676 -0.0088 -0.0213  0.3287
 1693TIP3    H126494   5.103   4.453   2.623 -0.2134  1.3555  2.2537
 1693TIP3    H226495   5.043   4.327   2.680  0.1545 -0.4382 -1.0268
 1694TIP3   OH226496   4.346   3.368   0.040 -0.7828  0.0864 -0.5226
 1694TIP3    H126497   4.313   3.294  -0.011 -0.1275  0.8526 -2.1293
 1694TIP3    H226498   4.280   3.382   0.108 -1.6897 -0.9733 -1.1537
 1695TIP3   OH226499   2.273   2.524   5.844 -0.2495 -0.4725 -0.0121
 1695TIP3    H126500   2.312   2.480   5.919  2.8880  1.1350 -0.5090
 1695TIP3    H226501   2.234   2.603   5.881  0.6976 -0.0223  0.0663
 1696TIP3   OH226502   5.795   4.757  16.272 -0.1907  0.3550 -0.0042
 1696TIP3    H126503   5.708   4.754  16.312  0.0668 -0.8762  0.4996
 1696TIP3    H226504   5.794   4.689  16.205  0.4279  0.2346  0.0990
 1697TIP3   OH226505   5.827   3.852  10.972  0.0688 -0.5958  0.3531
 1697TIP3    H126506   5.808   3.804  10.891 -0.5132  0.3875 -0.1183
 1697TIP3    H226507   5.745   3.850  11.021 -1.3245  3.1522 -1.4210
 1698TIP3   OH226508   0.397   4.976  13.283 -0.3782  0.1985  0.1803
 1698TIP3    H126509   0.317   5.004  13.325 -0.3060  0.3265  0.2331
 1698TIP3    H226510   0.439   5.057  13.254  0.0631  0.1783  0.7555
 1699TIP3   OH226511   5.519   4.281   3.912 -0.0147 -0.2710  0.1407
 1699TIP3    H126512   5.537   4.192   3.881 -0.3755  0.3544 -2.0285
 1699TIP3    H226513   5.437   4.273   3.960 -0.0377 -1.1258 -0.0220
 1700TIP3   OH226514   2.710   0.736  13.854  0.0828 -0.3768  0.3567
 1700TIP3    H126515   2.791   0.685  13.845 -0.9234 -1.8629 -0.7678
 1700TIP3    H226516   2.648   0.693  13.795 -1.4093  1.0017  0.8482
 1701TIP3   OH226517   3.357   6.560   0.953 -0.5962 -0.0923  0.0891
 1701TIP3    H126518   3.391   6.589   0.869 -0.0408 -3.3606 -0.9741
 1701TIP3    H226519   3.294   6.628   0.978 -0.9755  0.9160 -3.0741
 1702TIP3   OH226520   3.853   3.836  14.447  0.3450  0.3258 -0.1758
 1702TIP3    H126521   3.801   3.763  14.414  2.2263 -1.6779  1.0097
 1702TIP3    H226522   3.903   3.867  14.371  0.9189 -0.8786 -0.3003
 1703TIP3   OH226523   5.256   4.042  15.881  0.1978 -0.5267 -0.2908
 1703TIP3    H126524   5.247   3.963  15.829 -0.0957 -0.4407 -0.3771
 1703TIP3    H226525   5.329   4.025  15.940 -1.0241 -1.6023  1.0095
 1704TIP3   OH226526   6.307   0.880   0.075 -0.1382 -0.2808  0.1819
 1704TIP3    H126527   6.351   0.914  -0.003 -0.2130  0.7449  0.5672
 1704TIP3    H226528   6.271   0.796   0.048  0.8516 -0.4902 -0.5409
 1705TIP3   OH226529   0.459   2.506  16.688  0.8717  0.0197  0.3891
 1705TIP3    H126530   0.495   2.590  16.714  0.0148  0.3145  0.6532
 1705TIP3    H226531   0.451   2.457  16.770 -0.9424  0.6030  0.6034
 1706TIP3   OH226532   2.605   4.873  13.568  0.1587  0.7460  0.9948
 1706TIP3    H126533   2.602   4.889  13.662 -0.2663  0.4607  1.0365
 1706TIP3    H226534   2.676   4.810  13.556 -1.7185 -1.6787  1.5432
 1707TIP3   OH226535   0.431   2.307   0.005  0.2882 -0.1274 -0.1023
 1707TIP3    H126536   0.357   2.248   0.021  0.1938  0.3244  1.2791
 1707TIP3    H226537   0.448   2.347   0.090  1.6679  0.3211 -0.5709
 1708TIP3   OH226538   5.497   5.568  15.822  0.0473  0.2180 -0.2697
 1708TIP3    H126539   5.468   5.656  15.843  0.6995  0.2348  0.5791
 1708TIP3    H226540   5.486   5.519  15.903  0.0489 -0.3914 -0.6291
 1709TIP3   OH226541   5.145   6.561  12.819  0.7654  0.1203 -0.5657
 1709TIP3    H126542   5.233   6.522  12.815  0.2878 -0.8874 -2.7413
 1709TIP3    H226543   5.145   6.628  12.750  0.0227  0.6076 -0.1151
 1710TIP3   OH226544   0.687   0.746   0.518 -0.4514  0.6272  0.2181
 1710TIP3    H126545   0.782   0.754   0.508 -0.6601  2.9316 -0.5289
 1710TIP3    H226546   0.673   0.743   0.613  0.3463  0.4723  0.3392
 1711TIP3   OH226547   6.647   4.894  14.105 -0.0475  0.2353  0.7672
 1711TIP3    H126548   6.692   4.809  14.102  0.1103  0.3114  0.9335
 1711TIP3    H226549   6.559   4.873  14.135 -0.1725  0.0662  0.3001
 1712TIP3   OH226550   1.428   5.563   2.069  0.0553  0.2513  0.4570
 1712TIP3    H126551   1.486   5.502   2.113  2.1181  1.5113 -0.3670
 1712TIP3    H226552   1.434   5.539   1.976 -0.2993  0.7739  0.2923
 1713TIP3   OH226553   0.542   1.711   2.801  0.9055 -0.0285  0.4847
 1713TIP3    H126554   0.539   1.703   2.896  1.0046  0.3533  0.5207
 1713TIP3    H226555   0.518   1.624   2.769 -0.2339  0.1398  0.8403
 1714TIP3   OH226556   1.275   3.080   4.424 -0.3198  0.6696  0.3762
 1714TIP3    H126557   1.257   3.173   4.409 -0.9593  0.6818  1.1392
 1714TIP3    H226558   1.192   3.036   4.403 -1.0935  0.6282  3.0753
 1715TIP3   OH226559   2.838   4.760  11.592 -0.4881  0.0691 -0.0589
 1715TIP3    H126560   2.744   4.775  11.586 -0.4199  0.8717  0.7485
 1715TIP3    H226561   2.860   4.715  11.510 -1.5692 -0.1581 -0.2396
 1716TIP3   OH226562   5.860   2.327  12.703 -0.1032  0.0096  0.0199
 1716TIP3    H126563   5.830   2.363  12.620  2.6040  2.4839 -0.0542
 1716TIP3    H226564   5.909   2.248  12.679 -0.6223 -0.1463 -0.5452
 1717TIP3   OH226565   5.802   3.532  13.523 -0.1197 -0.3180  0.1098
 1717TIP3    H126566   5.755   3.505  13.445  1.3356  0.5897 -1.1458
 1717TIP3    H226567   5.881   3.479  13.523  0.3927  0.4170  0.3616
 1718TIP3   OH226568   5.183   0.112  10.921  0.0230 -0.4360 -0.4192
 1718TIP3    H126569   5.090   0.132  10.934 -0.1430 -0.3323 -1.6875
 1718TIP3    H226570   5.197   0.032  10.972 -0.9907 -0.9768 -0.9667
 1719TIP3   OH226571   0.287   0.504  15.208  0.4451  0.0760  0.3693
 1719TIP3    H126572   0.320   0.458  15.285  0.8549  1.6980  1.2201
 1719TIP3    H226573   0.362   0.557  15.179  0.5267 -1.0428 -1.6064
 1720TIP3   OH226574   5.448   0.974  13.261  0.2020  0.1145 -0.1199
 1720TIP3    H126575   5.492   1.040  13.315  0.7144  1.6249 -2.2401
 1720TIP3    H226576   5.392   1.025  13.203 -0.9432 -1.4973 -0.4844
 1721TIP3   OH226577   5.423   3.801   2.850  0.1384 -1.0906 -0.3222
 1721TIP3    H126578   5.438   3.723   2.796 -0.3581 -0.1623 -1.8755
 1721TIP3    H226579   5.511   3.832   2.873  0.3591 -1.4907 -0.6096
 1722TIP3   OH226580   1.825   1.991  16.508  0.0036  0.1976 -0.3178
 1722TIP3    H126581   1.907   2.025  16.545 -0.6087  0.4460  0.8624
 1722TIP3    H226582   1.805   2.051  16.436  1.1850 -0.2531 -1.0568
 1723TIP3   OH226583   0.481   2.509   3.154  0.3918  0.4003  0.6235
 1723TIP3    H126584   0.571   2.536   3.139  0.7331 -0.8023  0.3554
 1723TIP3    H226585   0.486   2.414   3.168 -0.7873  0.3628  0.9435
 1724TIP3   OH226586   2.572   1.349   3.743  0.0299 -0.1502  0.0923
 1724TIP3    H126587   2.583   1.326   3.651  0.2513  1.9100 -0.4307
 1724TIP3    H226588   2.649   1.402   3.764 -0.4273  0.0834  1.2437
 1725TIP3   OH226589   1.908   5.015  16.529 -0.0313  0.1419  1.0318
 1725TIP3    H126590   1.845   4.945  16.510  1.8742 -1.2722 -0.6120
 1725TIP3    H226591   1.989   4.969  16.553  1.0355  1.7918  0.7845
 1726TIP3   OH226592   4.269   2.347  13.777  0.1361 -0.3786  0.1002
 1726TIP3    H126593   4.292   2.439  13.767  2.7721 -0.5152  3.3568
 1726TIP3    H226594   4.343   2.299  13.740 -0.3610 -1.1598  0.0761
 1727TIP3   OH226595   0.466   3.942  15.069 -0.4497 -0.0803 -0.3769
 1727TIP3    H126596   0.459   3.883  14.994 -1.9371  0.2586 -0.5275
 1727TIP3    H226597   0.429   3.893  15.142  0.2458 -0.1014 -0.0319
 1728TIP3   OH226598   1.611   0.992   4.592  0.2410 -0.0086 -0.4969
 1728TIP3    H126599   1.544   0.987   4.524 -1.0390  1.3233  0.5944
 1728TIP3    H226600   1.653   0.906   4.592  1.5494  0.4624 -4.1819
 1729TIP3   OH226601   1.054   0.350   4.567 -0.6160  0.2362 -0.3520
 1729TIP3    H126602   1.119   0.412   4.533  1.2580 -0.9683  0.8025
 1729TIP3    H226603   0.975   0.402   4.578  0.2397  1.8830 -1.4775
 1730TIP3   OH226604   5.545   3.514  14.796 -0.2326 -0.7340  0.1786
 1730TIP3    H126605   5.499   3.559  14.867 -1.0523 -2.7799  1.0566
 1730TIP3    H226606   5.480   3.507  14.726  0.3737  0.7313 -0.5442
 1731TIP3   OH226607   0.064   5.846  16.651 -0.8346  0.0920 -0.4382
 1731TIP3    H126608  -0.017   5.873  16.694 -1.1614 -0.4379 -0.7057
 1731TIP3    H226609   0.122   5.922  16.658 -1.3723  0.4920 -0.2840
 1732TIP3   OH226610   4.694   0.698  10.298  0.5084  0.4667  0.1680
 1732TIP3    H126611   4.697   0.603  10.308  0.0472  0.1285 -2.3420
 1732TIP3    H226612   4.743   0.731  10.374  2.6685 -1.8573 -0.0565
 1733TIP3   OH226613   4.216   1.809  16.160 -0.5599 -0.3371 -0.2476
 1733TIP3    H126614   4.168   1.854  16.091 -0.1112 -0.8829 -0.9268
 1733TIP3    H226615   4.279   1.754  16.114  1.0228  0.6617  0.6191
 1734TIP3   OH226616   0.799   3.862  11.836  0.3552  0.1522  0.6509
 1734TIP3    H126617   0.852   3.796  11.792 -0.0709 -0.7214  1.4007
 1734TIP3    H226618   0.855   3.939  11.840 -0.0293  0.7394 -2.5266
 1735TIP3   OH226619   6.112   1.598   1.305 -0.2225 -0.2072  0.1786
 1735TIP3    H126620   6.188   1.542   1.324 -1.1932 -1.3188  0.8767
 1735TIP3    H226621   6.101   1.651   1.384  0.6466  0.9609 -0.4505
 1736TIP3   OH226622   2.598   1.005  15.642  0.1903  0.8497 -1.1647
 1736TIP3    H126623   2.522   0.984  15.697  0.6618  2.9069  0.3859
 1736TIP3    H226624   2.636   0.920  15.621 -1.8256 -0.1591 -0.9582
 1737TIP3   OH226625   4.457   4.824   2.299  0.1954  0.0046  0.0681
 1737TIP3    H126626   4.443   4.918   2.308 -0.4426 -0.1296  0.5654
 1737TIP3    H226627   4.506   4.800   2.378  0.6685 -0.0256 -0.2301
 1738TIP3   OH226628   5.493   5.691  16.594  0.4137 -0.4204 -0.5052
 1738TIP3    H126629   5.532   5.621  16.542 -0.1702 -1.1725  0.0626
 1738TIP3    H226630   5.402   5.666  16.605  0.4029 -0.0035  0.4430
 1739TIP3   OH226631   6.744   5.180  14.508 -0.4107 -0.6230  0.5119
 1739TIP3    H126632   6.819   5.154  14.455  1.3244  1.0756  2.0169
 1739TIP3    H226633   6.775   5.176  14.598 -1.3045  2.4247  1.0710
 1740TIP3   OH226634   6.642   5.409   3.548 -0.1758 -0.5436  0.7917
 1740TIP3    H126635   6.728   5.450   3.542 -0.4228 -0.0871  0.3829
 1740TIP3    H226636   6.588   5.473   3.595 -0.8969  0.1670 -0.9334
 1741TIP3   OH226637   2.183   1.301   6.561  0.1891 -0.3084 -0.4214
 1741TIP3    H126638   2.125   1.338   6.627  0.7113 -2.2012  1.1954
 1741TIP3    H226639   2.241   1.374   6.537 -1.3026  0.9567 -0.3322
 1742TIP3   OH226640   1.521   2.616  15.382 -0.2903  0.7211 -0.5095
 1742TIP3    H126641   1.468   2.536  15.382  1.0591 -0.2045  0.0718
 1742TIP3    H226642   1.458   2.685  15.402 -1.1347 -0.4865  1.3750
 1743TIP3   OH226643   4.327   2.344  16.692 -0.3812  0.0518  0.1890
 1743TIP3    H126644   4.271   2.401  16.639 -0.5655 -0.0905  0.2295
 1743TIP3    H226645   4.412   2.388  16.692 -0.1058 -0.4267 -1.0336
 1744TIP3   OH226646   4.859   3.135  11.437 -0.3172 -0.5974 -0.2213
 1744TIP3    H126647   4.822   3.063  11.487 -1.2513 -1.3941 -1.9825
 1744TIP3    H226648   4.940   3.100  11.401  0.7845  0.2404  1.3293
 1745TIP3   OH226649   0.370   1.992  11.920  0.1943  0.3091 -0.7916
 1745TIP3    H126650   0.460   2.007  11.951  0.8228 -2.2386 -1.1364
 1745TIP3    H226651   0.379   1.983  11.825 -0.4689  0.3142 -0.8527
 1746TIP3   OH226652   6.238   4.166   2.907 -0.1094 -0.4548  0.1595
 1746TIP3    H126653   6.329   4.181   2.933 -0.9227 -0.1881  3.3513
 1746TIP3    H226654   6.231   4.071   2.899  0.7967 -0.3907 -1.8125
 1747TIP3   OH226655   0.872   6.157  17.057 -0.5938  0.1493  0.1975
 1747TIP3    H126656   0.869   6.243  17.097 -0.1300 -0.5613  1.8510
 1747TIP3    H226657   0.874   6.096  17.131  2.7599 -1.1824 -0.8112
 1748TIP3   OH226658   4.451   6.201   5.550  0.0192 -0.1162 -0.2068
 1748TIP3    H126659   4.544   6.180   5.548  0.1293  0.3269  0.1222
 1748TIP3    H226660   4.414   6.140   5.615  0.1920  0.1427  0.1350
 1749TIP3   OH226661   5.389   4.852  13.236 -0.6239  0.4074  0.5109
 1749TIP3    H126662   5.406   4.761  13.211 -0.8166  0.0857  1.5395
 1749TIP3    H226663   5.418   4.858  13.327  0.4997  1.6903  0.1030
 1750TIP3   OH226664   1.190   1.266  17.138 -0.1822 -0.8185  0.1900
 1750TIP3    H126665   1.217   1.227  17.221  1.1557 -0.0812  0.1264
 1750TIP3    H226666   1.264   1.320  17.112 -1.6312  1.1308 -0.1186
 1751TIP3   OH226667   6.538   4.173   3.646  0.7463  0.0904 -0.0651
 1751TIP3    H126668   6.563   4.082   3.635  0.6220 -0.3366  2.5407
 1751TIP3    H226669   6.479   4.191   3.573  1.0583 -1.7751 -0.8343
 1752TIP3   OH226670   0.309   0.445  14.643 -0.1031  0.3485 -0.9043
 1752TIP3    H126671   0.303   0.410  14.732  0.7854  1.6714 -0.2899
 1752TIP3    H226672   0.278   0.374  14.587 -0.1366 -0.7199  0.4184
 1753TIP3   OH226673   5.807   1.094  10.462 -0.0645 -0.7318 -0.1537
 1753TIP3    H126674   5.736   1.130  10.410 -0.5917 -0.6790  0.5928
 1753TIP3    H226675   5.863   1.169  10.483 -0.8104 -0.4319  0.8477
 1754TIP3   OH226676   3.360   6.154  11.940 -0.5026 -0.3576 -0.4152
 1754TIP3    H126677   3.326   6.204  11.866  0.6731  0.2463 -0.5826
 1754TIP3    H226678   3.377   6.220  12.007  0.7966 -0.5352 -0.5365
 1755TIP3   OH226679   4.901   6.794  14.551  0.2431  0.7365 -0.5656
 1755TIP3    H126680   4.842   6.741  14.605  0.3080 -0.5939 -1.7433
 1755TIP3    H226681   4.896   6.754  14.464  2.4450  0.9543 -0.8481
 1756TIP3   OH226682   5.478   1.170   1.028 -0.3815  0.0345  0.8692
 1756TIP3    H126683   5.567   1.192   1.003 -1.3572 -0.4527 -3.9083
 1756TIP3    H226684   5.481   1.077   1.050  0.2534 -0.0251  0.5419
 1757TIP3   OH226685   5.684   3.224   0.690 -0.1192 -0.2800  0.4638
 1757TIP3    H126686   5.627   3.187   0.757 -0.6941  2.2458  1.4771
 1757TIP3    H226687   5.682   3.319   0.705  1.2837  0.2323 -1.9217
 1758TIP3   OH226688   3.551   4.024  15.694 -0.2750 -0.3050 -0.0096
 1758TIP3    H126689   3.573   4.074  15.773 -0.9176  0.2830 -0.1928
 1758TIP3    H226690   3.634   4.015  15.647 -0.0396  0.0482  0.3364
 1759TIP3   OH226691   2.485   3.615   3.095 -0.2419 -0.1059 -0.6264
 1759TIP3    H126692   2.507   3.616   3.002  1.1075  0.3388 -0.3262
 1759TIP3    H226693   2.403   3.662   3.102  0.6161  1.5643 -1.3835
 1760TIP3   OH226694   0.208   0.418   6.475  0.2614  0.4790  0.1052
 1760TIP3    H126695   0.294   0.397   6.509  1.4714 -0.0909 -2.9595
 1760TIP3    H226696   0.211   0.513   6.460  1.2736  0.1638 -2.0477
 1761TIP3   OH226697   2.210   3.519  16.126  0.0094 -0.3508 -0.7097
 1761TIP3    H126698   2.139   3.522  16.190 -0.4625 -0.5135 -1.2227
 1761TIP3    H226699   2.278   3.575  16.163 -1.7615  2.7985 -1.8689
 1762TIP3   OH226700   3.006   3.002  14.900 -0.0738  0.1197 -0.0178
 1762TIP3    H126701   3.051   2.996  14.816  1.0862  2.3409  0.3632
 1762TIP3    H226702   2.939   2.934  14.897  0.8702 -0.7908 -2.1404
 1763TIP3   OH226703   0.648   2.417   1.717 -0.3407  0.1006  0.0159
 1763TIP3    H126704   0.559   2.386   1.699 -1.2114  1.8155  1.0456
 1763TIP3    H226705   0.664   2.389   1.807 -0.3032  0.7886  0.2248
 1764TIP3   OH226706   0.310   5.123   2.416  0.0972 -0.8077 -0.7425
 1764TIP3    H126707   0.362   5.202   2.431 -0.7162 -0.3971  0.0021
 1764TIP3    H226708   0.335   5.064   2.488 -1.0885 -0.2630  0.1538
 1765TIP3   OH226709   6.668   1.599  11.044 -0.8368 -0.1779 -0.3265
 1765TIP3    H126710   6.723   1.630  10.972 -0.0472 -1.6628 -0.4016
 1765TIP3    H226711   6.625   1.521  11.009 -2.0405  0.2442  0.1549
 1766TIP3   OH226712   2.345   4.569  16.512  0.3588 -0.1499 -0.1302
 1766TIP3    H126713   2.264   4.614  16.489  0.7456  0.1297 -1.0018
 1766TIP3    H226714   2.376   4.531  16.429  1.5943  0.5474 -0.0160
 1767TIP3   OH226715   4.607   2.332  15.265  0.1627  0.0862  0.0504
 1767TIP3    H126716   4.683   2.278  15.286  1.4771  1.4134 -1.0912
 1767TIP3    H226717   4.631   2.375  15.183 -1.7703  0.6749 -0.2372
 1768TIP3   OH226718   4.899   1.953   5.466  0.2780  0.0179 -0.4297
 1768TIP3    H126719   4.889   2.016   5.538 -0.1856  2.7890 -2.7216
 1768TIP3    H226720   4.980   1.906   5.487  0.5835  1.2680  1.5059
 1769TIP3   OH226721   0.793   1.845  14.702 -0.2838 -0.4038  0.5791
 1769TIP3    H126722   0.878   1.846  14.745 -0.1857 -0.6706  0.3928
 1769TIP3    H226723   0.761   1.935  14.709  1.0908  0.3294 -1.5152
 1770TIP3   OH226724   2.714   5.709   0.468  0.2253  0.0574  0.2332
 1770TIP3    H126725   2.774   5.661   0.410 -2.0158 -2.1902 -0.3889
 1770TIP3    H226726   2.710   5.797   0.431  2.8814  0.2174  0.1598
 1771TIP3   OH226727   6.375   1.821  10.284 -0.0215  0.4647  0.2813
 1771TIP3    H126728   6.320   1.844  10.359 -0.9913 -1.7538  0.3090
 1771TIP3    H226729   6.463   1.809  10.321 -0.0988  1.1630  0.7166
 1772TIP3   OH226730   5.603   5.827  11.104 -0.0199 -0.1373  0.4849
 1772TIP3    H126731   5.582   5.919  11.121 -1.2693 -0.1753 -0.6376
 1772TIP3    H226732   5.695   5.819  11.127 -0.1498  1.1271  1.6210
 1773TIP3   OH226733   3.765   2.475  15.814  0.3708  0.1996 -0.0329
 1773TIP3    H126734   3.767   2.424  15.733 -0.6729 -0.0439  0.0793
 1773TIP3    H226735   3.672   2.493  15.829  0.3069 -1.4965  2.1730
 1774TIP3   OH226736   4.621   5.193   2.168 -0.0167  0.3117 -0.2471
 1774TIP3    H126737   4.620   5.100   2.148 -0.3036  0.2261  0.1457
 1774TIP3    H226738   4.536   5.226   2.140 -0.8465 -0.0158  1.6855
 1775TIP3   OH226739   4.012   5.745  16.091  0.0455 -0.1995 -0.5229
 1775TIP3    H126740   4.010   5.833  16.128 -0.9374  0.4439 -2.0149
 1775TIP3    H226741   4.082   5.700  16.139 -1.0948  0.5734  2.0184
 1776TIP3   OH226742   1.855   2.355   5.023 -0.2386  0.2649  0.5321
 1776TIP3    H126743   1.830   2.287   5.085 -0.6242  0.9110  1.0921
 1776TIP3    H226744   1.950   2.354   5.023 -0.2366 -0.5726  0.1968
 1777TIP3   OH226745   4.935   5.881  12.182  0.6180  0.0704  0.0525
 1777TIP3    H126746   4.898   5.967  12.201  1.4705  0.0910  1.8420
 1777TIP3    H226747   4.864   5.832  12.141  0.1047  1.5819 -0.9624
 1778TIP3   OH226748   5.592   1.409   4.025  0.3780 -0.4799  0.5821
 1778TIP3    H126749   5.573   1.364   3.942 -1.0369 -0.6256  0.9605
 1778TIP3    H226750   5.651   1.350   4.071  2.0318  0.0707 -0.7300
 1779TIP3   OH226751   2.393   3.084  13.928 -0.2316  0.1593  0.1319
 1779TIP3    H126752   2.319   3.053  13.876 -1.9818  0.4086  2.3563
 1779TIP3    H226753   2.421   3.007  13.978 -0.2656  0.5435  0.7465
 1780TIP3   OH226754   2.692   1.266   3.513  0.9718  0.3327 -0.8286
 1780TIP3    H126755   2.682   1.174   3.538  0.2098  0.0135 -2.1751
 1780TIP3    H226756   2.785   1.276   3.494  0.9557 -0.3454 -1.3021
 1781TIP3   OH226757   2.109   0.172   1.302  0.1341  0.3731  0.1576
 1781TIP3    H126758   2.101   0.113   1.227 -2.2297  0.4394  0.2598
 1781TIP3    H226759   2.029   0.224   1.300  0.1698  0.6448  2.4799
 1782TIP3   OH226760   4.334   2.156  14.350 -0.0494  0.1723  0.6665
 1782TIP3    H126761   4.258   2.196  14.393  0.0708  0.9896  0.1442
 1782TIP3    H226762   4.301   2.073  14.316 -0.9786  0.9474 -0.3888
 1783TIP3   OH226763   3.299   4.253   4.536  0.3285  0.3679  0.1111
 1783TIP3    H126764   3.323   4.326   4.479  0.5753 -1.0985 -1.7260
 1783TIP3    H226765   3.375   4.196   4.537  0.3410  0.3343  1.9753
 1784TIP3   OH226766   6.072   2.184  12.394 -0.2269  0.1026  0.2991
 1784TIP3    H126767   6.013   2.201  12.320 -0.9142 -0.3930  0.7254
 1784TIP3    H226768   6.135   2.256  12.391  0.0283 -0.1446 -1.0345
 1785TIP3   OH226769   4.793   3.684   3.897  0.1576  0.1588  0.0141
 1785TIP3    H126770   4.870   3.630   3.914 -0.2903  0.0458  1.9447
 1785TIP3    H226771   4.793   3.697   3.802  0.0738 -3.5207 -0.6355
 1786TIP3   OH226772   3.816   5.266   0.274 -0.2525 -0.1170  0.4329
 1786TIP3    H126773   3.801   5.360   0.285  2.1468  0.5544 -1.3344
 1786TIP3    H226774   3.901   5.251   0.315 -0.0971 -1.2674 -0.2849
 1787TIP3   OH226775   3.004   0.305  14.980 -0.0254  0.2031 -0.2372
 1787TIP3    H126776   2.917   0.342  14.965 -0.7119 -0.8484  0.9742
 1787TIP3    H226777   3.045   0.307  14.894 -1.6445 -0.2361 -1.0696
 1788TIP3   OH226778   5.605   0.140  10.767  1.3725  0.0859  0.0753
 1788TIP3    H126779   5.511   0.124  10.755  1.1269  1.5232 -0.0679
 1788TIP3    H226780   5.634   0.178  10.684  2.5123 -2.0383 -0.5647
 1789TIP3   OH226781   6.729   0.513   1.437 -0.6481  0.8551  0.1190
 1789TIP3    H126782   6.824   0.516   1.451 -0.6489  0.8092  0.1371
 1789TIP3    H226783   6.717   0.545   1.348 -0.6354  1.0877  0.2021
 1790TIP3   OH226784   4.159   5.843  14.400  0.1397  0.2183  0.4804
 1790TIP3    H126785   4.122   5.756  14.413  0.7229  0.1735  2.0420
 1790TIP3    H226786   4.145   5.888  14.483  1.6861  0.8898  0.4110
 1791TIP3   OH226787   0.081   5.552   3.584  0.1405 -0.2333 -0.4821
 1791TIP3    H126788   0.066   5.528   3.675  0.5949 -0.7062 -0.5331
 1791TIP3    H226789   0.173   5.578   3.580  0.5899 -1.8420 -1.1535
 1792TIP3   OH226790   2.513   2.811  11.285  0.2044  0.0841  0.3411
 1792TIP3    H126791   2.498   2.900  11.255 -2.1909 -0.7485 -1.2314
 1792TIP3    H226792   2.448   2.797  11.354  0.9333 -0.2990  0.9735
 1793TIP3   OH226793   4.263   5.124  15.559  0.0927  0.1729  0.1773
 1793TIP3    H126794   4.323   5.052  15.542  0.2733  0.3979 -0.1459
 1793TIP3    H226795   4.224   5.104  15.644 -0.7422 -0.9186 -0.4366
 1794TIP3   OH226796   6.106   3.096  17.061 -0.1139 -0.0845 -0.1594
 1794TIP3    H126797   6.075   3.172  17.111 -2.8833 -0.4331 -1.1646
 1794TIP3    H226798   6.108   3.025  17.124 -2.9513 -0.3701 -0.2693
 1795TIP3   OH226799   3.068   6.235  11.458 -0.6303 -0.3915 -0.7728
 1795TIP3    H126800   3.144   6.243  11.400 -0.4822  0.6788 -0.4649
 1795TIP3    H226801   2.999   6.199  11.402 -0.0871 -0.7285 -1.2370
 1796TIP3   OH226802   4.467   5.223  13.140  0.2365  0.4097 -0.1663
 1796TIP3    H126803   4.372   5.229  13.128  0.1547  1.0978  0.7034
 1796TIP3    H226804   4.498   5.171  13.065 -1.0611 -1.6269  0.6401
 1797TIP3   OH226805   2.054   4.020  15.122  0.2013  0.1828 -0.2040
 1797TIP3    H126806   1.962   4.031  15.100 -0.4006  0.7985  2.3679
 1797TIP3    H226807   2.087   4.109  15.134  0.7334 -0.0945  0.4160
 1798TIP3   OH226808   3.867   0.099  16.821 -0.3924 -0.6868  0.0340
 1798TIP3    H126809   3.950   0.053  16.833  0.6072  1.3896  1.6637
 1798TIP3    H226810   3.864   0.118  16.727  2.3308  1.4175  0.2451
 1799TIP3   OH226811   2.144   0.160   4.603 -0.4736 -0.9021 -0.4113
 1799TIP3    H126812   2.202   0.222   4.560 -0.6577  0.0631  0.6618
 1799TIP3    H226813   2.187   0.075   4.594  0.8583 -0.2872 -0.0824
 1800TIP3   OH226814   3.446   5.683  10.337 -0.1010  0.4979 -0.0525
 1800TIP3    H126815   3.352   5.668  10.340  0.0073 -0.1456  0.6052
 1800TIP3    H226816   3.483   5.595  10.325  0.4761  0.5227  1.3684
 1801TIP3   OH226817   2.852   2.528  13.479 -0.2110  0.4376  0.2813
 1801TIP3    H126818   2.893   2.495  13.398 -0.1060 -0.3285  0.6429
 1801TIP3    H226819   2.783   2.465  13.498 -1.0569  1.2936  0.1193
 1802TIP3   OH226820   3.234   4.058  14.763  0.0727 -0.2666  0.1614
 1802TIP3    H126821   3.179   4.104  14.700 -1.5080 -1.5789  0.5291
 1802TIP3    H226822   3.270   3.984  14.714 -1.4388 -1.4909  0.8284
 1803TIP3   OH226823   6.079   4.285  13.497  0.1024 -0.0396 -0.1314
 1803TIP3    H126824   6.007   4.303  13.436 -0.1651 -0.2619  0.1160
 1803TIP3    H226825   6.148   4.248  13.442  1.4534  3.4304 -1.0691
 1804TIP3   OH226826   0.271   2.737  16.748 -0.0230 -0.1957 -0.4049
 1804TIP3    H126827   0.311   2.720  16.834 -0.2018  0.1326 -0.2555
 1804TIP3    H226828   0.345   2.747  16.689  0.1019 -0.4223 -0.2873
 1805TIP3   OH226829   1.019   1.895   0.826  0.0224 -0.2824 -0.1338
 1805TIP3    H126830   0.925   1.878   0.815 -0.0938 -0.5009  1.0400
 1805TIP3    H226831   1.061   1.822   0.781 -0.3755 -0.2852 -0.5108
 1806TIP3   OH226832   0.816   0.420  11.906  0.2314 -0.0588  0.0255
 1806TIP3    H126833   0.814   0.494  11.967 -0.6678  0.2128 -0.3264
 1806TIP3    H226834   0.905   0.385  11.914 -0.1495 -0.6526  2.2350
 1807TIP3   OH226835   6.162   5.922  14.258 -0.4215 -0.0314  0.2349
 1807TIP3    H126836   6.197   6.011  14.269 -2.4666  0.9136 -0.3654
 1807TIP3    H226837   6.069   5.935  14.243 -0.7405 -2.3011 -0.0636
 1808TIP3   OH226838   1.039   4.082  15.178  0.5377 -0.0459  0.0280
 1808TIP3    H126839   1.123   4.124  15.159  1.3301 -1.8511 -0.6565
 1808TIP3    H226840   1.014   4.039  15.096 -2.6332  2.8762 -0.7624
 1809TIP3   OH226841   0.436   5.430   0.183 -0.6368  0.7395 -0.5917
 1809TIP3    H126842   0.527   5.403   0.177 -1.2396 -1.1665 -2.1558
 1809TIP3    H226843   0.427   5.467   0.271  1.0422 -1.3739  0.5394
 1810TIP3   OH226844   0.664   4.444  13.417 -0.0060  0.1067  0.3090
 1810TIP3    H126845   0.727   4.377  13.391 -0.9613 -0.4022 -0.7511
 1810TIP3    H226846   0.642   4.422  13.507  1.5731  0.5015  0.8297
 1811TIP3   OH226847   0.010   4.229   5.140 -0.5600  0.3972  0.2820
 1811TIP3    H126848   0.068   4.304   5.124 -0.9009  1.1547  2.2639
 1811TIP3    H226849  -0.058   4.264   5.199  0.8864 -2.0546  3.7282
 1812TIP3   OH226850   2.083   2.954  12.508 -0.0888  0.1708  0.2701
 1812TIP3    H126851   2.029   3.026  12.541 -0.5363  0.6262 -1.3687
 1812TIP3    H226852   2.060   2.879  12.564 -1.5514  0.6538  0.3659
 1813TIP3   OH226853   3.512   2.415   5.988  0.1437  0.1301  0.3133
 1813TIP3    H126854   3.550   2.476   5.925  1.9947 -0.6069  0.6509
 1813TIP3    H226855   3.573   2.416   6.062 -0.2259 -1.4701  0.6760
 1814TIP3   OH226856   1.115   1.268   2.479  0.2600  0.1249  0.2517
 1814TIP3    H126857   1.196   1.217   2.483  1.6148  2.0669 -0.6853
 1814TIP3    H226858   1.141   1.356   2.507 -2.0678  0.2885  2.2785
 1815TIP3   OH226859   2.465   6.344  15.427 -0.5792 -0.1399  0.0784
 1815TIP3    H126860   2.479   6.254  15.456  2.0125 -0.2512 -1.2444
 1815TIP3    H226861   2.418   6.335  15.344 -3.8322  0.0099  1.7107
 1816TIP3   OH226862   0.534   1.447   2.937  0.5766 -0.2149  0.0320
 1816TIP3    H126863   0.506   1.373   2.883 -0.6518  0.0732  0.2470
 1816TIP3    H226864   0.627   1.430   2.955  0.9128 -0.5671 -1.7641
 1817TIP3   OH226865   0.050   4.392   5.657  0.1728 -0.5534  0.5076
 1817TIP3    H126866  -0.041   4.363   5.646 -0.0716  0.0532  0.8375
 1817TIP3    H226867   0.042   4.472   5.710  0.7650  0.3906 -0.7768
 1818TIP3   OH226868   1.094   3.853  13.565 -0.1326 -1.0289  0.2533
 1818TIP3    H126869   1.036   3.835  13.491 -1.4580  1.2568  0.6318
 1818TIP3    H226870   1.181   3.861  13.527 -0.7581 -0.0808 -1.0527
 1819TIP3   OH226871   0.093   0.721  12.757  0.6351 -0.0939 -0.8066
 1819TIP3    H126872   0.076   0.655  12.690  0.2936 -0.0641 -0.7509
 1819TIP3    H226873   0.010   0.767  12.767  1.4025  1.7320 -2.3209
 1820TIP3   OH226874   4.765   2.643  12.973  0.3622  0.1853  0.1064
 1820TIP3    H126875   4.819   2.569  12.944 -0.5331 -0.6229  0.4389
 1820TIP3    H226876   4.729   2.615  13.058 -0.6485  0.6508 -0.1478
 1821TIP3   OH226877   1.160   1.343  11.542  0.3065 -0.2805  0.3415
 1821TIP3    H126878   1.182   1.316  11.631 -0.0366  0.5208  0.6854
 1821TIP3    H226879   1.099   1.277  11.511 -1.0091  0.3946  1.3906
 1822TIP3   OH226880   0.768   5.254  15.598  0.6154 -0.2686 -0.0103
 1822TIP3    H126881   0.712   5.259  15.521 -0.1729 -1.8808  0.4050
 1822TIP3    H226882   0.800   5.343  15.611  0.0205  0.2158 -1.6369
 1823TIP3   OH226883   1.248   3.169   5.693  0.2383  0.1160 -0.1698
 1823TIP3    H126884   1.335   3.193   5.726 -0.2377 -0.2543  1.4997
 1823TIP3    H226885   1.240   3.076   5.715 -1.1162  0.4868  1.0874
 1824TIP3   OH226886   1.060   4.152   2.586  0.1552 -0.0139  0.0565
 1824TIP3    H126887   1.052   4.078   2.525 -1.3084  0.6640 -0.6379
 1824TIP3    H226888   1.109   4.218   2.537 -1.1952  0.6091 -0.5347
 1825TIP3   OH226889   3.717   3.295  14.227  0.4960 -0.0537  0.1080
 1825TIP3    H126890   3.760   3.265  14.307  0.4037  0.8728  0.5205
 1825TIP3    H226891   3.647   3.232  14.213  0.2004  0.0441  1.0453
 1826TIP3   OH226892   3.547   4.524  12.195 -0.0043  0.5258  0.4693
 1826TIP3    H126893   3.573   4.505  12.105  0.3228 -1.6020  0.9779
 1826TIP3    H226894   3.591   4.458  12.248  0.2616  2.0712  2.2899
 1827TIP3   OH226895   5.895   3.971  15.317  0.3360 -0.0345 -0.2878
 1827TIP3    H126896   5.942   3.890  15.298  0.7827 -0.1475  1.2184
 1827TIP3    H226897   5.962   4.039  15.315  0.3660 -0.0292  0.6816
 1828TIP3   OH226898   3.842   2.516   2.410 -0.3539  0.6872  0.0225
 1828TIP3    H126899   3.898   2.592   2.430 -0.7660  0.6541  1.4156
 1828TIP3    H226900   3.789   2.504   2.489 -0.2564 -1.0977 -0.1399
 1829TIP3   OH226901   3.037   4.940  13.503  0.6021 -0.0009  0.3534
 1829TIP3    H126902   2.998   4.957  13.588  2.3919  0.1921  1.1832
 1829TIP3    H226903   3.042   5.026  13.461  0.1794 -0.0194  0.2692
 1830TIP3   OH226904   0.124   5.038  11.783 -0.0839 -0.4919 -0.3702
 1830TIP3    H126905   0.066   4.962  11.775 -1.5793  0.4824  0.7570
 1830TIP3    H226906   0.134   5.051  11.877  1.0290  0.0697 -0.5540
 1831TIP3   OH226907   5.788   5.454  13.423 -0.2437  0.2955  0.3105
 1831TIP3    H126908   5.849   5.392  13.462  2.1782  0.2712 -3.0766
 1831TIP3    H226909   5.824   5.540  13.445 -0.8233  0.3865  0.9301
 1832TIP3   OH226910   6.348   6.217  15.409  0.6820  0.3247 -0.3222
 1832TIP3    H126911   6.389   6.185  15.329  0.9513  0.6067 -0.3026
 1832TIP3    H226912   6.264   6.253  15.380  1.0286  0.9589 -0.5775
 1833TIP3   OH226913   4.950   2.351  10.851  0.3786  0.1080  0.2188
 1833TIP3    H126914   4.920   2.305  10.929  2.1174 -2.2478 -0.4107
 1833TIP3    H226915   5.045   2.341  10.852  0.5090  0.7182 -1.8030
 1834TIP3   OH226916   5.099   2.163   1.355  0.2102  0.4088 -0.0972
 1834TIP3    H126917   5.113   2.257   1.356 -2.4247  0.8742 -0.1444
 1834TIP3    H226918   5.179   2.126   1.393  1.6844  2.5675 -0.9143
 1835TIP3   OH226919   5.718   1.898   4.764  0.2605  0.0957 -0.1333
 1835TIP3    H126920   5.804   1.935   4.783 -0.0420  1.2714 -0.9231
 1835TIP3    H226921   5.660   1.974   4.758 -0.3549 -0.4674 -2.0024
 1836TIP3   OH226922   6.498   0.049   1.535  0.0119 -0.1334 -0.2351
 1836TIP3    H126923   6.588   0.081   1.521  0.0006  0.2941  0.5831
 1836TIP3    H226924   6.443   0.116   1.495  0.0613 -1.5338 -2.8800
 1837TIP3   OH226925   2.372   1.573  13.567 -0.6737  0.1457 -0.7964
 1837TIP3    H126926   2.321   1.500  13.603 -0.7291  0.5196 -0.1039
 1837TIP3    H226927   2.432   1.598  13.638 -0.9984  1.1014 -0.8413
 1838TIP3   OH226928   6.063   3.213   3.518  0.6693  0.7438  0.1610
 1838TIP3    H126929   6.022   3.153   3.580  1.1478 -0.9777 -1.1297
 1838TIP3    H226930   5.996   3.231   3.453  1.5535 -1.2977 -1.4126
 1839TIP3   OH226931   1.123   2.673   0.076 -0.1273  0.0959  0.2808
 1839TIP3    H126932   1.161   2.697  -0.009  0.0625 -1.4677 -0.1125
 1839TIP3    H226933   1.195   2.686   0.138  0.6291 -1.3675 -0.2335
 1840TIP3   OH226934   1.727   4.923   3.703  0.2798 -0.5440 -0.8852
 1840TIP3    H126935   1.787   4.995   3.721 -1.8116  1.1994 -0.4258
 1840TIP3    H226936   1.643   4.966   3.685 -0.6129 -2.8106 -2.5647
 1841TIP3   OH226937   4.313   2.753  12.461 -0.4140  0.2312  0.2087
 1841TIP3    H126938   4.270   2.824  12.413  0.3084  1.6331  1.5261
 1841TIP3    H226939   4.372   2.798  12.522 -1.2327 -1.4201  2.3698
 1842TIP3   OH226940   5.319   3.587   2.535 -0.2643  0.0373 -0.2527
 1842TIP3    H126941   5.270   3.535   2.471  0.2504 -1.8308  0.8108
 1842TIP3    H226942   5.339   3.669   2.489 -0.9332 -0.7716 -2.0562
 1843TIP3   OH226943   1.508   1.147   0.664 -0.1671 -0.2289  0.0170
 1843TIP3    H126944   1.568   1.140   0.739 -0.0912 -0.7386 -0.0903
 1843TIP3    H226945   1.426   1.178   0.702  0.6648  2.3011 -0.0770
 1844TIP3   OH226946   6.340   1.636   5.760 -0.4235  0.2952  0.1407
 1844TIP3    H126947   6.343   1.728   5.789 -0.3217  0.2716  0.2036
 1844TIP3    H226948   6.427   1.602   5.780 -0.6295  0.0383  0.5947
 1845TIP3   OH226949   1.730   3.515   2.356  0.1181  0.3735  0.0015
 1845TIP3    H126950   1.758   3.606   2.368  1.0146  0.1756 -0.5037
 1845TIP3    H226951   1.669   3.518   2.282  1.3434  0.3704 -1.0487
 1846TIP3   OH226952   5.818   3.075  16.027 -0.2077  0.5571  0.3642
 1846TIP3    H126953   5.774   3.149  15.986  1.5342  1.3841 -0.1337
 1846TIP3    H226954   5.879   3.115  16.089  0.9391 -0.4087 -0.0897
 1847TIP3   OH226955   1.770   6.687   0.629 -0.1577 -0.0989  0.0721
 1847TIP3    H126956   1.801   6.604   0.664  1.9239  0.5412 -0.1068
 1847TIP3    H226957   1.786   6.681   0.535 -0.3538  0.3579  0.0030
 1848TIP3   OH226958   6.681   3.383  13.595  0.1851 -0.3962 -0.1555
 1848TIP3    H126959   6.742   3.356  13.528 -0.1666  0.3816 -0.8091
 1848TIP3    H226960   6.618   3.311  13.602  1.3968 -1.4042  0.8461
 1849TIP3   OH226961   3.934   0.234   0.423  0.2090 -0.0246  0.2569
 1849TIP3    H126962   3.953   0.140   0.426  0.7870  0.0850  0.1073
 1849TIP3    H226963   3.885   0.250   0.504  0.4442 -0.3876  0.4790
 1850TIP3   OH226964   2.715   3.200  14.729 -0.5229 -0.3562 -0.2101
 1850TIP3    H126965   2.723   3.251  14.809  0.5153 -1.2470  0.2875
 1850TIP3    H226966   2.643   3.139  14.747 -2.4647  1.5342 -1.1884
 1851TIP3   OH226967   3.444   4.144   0.114 -0.2538 -0.3197 -0.2552
 1851TIP3    H126968   3.402   4.112   0.034 -1.5370 -0.6967  0.5410
 1851TIP3    H226969   3.373   4.186   0.163  0.7836  1.0992  0.0972
 1852TIP3   OH226970   1.157   4.947  15.307  0.5953 -0.6342  0.8460
 1852TIP3    H126971   1.226   4.900  15.354 -1.0204 -1.0655  2.9285
 1852TIP3    H226972   1.076   4.917  15.347 -0.6590  2.1674  0.6488
 1853TIP3   OH226973   2.998   4.001  16.658 -0.2226  0.3859 -0.4113
 1853TIP3    H126974   3.089   3.987  16.635 -0.6430 -0.7833 -1.4788
 1853TIP3    H226975   2.967   3.915  16.686 -1.5266  0.2765 -2.0568
 1854TIP3   OH226976   6.281   3.872  13.802 -0.2386 -0.0684  0.2830
 1854TIP3    H126977   6.211   3.807  13.798 -0.8973  0.6395 -0.1379
 1854TIP3    H226978   6.281   3.913  13.716  0.3478  0.2928  0.4472
 1855TIP3   OH226979   2.170   1.493  13.366 -0.1094  0.1941 -0.1936
 1855TIP3    H126980   2.091   1.535  13.400  0.2537  1.5635 -0.9510
 1855TIP3    H226981   2.230   1.492  13.441 -0.4410  0.1737  0.0779
 1856TIP3   OH226982   3.800   5.476  12.047  0.4989  0.0538 -0.5406
 1856TIP3    H126983   3.850   5.550  12.079  0.8592  0.2262 -1.4748
 1856TIP3    H226984   3.746   5.449  12.121  1.8406 -0.0340  0.4355
 1857TIP3   OH226985   1.450   4.095  12.350 -0.1042 -0.0687  0.2514
 1857TIP3    H126986   1.379   4.034  12.334 -0.8033  0.4119  1.4088
 1857TIP3    H226987   1.519   4.041  12.390 -0.5496 -0.1935  0.8665
 1858TIP3   OH226988   3.619   0.905  14.298 -0.3319 -0.5582  0.4079
 1858TIP3    H126989   3.645   0.994  14.324  0.5835 -1.1153  1.4610
 1858TIP3    H226990   3.678   0.883  14.226 -0.6634 -0.2658  0.0404
 1859TIP3   OH226991   4.788   0.144  15.262 -0.4962 -0.0762  0.3931
 1859TIP3    H126992   4.818   0.230  15.292  1.0842 -0.3364 -0.3505
 1859TIP3    H226993   4.826   0.082  15.325  0.1845 -0.3696 -0.2788
 1860TIP3   OH226994   0.995   3.980   0.777 -0.4761  0.0276  0.5095
 1860TIP3    H126995   1.087   3.955   0.786 -0.9261 -1.0297  2.7829
 1860TIP3    H226996   0.948   3.897   0.773 -1.3526  0.5509 -1.0437
 1861TIP3   OH226997   1.184   3.568   3.148 -0.7056  0.0745  0.6780
 1861TIP3    H126998   1.174   3.605   3.060  0.3806  1.2009  0.9949
 1861TIP3    H226999   1.278   3.548   3.155 -0.7535  0.1511  1.6278
 1862TIP3   OH227000   6.364   6.743  11.930  0.1919  0.2200 -0.0952
 1862TIP3    H127001   6.404   6.672  11.878  1.2958  0.5839  0.2371
 1862TIP3    H227002   6.396   6.823  11.889 -0.2904  0.5268  0.1210
 1863TIP3   OH227003   0.882   2.831  14.346 -0.7783 -0.2428 -0.2503
 1863TIP3    H127004   0.888   2.764  14.414 -0.2896  0.8538  0.8215
 1863TIP3    H227005   0.876   2.913  14.395 -1.0701  0.5181 -1.5402
 1864TIP3   OH227006   6.046   0.935  12.346 -0.1549  0.1175  0.3068
 1864TIP3    H127007   6.034   0.950  12.252  2.2682  1.6592  0.1838
 1864TIP3    H227008   6.088   0.849  12.352 -0.1379  0.1049 -0.0055
 1865TIP3   OH227009   4.629   0.981  16.102 -0.0828  0.0791  0.1001
 1865TIP3    H127010   4.538   1.004  16.123 -0.0039 -0.7916  1.5307
 1865TIP3    H227011   4.675   0.986  16.186  1.4221  1.4128 -0.7498
 1866TIP3   OH227012   4.449   2.595  11.539 -0.1741  0.6295 -1.0585
 1866TIP3    H127013   4.482   2.658  11.475 -1.7398  1.2742 -1.2550
 1866TIP3    H227014   4.469   2.510  11.501  1.2332  0.9716 -1.1622
 1867TIP3   OH227015   3.514   6.237   0.888 -0.5081  0.1211 -0.6389
 1867TIP3    H127016   3.599   6.213   0.851  0.2974  0.5530  0.8690
 1867TIP3    H227017   3.499   6.173   0.957 -0.9526  0.6355 -0.2547
 1868TIP3   OH227018   1.806   5.508  10.242  0.0693  0.0974 -0.0778
 1868TIP3    H127019   1.735   5.566  10.270  0.0984  0.6197 -1.0708
 1868TIP3    H227020   1.804   5.436  10.306 -1.9601 -0.3912 -0.6254
 1869TIP3   OH227021   1.075   3.024  13.359 -0.0539 -0.4592  0.5282
 1869TIP3    H127022   1.130   3.031  13.437 -0.4861 -0.0656  0.8065
 1869TIP3    H227023   1.064   3.114  13.329 -0.7887 -0.5011  0.6567
 1870TIP3   OH227024   4.610   1.803  12.592  0.1714  0.1634 -0.2859
 1870TIP3    H127025   4.668   1.742  12.638 -0.4528  0.0680  0.4077
 1870TIP3    H227026   4.618   1.884  12.642 -3.0825 -0.8388  2.2358
 1871TIP3   OH227027   1.139   2.667   5.419 -0.4803 -0.2200 -0.3179
 1871TIP3    H127028   1.100   2.746   5.381 -1.2322 -1.1451 -1.5576
 1871TIP3    H227029   1.215   2.650   5.365  0.2478  0.1851  0.5594
 1872TIP3   OH227030   3.439   0.351  12.006 -0.1205  0.4287  0.1031
 1872TIP3    H127031   3.374   0.310  11.948 -0.4861  0.2594  0.6301
 1872TIP3    H227032   3.521   0.308  11.983 -0.6654 -1.4504  1.4099
 1873TIP3   OH227033   3.486   0.349  13.906 -0.4467 -0.1650  0.2595
 1873TIP3    H127034   3.516   0.259  13.907  1.4306  0.4159  0.8652
 1873TIP3    H227035   3.561   0.400  13.876 -0.7490  1.4092  1.9565
 1874TIP3   OH227036   5.251   1.289  17.130 -0.1122 -0.2373  0.0157
 1874TIP3    H127037   5.265   1.268  17.222 -1.1489 -1.1220 -0.0117
 1874TIP3    H227038   5.258   1.385  17.127 -0.0984 -0.1925  1.0167
 1875TIP3   OH227039   5.666   3.535  16.162  0.4790  0.3587 -0.0014
 1875TIP3    H127040   5.719   3.570  16.091  0.9990  1.1294  0.7554
 1875TIP3    H227041   5.579   3.573  16.149  0.5690  0.4876 -0.2206
 1876TIP3   OH227042   0.441   4.366   4.728  0.0087  0.2459  0.7634
 1876TIP3    H127043   0.388   4.300   4.774  1.5473 -3.1364 -1.8204
 1876TIP3    H227044   0.522   4.372   4.779 -0.1073  0.0567  0.9705
 1877TIP3   OH227045   0.429   4.628  15.720  0.2263  0.7553  0.3820
 1877TIP3    H127046   0.454   4.599  15.632  0.3369  1.7021  0.0912
 1877TIP3    H227047   0.503   4.604  15.776 -0.1228 -0.4488  0.3506
 1878TIP3   OH227048   2.485   1.379  16.851  0.4549  0.1862 -0.6112
 1878TIP3    H127049   2.473   1.354  16.942  1.5386  0.4132 -0.3850
 1878TIP3    H227050   2.564   1.434  16.852  0.1129  0.7241 -1.5887
 1879TIP3   OH227051   1.473   2.071  16.948  0.1471  0.6819  0.1072
 1879TIP3    H127052   1.411   2.089  17.018 -0.1101  1.1856 -0.2412
 1879TIP3    H227053   1.556   2.109  16.978  0.6310 -1.0686  1.1206
 1880TIP3   OH227054   0.495   5.220  16.848  0.4423 -0.0354 -0.6005
 1880TIP3    H127055   0.463   5.307  16.822 -0.8792 -1.0334 -2.5593
 1880TIP3    H227056   0.443   5.198  16.925  0.6231  0.7940 -0.2237
 1881TIP3   OH227057   5.925   2.896  16.294  0.4760 -0.1291 -0.1181
 1881TIP3    H127058   5.866   2.971  16.281  0.6100 -0.2979 -1.8519
 1881TIP3    H227059   6.011   2.928  16.269  0.9448 -0.2551  1.2257
 1882TIP3   OH227060   5.514   4.854  13.546 -0.2033  0.5532 -0.0646
 1882TIP3    H127061   5.525   4.936  13.593  0.5808  0.9590 -0.9258
 1882TIP3    H227062   5.587   4.799  13.575  0.1988  0.7519 -0.6806
 1883TIP3   OH227063   6.243   4.442   4.443  0.0054 -0.2018  0.5023
 1883TIP3    H127064   6.278   4.361   4.405  0.6828 -0.2950  1.2942
 1883TIP3    H227065   6.176   4.412   4.504  1.4361 -0.3113  2.0893
 1884TIP3   OH227066   6.192   1.012   1.240 -0.2350 -0.3904 -0.0866
 1884TIP3    H127067   6.277   1.018   1.284 -0.3045 -0.2580  0.0296
 1884TIP3    H227068   6.185   1.093   1.190 -0.1157 -0.5805 -0.4169
 1885TIP3   OH227069   1.193   3.183  15.911  0.1823  0.2313 -0.6827
 1885TIP3    H127070   1.269   3.192  15.969 -0.6576  1.7952  0.2568
 1885TIP3    H227071   1.143   3.110  15.948 -0.0337  0.8227  0.2513
 1886TIP3   OH227072   5.308   3.233   5.178 -0.4115 -0.0440 -0.2268
 1886TIP3    H127073   5.287   3.157   5.123  1.0423 -0.9522  0.4160
 1886TIP3    H227074   5.350   3.195   5.255  1.3875  1.5010 -0.3993
 1887TIP3   OH227075   0.291   6.426   0.098 -0.4265  0.1545 -0.4953
 1887TIP3    H127076   0.381   6.400   0.117 -0.1314  2.5991  2.2449
 1887TIP3    H227077   0.300   6.500   0.038 -0.2980  2.1224  1.8029
 1888TIP3   OH227078   4.261   1.374  14.755 -0.1044  0.2011  0.0321
 1888TIP3    H127079   4.259   1.442  14.687  2.0204  1.6920  1.3552
 1888TIP3    H227080   4.182   1.391  14.807  0.6959  2.1354  0.7196
 1889TIP3   OH227081   2.358   5.025   1.110 -0.6499  0.1836  0.3855
 1889TIP3    H127082   2.284   5.083   1.127 -0.6598 -0.0626  1.2234
 1889TIP3    H227083   2.348   4.954   1.173  0.7072  0.5368  1.0228
 1890TIP3   OH227084   4.495   2.514  15.034  0.1747  0.2455 -0.4693
 1890TIP3    H127085   4.467   2.427  15.005 -0.7364 -0.4298  2.1722
 1890TIP3    H227086   4.425   2.543  15.092  2.0176  1.2765  1.3375
 1891TIP3   OH227087   1.890   6.569  14.050 -0.6245  0.4101 -0.3827
 1891TIP3    H127088   1.894   6.589  13.957 -0.2530 -0.2891 -0.5243
 1891TIP3    H227089   1.974   6.528  14.070 -1.2640 -0.7923 -0.0704
 1892TIP3   OH227090   0.587   0.456  16.809  0.2936 -0.3569  0.1376
 1892TIP3    H127091   0.615   0.546  16.789  0.4429 -0.4836 -0.2344
 1892TIP3    H227092   0.652   0.425  16.871  2.6958 -1.5924 -2.7383
 1893TIP3   OH227093   2.184   6.767  12.846  0.1262 -0.2675  0.0595
 1893TIP3    H127094   2.217   6.796  12.761  1.0707  0.4732  0.6599
 1893TIP3    H227095   2.091   6.749  12.831  0.6149 -1.7404 -1.5206
 1894TIP3   OH227096   5.334   3.368   4.537 -0.3093  0.6173 -0.1149
 1894TIP3    H127097   5.274   3.293   4.539 -0.8402  0.9992 -1.1220
 1894TIP3    H227098   5.277   3.445   4.537  0.0610  0.9818 -2.6455
 1895TIP3   OH227099   0.424   5.549   2.740  0.4095  0.8303  0.4475
 1895TIP3    H127100   0.420   5.624   2.680  0.3859 -1.1306 -2.1853
 1895TIP3    H227101   0.336   5.544   2.778  0.0967  1.5392 -0.1466
 1896TIP3   OH227102   4.626   1.861   6.055  0.2269 -0.0481  0.4200
 1896TIP3    H127103   4.647   1.771   6.079  0.1146 -0.1876 -0.0093
 1896TIP3    H227104   4.586   1.898   6.134  0.4820 -0.3012  0.6721
 1897TIP3   OH227105   4.430   2.128   5.879 -0.0719  0.1429 -0.2513
 1897TIP3    H127106   4.484   2.202   5.850 -2.0146  1.4912 -0.6650
 1897TIP3    H227107   4.434   2.065   5.807  1.6765 -0.2342  0.1369
 1898TIP3   OH227108   0.709   4.249  13.981 -0.1056  0.2923  0.1822
 1898TIP3    H127109   0.791   4.297  13.967 -0.1003  0.9174  2.1123
 1898TIP3    H227110   0.736   4.166  14.021 -0.2241 -0.8386 -1.9378
 1899TIP3   OH227111   1.836   2.881   1.232 -0.3154  0.7282  0.1294
 1899TIP3    H127112   1.921   2.915   1.259  0.2954  0.2519 -1.0630
 1899TIP3    H227113   1.772   2.934   1.279  0.6331  1.5372  0.5475
 1900TIP3   OH227114   6.671   4.405  13.203  0.2911 -0.2932 -0.4009
 1900TIP3    H127115   6.743   4.381  13.144 -0.4937 -0.4119 -1.3457
 1900TIP3    H227116   6.608   4.334  13.193  1.5359 -2.1467  3.1826
 1901TIP3   OH227117   4.289   4.667  14.097 -0.1895  0.2934  0.2871
 1901TIP3    H127118   4.332   4.601  14.151  0.0663  1.5179  1.6412
 1901TIP3    H227119   4.217   4.699  14.151 -0.9160  0.4544 -0.7431
 1902TIP3   OH227120   0.799   6.037  10.770 -0.0278 -0.2980 -0.1198
 1902TIP3    H127121   0.763   5.984  10.699  0.3011 -2.5668  1.2822
 1902TIP3    H227122   0.878   6.076  10.733  0.1423 -1.4372 -1.0200
 1903TIP3   OH227123   5.292   4.998  15.299  0.3759  0.2328  0.4774
 1903TIP3    H127124   5.271   4.965  15.386  1.2474 -0.6269  0.3750
 1903TIP3    H227125   5.362   4.941  15.268 -0.1275  0.3503 -0.9116
 1904TIP3   OH227126   4.618   3.450   0.487 -0.4533 -0.7884  0.2790
 1904TIP3    H127127   4.523   3.434   0.485 -0.9132  1.6163 -0.9191
 1904TIP3    H227128   4.636   3.472   0.578 -1.7982  2.1444 -0.0508
 1905TIP3   OH227129   2.260   1.247   5.056  0.2541  0.7881  0.0568
 1905TIP3    H127130   2.314   1.216   4.984  0.5125 -1.4777  1.1595
 1905TIP3    H227131   2.170   1.242   5.023  0.3653 -0.3266 -0.0968
 1906TIP3   OH227132   2.157   2.158  16.722  0.4145  0.5688  0.3175
 1906TIP3    H127133   2.088   2.221  16.739  0.8603  0.7504  1.5435
 1906TIP3    H227134   2.148   2.137  16.629 -1.3803  0.4676  0.4695
 1907TIP3   OH227135   1.995   5.648  12.067  0.0143 -0.2229  0.4041
 1907TIP3    H127136   2.076   5.683  12.105 -0.9045  3.3355 -0.5255
 1907TIP3    H227137   2.024   5.600  11.989  1.2951  0.2736  0.5388
 1908TIP3   OH227138   0.150   1.698  15.315  0.0245  0.2750 -0.0308
 1908TIP3    H127139   0.163   1.767  15.380 -0.2999 -0.6098  1.0109
 1908TIP3    H227140   0.225   1.639  15.326  0.0514  0.2039 -0.5720
 1909TIP3   OH227141   1.467   2.407   5.593 -0.0212 -0.1316  0.5139
 1909TIP3    H127142   1.529   2.361   5.650  1.3760  0.3988 -0.5334
 1909TIP3    H227143   1.402   2.340   5.570 -0.2184 -0.5344  2.1151
 1910TIP3   OH227144   3.094   2.020   6.256  0.1276  0.0278  0.7171
 1910TIP3    H127145   3.183   2.055   6.258 -0.1122  0.8984 -1.4989
 1910TIP3    H227146   3.100   1.944   6.199 -0.9117  1.5087 -1.5381
 1911TIP3   OH227147   0.407   0.933  15.215 -0.1379 -0.0166 -0.8475
 1911TIP3    H127148   0.324   0.901  15.250  0.4939 -0.3284  0.4194
 1911TIP3    H227149   0.399   0.922  15.120 -1.4963 -0.1423 -0.7301
 1912TIP3   OH227150   1.701   2.222  12.516  0.6636  0.2947 -0.9682
 1912TIP3    H127151   1.657   2.239  12.433  2.3000 -0.9475 -2.1563
 1912TIP3    H227152   1.793   2.245  12.499  0.8941  0.8266  0.7817
 1913TIP3   OH227153   5.349   1.663  13.824  0.6031 -0.1092 -0.1064
 1913TIP3    H127154   5.377   1.572  13.816 -2.8259 -1.3704  0.4592
 1913TIP3    H227155   5.384   1.692  13.908 -0.2329 -1.7691  0.8580
 1914TIP3   OH227156   1.847   5.812   4.279 -0.7356 -0.0614 -0.4623
 1914TIP3    H127157   1.831   5.902   4.310  0.9475  0.8488 -2.0457
 1914TIP3    H227158   1.807   5.757   4.346 -0.3599  1.8339  1.4659
 1915TIP3   OH227159   5.864   0.729   4.283 -0.2930  0.1436 -0.2022
 1915TIP3    H127160   5.846   0.669   4.211 -1.5590  0.2242  0.0096
 1915TIP3    H227161   5.956   0.717   4.303  0.2599  0.6242 -2.2743
 1916TIP3   OH227162   1.811   3.881  16.876 -0.1756 -0.1382 -0.5021
 1916TIP3    H127163   1.783   3.906  16.964  0.3452 -1.7621  0.1590
 1916TIP3    H227164   1.747   3.922  16.818 -0.9143  0.4126  0.6700
 1917TIP3   OH227165   6.159   4.368   3.236 -0.5034  0.2164 -0.5310
 1917TIP3    H127166   6.157   4.346   3.329  1.7623 -1.6574 -0.8189
 1917TIP3    H227167   6.076   4.337   3.201 -0.9166 -0.0513  0.6726
 1918TIP3   OH227168   4.940   1.139  13.576 -0.1586  0.1692  0.1573
 1918TIP3    H127169   5.001   1.100  13.514 -2.2048 -0.5555 -1.5375
 1918TIP3    H227170   4.861   1.156  13.524 -1.2410  1.5053  2.1114
 1919TIP3   OH227171   2.188   5.701   3.411 -0.3213 -0.1817  0.3853
 1919TIP3    H127172   2.103   5.744   3.426  0.1443 -0.1968  3.7782
 1919TIP3    H227173   2.178   5.614   3.448  1.3186  0.0249  1.4104
 1920TIP3   OH227174   4.432   0.390   6.318  0.2451 -0.5656 -0.0153
 1920TIP3    H127175   4.467   0.466   6.271  0.5233 -0.8362 -0.2504
 1920TIP3    H227176   4.501   0.365   6.379 -0.8894  1.0320  2.0246
 1921TIP3   OH227177   2.294   0.509   1.125  0.1337 -0.2812 -0.3289
 1921TIP3    H127178   2.342   0.428   1.143  1.1997  0.4433  0.1840
 1921TIP3    H227179   2.244   0.491   1.046 -1.8320 -2.3768  1.2425
 1922TIP3   OH227180   2.515   6.158   1.430  0.0251  0.5328  0.0048
 1922TIP3    H127181   2.445   6.153   1.364  0.6821  1.3076 -0.7749
 1922TIP3    H227182   2.500   6.242   1.474  0.5727  0.7875 -0.2932
 1923TIP3   OH227183   1.171   3.334  11.909  0.5620 -0.1399  0.0348
 1923TIP3    H127184   1.151   3.339  12.003  0.1311 -0.0433 -0.0626
 1923TIP3    H227185   1.252   3.282  11.905 -0.7188 -2.3037  0.2973
 1924TIP3   OH227186   1.965   1.399   6.728 -0.3642  0.5781 -0.2317
 1924TIP3    H127187   1.908   1.331   6.693  0.2025  0.0347 -0.1285
 1924TIP3    H227188   1.926   1.482   6.698 -2.0614  0.3174  1.1135
 1925TIP3   OH227189   2.053   0.640   3.216 -0.0086  0.3176  0.0720
 1925TIP3    H127190   2.112   0.620   3.289 -0.5021 -0.9742  0.1380
 1925TIP3    H227191   2.099   0.707   3.166  1.5905 -0.7625  0.0294
 1926TIP3   OH227192   2.531   3.054  15.648  0.0527 -0.0314  0.1306
 1926TIP3    H127193   2.593   3.014  15.710  0.1435 -2.6278 -1.4835
 1926TIP3    H227194   2.587   3.092  15.581 -0.0362 -1.0868 -0.5675
 1927TIP3   OH227195   6.005   3.434  16.034  0.3737  0.1996  0.2142
 1927TIP3    H127196   5.922   3.474  16.009 -1.0470 -1.9793  1.1626
 1927TIP3    H227197   6.064   3.455  15.961 -1.2968  0.9069 -1.0108
 1928TIP3   OH227198   2.321   3.311   2.338  0.1025  0.5452 -0.0419
 1928TIP3    H127199   2.381   3.379   2.368 -0.5113  0.9725  0.2364
 1928TIP3    H227200   2.236   3.356   2.330 -0.8191 -0.6322  2.2225
 1929TIP3   OH227201   4.189   2.123  14.840 -0.4925  0.0499  0.5053
 1929TIP3    H127202   4.114   2.176  14.815 -0.4043 -0.0626 -0.0190
 1929TIP3    H227203   4.232   2.102  14.757  0.1829  0.2119  0.8052
 1930TIP3   OH227204   2.520   4.004   1.634 -1.5173  0.0067  0.4938
 1930TIP3    H127205   2.475   3.977   1.553 -0.4544 -0.2994 -0.0044
 1930TIP3    H227206   2.563   3.925   1.665 -1.9753  0.1072  1.4128
 1931TIP3   OH227207   3.105   2.145   4.684  0.8027  0.2829  0.7607
 1931TIP3    H127208   3.112   2.050   4.673  1.0853  0.1528  1.9589
 1931TIP3    H227209   3.196   2.175   4.689  0.7607  0.8093 -0.9274
 1932TIP3   OH227210   6.162   2.581  14.382  0.6574  0.4257  0.0669
 1932TIP3    H127211   6.154   2.674  14.359  0.3817  1.4084  3.5363
 1932TIP3    H227212   6.249   2.556  14.351  0.6033  1.7119 -1.2402
 1933TIP3   OH227213   3.802   4.071  12.521  0.1737  0.2428  0.1668
 1933TIP3    H127214   3.808   4.086  12.427  0.5296 -1.8557 -0.2065
 1933TIP3    H227215   3.883   4.026  12.543 -0.5418 -0.6058  1.1817
 1934TIP3   OH227216   0.212   1.334  12.810  0.0031 -0.8943 -0.1276
 1934TIP3    H127217   0.242   1.247  12.786  0.9062 -0.4419 -0.6817
 1934TIP3    H227218   0.284   1.393  12.785 -0.2550 -0.0734  0.9539
 1935TIP3   OH227219   5.404   6.033   0.097  0.3033 -0.1741  0.3250
 1935TIP3    H127220   5.452   5.991   0.168  1.3498  0.9154  0.2772
 1935TIP3    H227221   5.465   6.095   0.059 -0.6196  0.0969 -0.7958
 1936TIP3   OH227222   0.352   4.936   1.524  0.0853 -0.5439  0.2129
 1936TIP3    H127223   0.357   4.840   1.520  1.3216 -0.5042  0.5568
 1936TIP3    H227224   0.438   4.965   1.495 -0.7625  0.5247 -1.3663
 1937TIP3   OH227225   5.635   6.343   4.655  0.1842  0.6351  0.0986
 1937TIP3    H127226   5.619   6.416   4.716 -0.3437  1.6807 -1.2225
 1937TIP3    H227227   5.705   6.375   4.598  1.8042 -0.9501  1.0793
 1938TIP3   OH227228   6.521   3.827  17.072 -0.0991  0.4128 -0.3073
 1938TIP3    H127229   6.562   3.813  16.986 -1.4137 -1.2809 -0.7066
 1938TIP3    H227230   6.539   3.746  17.120  0.3841  1.2339  0.9591
 1939TIP3   OH227231   1.317   6.307   2.757  0.0037  0.0607  0.1599
 1939TIP3    H127232   1.266   6.387   2.745  1.3981  1.1776  1.2745
 1939TIP3    H227233   1.286   6.272   2.840  0.6157  0.4460  0.5652
 1940TIP3   OH227234   1.402   2.768   4.644 -0.0024  0.3793  0.1596
 1940TIP3    H127235   1.312   2.736   4.640  0.6247 -1.4639 -0.1048
 1940TIP3    H227236   1.393   2.864   4.645 -1.9422  0.2448  0.0022
 1941TIP3   OH227237   3.101   2.565  12.453  0.6441  0.3225 -0.0040
 1941TIP3    H127238   3.158   2.493  12.424 -0.8411 -1.2110  0.6601
 1941TIP3    H227239   3.017   2.546  12.411  1.0857  3.8951 -2.9945
 1942TIP3   OH227240   6.160   3.436   3.624  0.2319  0.3955 -0.8422
 1942TIP3    H127241   6.137   3.343   3.618  0.6386  0.2586 -0.3992
 1942TIP3    H227242   6.098   3.472   3.687  1.5091 -0.0920  0.7784
 1943TIP3   OH227243   4.855   3.333   0.392 -0.6981  0.2716 -0.0386
 1943TIP3    H127244   4.777   3.378   0.423 -0.3492  0.9643 -0.1617
 1943TIP3    H227245   4.827   3.288   0.313 -1.1263  0.0050  0.2568
 1944TIP3   OH227246   5.802   0.821   2.436 -0.0363  0.4292  0.3627
 1944TIP3    H127247   5.807   0.900   2.381 -0.1221 -0.6231 -1.2051
 1944TIP3    H227248   5.728   0.772   2.400  1.1360 -1.2249  0.1136
 1945TIP3   OH227249   1.984   3.206  16.983 -0.4550  0.0536  0.5466
 1945TIP3    H127250   1.892   3.230  16.995 -0.5955 -0.2877  0.1700
 1945TIP3    H227251   1.981   3.120  16.943  0.0198  0.2816  0.0116
 1946TIP3   OH227252   5.127   2.065   5.252  0.3054 -0.2310  0.0485
 1946TIP3    H127253   5.169   1.979   5.261  0.4313 -0.0304  1.4976
 1946TIP3    H227254   5.104   2.070   5.159  0.8592 -1.5662 -0.1855
 1947TIP3   OH227255   2.813   4.345  13.009 -0.3344 -0.1894 -0.0408
 1947TIP3    H127256   2.760   4.311  12.936 -1.8167 -1.3080  1.4898
 1947TIP3    H227257   2.782   4.435  13.021 -0.3126 -0.1050 -0.5715
 1948TIP3   OH227258   4.755   6.719  16.565  0.1146  0.0654  0.4261
 1948TIP3    H127259   4.756   6.807  16.602 -0.2382  0.3306 -0.1821
 1948TIP3    H227260   4.675   6.679  16.601 -0.0371  0.1996  0.2405
 1949TIP3   OH227261   0.951   3.652   5.400 -0.1683  0.5972 -0.8451
 1949TIP3    H127262   0.879   3.601   5.363  0.1948 -0.4720 -0.1141
 1949TIP3    H227263   1.030   3.606   5.374  0.1264  0.1699  0.6911
 1950TIP3   OH227264   3.035   5.065  15.292  0.8275  0.7611  0.3657
 1950TIP3    H127265   3.036   5.140  15.352  0.6543  1.6716 -0.7371
 1950TIP3    H227266   3.046   4.989  15.349 -0.7302  1.4819  1.7376
 1951TIP3   OH227267   1.596   2.072  15.798 -0.3345  0.2808 -0.6496
 1951TIP3    H127268   1.686   2.049  15.821 -1.0246  1.1069  3.9245
 1951TIP3    H227269   1.601   2.162  15.769  0.3841  0.0945 -1.1215
 1952TIP3   OH227270   2.814   5.741  12.623 -0.0886 -0.2996 -0.2935
 1952TIP3    H127271   2.839   5.726  12.531 -1.0547  0.4052 -0.6808
 1952TIP3    H227272   2.867   5.815  12.651 -0.7646  0.3541 -0.7122
 1953TIP3   OH227273   3.282   5.459  15.584 -0.2334 -0.2362 -0.1033
 1953TIP3    H127274   3.345   5.453  15.657 -1.3425 -1.7121  0.7824
 1953TIP3    H227275   3.259   5.552  15.580  0.4750  0.0005  0.8711
 1954TIP3   OH227276   6.201   2.028   1.581  0.5236  0.1707 -0.2554
 1954TIP3    H127277   6.287   2.068   1.593  2.4144 -2.9802 -2.0647
 1954TIP3    H227278   6.184   2.034   1.487 -0.0354 -1.3959 -0.2793
 1955TIP3   OH227279   4.599   6.603  12.559 -0.3844 -0.0745  0.9467
 1955TIP3    H127280   4.612   6.609  12.654  2.5109 -0.0689  0.6264
 1955TIP3    H227281   4.645   6.679  12.523  0.4577 -1.2421 -0.5665
 1956TIP3   OH227282   5.150   5.505   4.913  0.1617 -0.6675  0.1060
 1956TIP3    H127283   5.155   5.423   4.863 -0.0323 -0.3801 -0.3845
 1956TIP3    H227284   5.109   5.567   4.853 -3.0912 -1.1202  1.6481
 1957TIP3   OH227285   4.361   4.626   3.839  0.4876 -0.3450  0.2376
 1957TIP3    H127286   4.440   4.598   3.792  1.6777  1.6484  0.9481
 1957TIP3    H227287   4.361   4.572   3.918  1.1479 -0.3440  0.2465
 1958TIP3   OH227288   6.360   6.672  16.853  0.7865  0.1244  0.6860
 1958TIP3    H127289   6.433   6.617  16.823 -0.4218 -0.0761 -2.2634
 1958TIP3    H227290   6.383   6.760  16.824 -0.9180 -0.2474 -2.1368
 1959TIP3   OH227291   6.608   4.783   0.867  0.1617 -0.0690  0.0024
 1959TIP3    H127292   6.647   4.724   0.802  0.7683 -1.4482  1.5550
 1959TIP3    H227293   6.638   4.870   0.841  2.1316 -0.8152 -0.3951
 1960TIP3   OH227294   0.827   5.862  10.066 -0.1332 -0.5567 -0.4221
 1960TIP3    H127295   0.892   5.910  10.015  1.0512 -2.0109 -0.3333
 1960TIP3    H227296   0.791   5.927  10.127  1.3929  0.2303 -0.3284
 1961TIP3   OH227297   4.794   0.811   1.292 -0.1900  0.0510  0.6618
 1961TIP3    H127298   4.796   0.907   1.301  0.8759  0.2046 -0.8795
 1961TIP3    H227299   4.874   0.782   1.336  0.3519  0.0282 -0.3233
 1962TIP3   OH227300   3.464   2.275  13.483 -0.2159 -0.2827  0.0273
 1962TIP3    H127301   3.484   2.320  13.401 -0.9535 -0.5929 -0.3362
 1962TIP3    H227302   3.463   2.345  13.549 -1.7854  0.3461 -0.6016
 1963TIP3   OH227303   5.835   0.126  13.682 -0.5725 -0.2331 -0.0616
 1963TIP3    H127304   5.790   0.056  13.634 -2.1308  0.6674  0.0247
 1963TIP3    H227305   5.833   0.201  13.623  2.0824 -0.5118 -0.6048
 1964TIP3   OH227306   0.171   0.837  14.674  1.0202  0.3588  0.6190
 1964TIP3    H127307   0.169   0.872  14.585 -0.0773 -0.9761  0.0851
 1964TIP3    H227308   0.207   0.749  14.665 -3.7438 -1.8649  0.6228
 1965TIP3   OH227309   3.446   0.556   3.706 -0.4377 -0.7468 -0.0951
 1965TIP3    H127310   3.429   0.548   3.800  0.3205 -1.2312  0.0083
 1965TIP3    H227311   3.525   0.610   3.700  0.3416 -1.8904 -0.3833
 1966TIP3   OH227312   3.429   0.873  15.464 -0.4369 -0.2807 -0.3142
 1966TIP3    H127313   3.424   0.958  15.421  3.4705 -0.1957 -0.9170
 1966TIP3    H227314   3.462   0.892  15.552  0.0481 -1.1444 -0.3003
 1967TIP3   OH227315   0.575   3.474  15.953  0.1584  0.6666  0.0460
 1967TIP3    H127316   0.562   3.540  16.020  1.2739  0.2587  0.7079
 1967TIP3    H227317   0.633   3.410  15.995 -1.9505 -1.4640 -0.0694
 1968TIP3   OH227318   6.730   0.290  15.572  0.4669  0.0641  0.0776
 1968TIP3    H127319   6.763   0.318  15.657 -0.8063  1.5905  0.1152
 1968TIP3    H227320   6.648   0.243  15.592 -0.2981  1.1925 -0.3359
 1969TIP3   OH227321   2.266   5.125  11.084 -0.0587 -0.4361  0.0341
 1969TIP3    H127322   2.341   5.074  11.051 -0.6484 -1.2960  0.0028
 1969TIP3    H227323   2.225   5.068  11.148  0.6231  0.9126  1.7656
 1970TIP3   OH227324   2.846   3.135  10.763 -0.7939 -0.6522  0.4167
 1970TIP3    H127325   2.847   3.064  10.700 -0.7039 -1.1599  0.9786
 1970TIP3    H227326   2.844   3.091  10.848 -1.1845  0.0152  0.7613
 1971TIP3   OH227327   1.369   0.697  14.976  0.1842 -0.3039  0.4550
 1971TIP3    H127328   1.430   0.747  14.923 -1.5206  2.2697  0.7527
 1971TIP3    H227329   1.328   0.636  14.915 -0.2910  1.2053 -0.7957
 1972TIP3   OH227330   4.670   3.945   3.302  0.6596  0.0601 -0.1441
 1972TIP3    H127331   4.638   4.032   3.279  1.6882  0.0361 -1.7994
 1972TIP3    H227332   4.763   3.947   3.282  1.0498 -0.9142  1.4214
 1973TIP3   OH227333   4.145   3.203  10.654  0.4536  0.3078 -0.2489
 1973TIP3    H127334   4.142   3.239  10.565 -0.7777  0.8239 -0.0258
 1973TIP3    H227335   4.164   3.110  10.641  1.8611  0.6626 -0.9418
 1974TIP3   OH227336   4.117   3.894  15.299 -0.1394  0.1085 -0.7883
 1974TIP3    H127337   4.210   3.890  15.276 -0.0341 -1.5189 -0.2411
 1974TIP3    H227338   4.074   3.842  15.232 -0.3848 -0.8692  0.1088
 1975TIP3   OH227339   5.591   4.523  13.398  0.1997 -0.1771  0.3048
 1975TIP3    H127340   5.567   4.539  13.307 -1.9346  0.9718  0.9875
 1975TIP3    H227341   5.571   4.430  13.412  1.1729 -0.5280 -0.5490
 1976TIP3   OH227342   3.517   0.944   2.407 -0.2608 -0.3307  0.0717
 1976TIP3    H127343   3.451   0.902   2.353 -0.0707  0.0167 -0.4473
 1976TIP3    H227344   3.514   1.036   2.380 -0.3914 -0.0846  0.8932
 1977TIP3   OH227345   2.560   4.247   3.199  0.2336  0.9529  0.5684
 1977TIP3    H127346   2.586   4.183   3.265 -0.2409 -0.0216 -0.1619
 1977TIP3    H227347   2.538   4.326   3.249 -0.1152  0.2326  1.5758
 1978TIP3   OH227348   5.478   1.254  13.230  0.0666  0.0242  0.2578
 1978TIP3    H127349   5.509   1.341  13.206  0.2202 -0.2904 -0.7698
 1978TIP3    H227350   5.385   1.266  13.250 -0.8145 -0.0262 -3.0906
 1979TIP3   OH227351   0.916   3.774  13.351  0.4949 -0.8329 -0.6567
 1979TIP3    H127352   0.930   3.733  13.266 -0.5451 -1.7329 -0.4152
 1979TIP3    H227353   0.845   3.723  13.391 -0.4243  0.8270 -0.0752
 1980TIP3   OH227354   3.193   5.170   2.010  0.0520 -0.5598  0.1602
 1980TIP3    H127355   3.212   5.120   1.930  2.6464 -0.8995  0.9064
 1980TIP3    H227356   3.220   5.260   1.989  1.3821 -0.7822  0.8213
 1981TIP3   OH227357   0.764   3.846   0.520  0.2117  0.0768  0.4594
 1981TIP3    H127358   0.710   3.768   0.520 -1.0257  0.8821  2.1290
 1981TIP3    H227359   0.853   3.814   0.508 -0.5192 -1.3110 -1.9777
 1982TIP3   OH227360   2.848   5.635  15.834  0.4039 -0.4023  0.5868
 1982TIP3    H127361   2.857   5.560  15.892  0.4278 -0.0828  1.0039
 1982TIP3    H227362   2.834   5.709  15.893  1.3953  0.0828  0.2304
 1983TIP3   OH227363   5.186   5.354   1.022  0.0355 -0.7877  0.2955
 1983TIP3    H127364   5.104   5.306   1.011  0.5435 -1.5846 -0.1609
 1983TIP3    H227365   5.178   5.430   0.964 -0.8871 -0.1569  1.2262
 1984TIP3   OH227366   5.056   2.123  14.383  0.1103  0.7369 -0.4567
 1984TIP3    H127367   4.982   2.062  14.385  0.3456  0.4128  2.0720
 1984TIP3    H227368   5.019   2.206  14.417  0.7512  0.7139  0.3291
 1985TIP3   OH227369   3.676   6.063  11.139 -0.1386 -0.3748 -0.5807
 1985TIP3    H127370   3.612   6.039  11.071  0.8490  0.4277 -1.8524
 1985TIP3    H227371   3.650   6.151  11.166 -0.3115 -0.5501 -0.1615
 1986TIP3   OH227372   5.766   6.752   3.841 -0.2602  0.5453  0.0203
 1986TIP3    H127373   5.802   6.838   3.863 -0.5442  0.1146  2.4993
 1986TIP3    H227374   5.687   6.745   3.894  0.6857 -1.8927  1.3197
 1987TIP3   OH227375   0.990   1.918   3.980  0.0588 -0.0648  0.1452
 1987TIP3    H127376   0.900   1.947   3.991 -0.1672 -0.6078 -0.2309
 1987TIP3    H227377   1.006   1.921   3.886  0.1604 -0.7674  0.1357
 1988TIP3   OH227378   3.341   2.902  13.141 -0.3255  0.8602 -0.2583
 1988TIP3    H127379   3.319   2.972  13.202 -1.4134 -0.4483  0.9288
 1988TIP3    H227380   3.365   2.947  13.060 -0.8218  2.5868  0.5065
 1989TIP3   OH227381   0.794   3.073  15.601  0.6508 -0.1083  0.0320
 1989TIP3    H127382   0.783   3.039  15.690 -0.8392 -1.1519 -0.5056
 1989TIP3    H227383   0.870   3.026  15.567  0.0059 -1.2290  0.0874
 1990TIP3   OH227384   2.549   5.656   1.137  0.0429  0.1156 -0.1324
 1990TIP3    H127385   2.495   5.653   1.059 -2.6937  1.2510  1.5733
 1990TIP3    H227386   2.536   5.571   1.179 -1.9956  0.9897  1.1618
 1991TIP3   OH227387   4.603   0.872   0.352  0.6788  0.0373  0.4964
 1991TIP3    H127388   4.522   0.877   0.403  0.4142 -0.1155  0.0961
 1991TIP3    H227389   4.575   0.881   0.261  1.0086 -0.9200  0.2884
 1992TIP3   OH227390   2.966   5.515  15.306 -0.7062 -0.2694  0.1009
 1992TIP3    H127391   3.046   5.488  15.261 -1.8950 -2.4096 -0.9020
 1992TIP3    H227392   2.898   5.506  15.240 -2.1036 -0.6325  1.5356
 1993TIP3   OH227393   3.563   1.333  15.814 -0.1899 -0.6851 -0.2362
 1993TIP3    H127394   3.523   1.350  15.899 -0.0426  2.5298 -0.6629
 1993TIP3    H227395   3.656   1.355  15.827  0.0636 -1.3165 -0.9352
 1994TIP3   OH227396   6.599   0.166  14.798 -0.3123  0.2232  0.2432
 1994TIP3    H127397   6.593   0.163  14.894  0.4019  0.5522  0.3006
 1994TIP3    H227398   6.567   0.254  14.775  1.0316  0.7490  0.3087
 1995TIP3   OH227399   6.796   0.356   4.202 -0.3360 -0.2706 -0.1584
 1995TIP3    H127400   6.869   0.387   4.148  1.2009 -1.1318  1.3351
 1995TIP3    H227401   6.817   0.385   4.291 -1.6017 -0.9086  0.3837
 1996TIP3   OH227402   5.845   4.718   2.579 -0.1404  0.0297 -0.0388
 1996TIP3    H127403   5.842   4.799   2.630  0.6262 -0.0672  0.1734
 1996TIP3    H227404   5.757   4.708   2.543 -0.4389  0.5688  0.5413
 1997TIP3   OH227405   0.475   0.004  16.242 -0.4152 -0.1566 -0.2594
 1997TIP3    H127406   0.431  -0.019  16.161 -1.2848  2.0990 -0.5083
 1997TIP3    H227407   0.501   0.096  16.230  0.2536 -0.0425  1.6522
 1998TIP3   OH227408   0.496   1.425   1.379 -0.3286  0.1412  0.0926
 1998TIP3    H127409   0.484   1.357   1.313 -0.9351  0.9055 -0.6102
 1998TIP3    H227410   0.495   1.378   1.462  0.6749 -0.8589 -0.4435
 1999TIP3   OH227411   1.255   2.803   0.658  0.5547  0.3051 -0.0535
 1999TIP3    H127412   1.235   2.875   0.719  2.3952  0.3201  0.6021
 1999TIP3    H227413   1.239   2.724   0.708 -0.8923  0.2458 -0.5806
 2000TIP3   OH227414   2.704   3.624   1.210 -0.0789 -0.3915  0.7325
 2000TIP3    H127415   2.684   3.635   1.303  1.4637 -1.9653  1.3049
 2000TIP3    H227416   2.799   3.634   1.205  0.0549 -1.9098 -0.3944
 2001TIP3   OH227417   5.615   4.245  11.367  0.1329 -0.3999  0.3850
 2001TIP3    H127418   5.684   4.240  11.302  1.6969  0.7494  1.8532
 2001TIP3    H227419   5.594   4.154  11.387  1.0640 -0.7679 -0.2458
 2002TIP3   OH227420   4.125   3.762  15.737 -0.1642 -0.0529 -0.4663
 2002TIP3    H127421   4.118   3.699  15.665 -4.1208 -2.2093  1.4458
 2002TIP3    H227422   4.174   3.716  15.805  0.4385  0.5688 -0.4675
 2003TIP3   OH227423   2.401   2.789  14.527  0.2427  0.7546 -0.2373
 2003TIP3    H127424   2.362   2.853  14.587 -1.3015  0.3840 -0.7872
 2003TIP3    H227425   2.491   2.818  14.515 -1.0110  4.3440 -2.4433
 2004TIP3   OH227426   0.613   3.165   5.418  0.3341 -0.5928 -0.3448
 2004TIP3    H127427   0.697   3.193   5.383  0.3501 -0.3373 -0.1117
 2004TIP3    H227428   0.548   3.210   5.365  0.3568 -0.2876 -0.1191
 2005TIP3   OH227429   5.513   0.934   1.503  0.1160  0.3014 -0.5230
 2005TIP3    H127430   5.544   0.888   1.425  0.0791  1.9709 -1.5768
 2005TIP3    H227431   5.592   0.958   1.551  0.1612 -0.3676 -0.2650
 2006TIP3   OH227432   0.147   0.972  11.782 -0.2867  0.3019 -0.1029
 2006TIP3    H127433   0.237   1.004  11.787  0.4717 -1.8020  0.7006
 2006TIP3    H227434   0.128   0.939  11.869 -2.3615  1.8761  0.1319
 2007TIP3   OH227435   4.285   6.585   3.146  0.1371  0.4875 -0.0847
 2007TIP3    H127436   4.191   6.591   3.166 -0.1878 -3.1774  0.2574
 2007TIP3    H227437   4.325   6.560   3.229  1.0296 -0.3672 -0.7600
 2008TIP3   OH227438   5.311   2.865  11.393 -0.0664 -0.1235 -0.8412
 2008TIP3    H127439   5.271   2.941  11.351 -0.7769 -0.6201 -1.1035
 2008TIP3    H227440   5.299   2.794  11.329 -1.6343 -1.0183  0.3598
 2009TIP3   OH227441   1.635   6.351   2.320 -0.7390  0.1404 -0.0709
 2009TIP3    H127442   1.605   6.431   2.361 -1.6164 -0.6156  0.8019
 2009TIP3    H227443   1.559   6.318   2.272 -0.0460  0.4330 -1.4375
 2010TIP3   OH227444   2.939   5.417   0.011  0.0941 -0.1707  1.0445
 2010TIP3    H127445   2.943   5.323  -0.007 -0.5850 -0.3890  1.9227
 2010TIP3    H227446   2.864   5.448  -0.041  0.5457 -0.0382  0.4675
 2011TIP3   OH227447   3.853   3.682   5.107 -0.1074 -0.3137  0.3675
 2011TIP3    H127448   3.759   3.697   5.119 -0.1016 -0.3822  0.5023
 2011TIP3    H227449   3.880   3.749   5.044 -0.1766 -0.0627  0.6000
 2012TIP3   OH227450   6.771   6.080  13.531 -0.8427 -0.6352 -0.7707
 2012TIP3    H127451   6.837   6.052  13.469 -0.8599  0.0175 -1.0972
 2012TIP3    H227452   6.785   6.026  13.608  0.7106  0.1541 -0.4666
 2013TIP3   OH227453   2.407   2.238   3.485 -0.2607 -0.4015  0.0251
 2013TIP3    H127454   2.471   2.238   3.414  0.0176 -0.0771  0.2712
 2013TIP3    H227455   2.322   2.234   3.442 -0.1508  1.0861 -0.3904
 2014TIP3   OH227456   6.331   1.530   3.064 -0.1472 -0.1908 -0.0601
 2014TIP3    H127457   6.297   1.573   2.985  0.5854  0.2433 -0.1433
 2014TIP3    H227458   6.419   1.565   3.075 -0.3191 -0.0689  1.0890
 2015TIP3   OH227459   5.745   5.931   3.089  0.1210 -0.0569 -0.1924
 2015TIP3    H127460   5.664   5.980   3.072  0.0478 -0.1326 -0.0606
 2015TIP3    H227461   5.733   5.849   3.042  0.4995  0.2935 -0.9294
 2016TIP3   OH227462   2.570   5.305  15.307  0.1936  0.7204  0.3743
 2016TIP3    H127463   2.488   5.273  15.343  0.1522  0.2810 -0.1096
 2016TIP3    H227464   2.628   5.313  15.383 -0.1957  0.7237  0.6708
 2017TIP3   OH227465   2.289   2.585  11.814  0.3299 -0.0204 -0.2379
 2017TIP3    H127466   2.276   2.608  11.906 -2.5040  1.1181 -0.7819
 2017TIP3    H227467   2.288   2.490  11.812  1.4925 -0.0771  1.0008
 2018TIP3   OH227468   0.650   6.263  11.098 -0.3784  0.0377  0.1084
 2018TIP3    H127469   0.579   6.276  11.162 -1.4123  2.6526 -1.4175
 2018TIP3    H227470   0.636   6.174  11.065  0.2598 -1.4606  3.4780
 2019TIP3   OH227471   6.093   0.705  15.075 -0.2727  0.4063  0.0597
 2019TIP3    H127472   6.087   0.784  15.129  2.1384  0.5348  0.2525
 2019TIP3    H227473   6.122   0.637  15.136  0.7032  0.1270 -0.6849
 2020TIP3   OH227474   5.649   5.808  15.639 -0.0744  0.1644 -0.1317
 2020TIP3    H127475   5.557   5.812  15.613 -0.2151  0.5719  0.4161
 2020TIP3    H227476   5.694   5.770  15.563 -0.7294 -0.2753 -0.3014
 2021TIP3   OH227477   0.637   5.936  15.280 -0.1047 -0.3258  0.3141
 2021TIP3    H127478   0.632   5.945  15.376  2.1245  1.1229  0.3729
 2021TIP3    H227479   0.710   5.877  15.265 -0.7671 -0.9573 -0.5135
 2022TIP3   OH227480   4.353   2.622   4.208  0.2111  0.0339 -0.6329
 2022TIP3    H127481   4.278   2.679   4.190  0.8017  0.5990 -1.3416
 2022TIP3    H227482   4.426   2.682   4.221  0.4921 -0.5011  0.3831
 2023TIP3   OH227483   0.806   6.775   4.255 -0.1560 -0.5476  0.0027
 2023TIP3    H127484   0.870   6.845   4.266 -0.8699  0.0229  0.6254
 2023TIP3    H227485   0.764   6.794   4.171  0.7401 -1.1430 -0.5960
 2024TIP3   OH227486   3.517   6.433  13.736 -0.8071 -0.0967 -0.0358
 2024TIP3    H127487   3.517   6.413  13.830  1.0866  1.4315  0.3688
 2024TIP3    H227488   3.497   6.527  13.732  1.6169  0.4536 -0.9003
 2025TIP3   OH227489   5.325   4.446  17.128 -0.0316 -0.1534 -0.0375
 2025TIP3    H127490   5.399   4.391  17.157 -2.3077 -2.8845  1.0987
 2025TIP3    H227491   5.280   4.469  17.209 -0.5788  1.2848 -0.7307
 2026TIP3   OH227492   5.853   1.378   2.368 -0.5303 -0.0613 -0.1058
 2026TIP3    H127493   5.928   1.352   2.420 -0.4785  0.0342 -0.1329
 2026TIP3    H227494   5.886   1.447   2.310 -0.3049 -0.9417 -1.0520
 2027TIP3   OH227495   2.899   6.191   0.401 -0.5158 -0.1988 -0.8319
 2027TIP3    H127496   2.851   6.262   0.359 -0.1025  1.2251  0.9497
 2027TIP3    H227497   2.989   6.224   0.407 -0.3768 -0.7324  0.2594
 2028TIP3   OH227498   6.536   3.076   1.069  0.0570  0.2638  0.0342
 2028TIP3    H127499   6.507   3.040   1.153  0.8614  1.5681  0.9172
 2028TIP3    H227500   6.470   3.141   1.046 -0.1935 -0.1340 -0.3886
 2029TIP3   OH227501   2.230   0.016  16.586 -0.0941  0.0559 -0.2710
 2029TIP3    H127502   2.256   0.032  16.677  0.4510  0.0870 -0.4247
 2029TIP3    H227503   2.173  -0.060  16.590 -0.4791  0.3631  0.1579
 2030TIP3   OH227504   5.012   5.184  11.864 -0.2253 -0.1371 -0.1381
 2030TIP3    H127505   5.043   5.248  11.927  0.9609  0.9849 -1.8013
 2030TIP3    H227506   5.091   5.147  11.825 -0.9010 -1.8619  0.0316
 2031TIP3   OH227507   4.270   0.868  12.838  0.1484  0.6237 -0.3570
 2031TIP3    H127508   4.236   0.957  12.846 -0.7227  0.3446 -0.7216
 2031TIP3    H227509   4.350   0.867  12.889  0.0075  1.5370 -0.1089
 2032TIP3   OH227510   3.077   5.388   5.469 -0.1478 -0.4550  0.3529
 2032TIP3    H127511   2.997   5.363   5.423  1.3321 -2.7043 -1.2387
 2032TIP3    H227512   3.075   5.335   5.550 -1.0454  0.8079  1.1888
 2033TIP3   OH227513   5.959   4.161   4.331 -0.0158 -0.9192 -0.5519
 2033TIP3    H127514   5.925   4.118   4.410 -0.2352 -1.6748 -1.0456
 2033TIP3    H227515   5.884   4.163   4.271  0.3328 -0.9891 -0.9964
 2034TIP3   OH227516   3.997   1.661  12.384 -0.3607 -0.4883  0.3965
 2034TIP3    H127517   3.974   1.742  12.339 -2.2388 -0.8510  0.6310
 2034TIP3    H227518   4.033   1.605  12.315 -1.6207 -0.4305 -0.3319
 2035TIP3   OH227519   3.268   4.071   5.156 -0.2157  0.1069 -1.2928
 2035TIP3    H127520   3.298   4.155   5.191 -0.5258 -0.2632 -0.0715
 2035TIP3    H227521   3.329   4.051   5.085  1.5139  0.0869  0.1229
 2036TIP3   OH227522   1.737   3.670   1.548 -0.4413  0.3852 -0.3597
 2036TIP3    H127523   1.829   3.679   1.572  0.2627  0.9631 -3.0046
 2036TIP3    H227524   1.704   3.599   1.604  2.2719 -1.5443 -1.0052
 2037TIP3   OH227525   1.459   1.821   5.546  0.9298  0.3826  0.1173
 2037TIP3    H127526   1.487   1.853   5.632  1.4877 -2.2384  0.9893
 2037TIP3    H227527   1.537   1.831   5.491  1.0452  0.6536  0.3277
 2038TIP3   OH227528   3.515   5.488  15.775 -0.3004 -0.1716  0.1167
 2038TIP3    H127529   3.580   5.540  15.822  0.1375 -0.2409 -0.4144
 2038TIP3    H227530   3.463   5.447  15.844 -0.0774  0.2489  0.5399
 2039TIP3   OH227531   4.722   4.069  14.072  0.2345  0.7312 -0.0921
 2039TIP3    H127532   4.765   4.117  14.001 -0.1744  1.9709  0.4676
 2039TIP3    H227533   4.712   4.134  14.141  1.0978 -0.5778  1.3224
 2040TIP3   OH227534   4.788   2.438   1.765 -0.3040  0.1039 -0.5648
 2040TIP3    H127535   4.865   2.473   1.809 -0.6981  1.9451 -1.2713
 2040TIP3    H227536   4.779   2.492   1.687 -1.7246 -0.7662 -1.0342
 2041TIP3   OH227537   1.317   0.208  14.082 -0.3575 -0.0587 -0.0344
 2041TIP3    H127538   1.291   0.294  14.115 -2.8143 -0.4521 -0.7750
 2041TIP3    H227539   1.252   0.148  14.118  3.0730 -2.3343  3.2476
 2042TIP3   OH227540   1.281   3.491   4.858  0.2630 -0.2770  0.3221
 2042TIP3    H127541   1.197   3.448   4.870  0.0885 -0.1498 -0.3810
 2042TIP3    H227542   1.333   3.465   4.934 -0.2040 -0.8470  0.4534
 2043TIP3   OH227543   4.243   0.514  17.009  0.5365  0.8291 -0.4198
 2043TIP3    H127544   4.174   0.449  16.993  2.3126 -1.4874  0.7244
 2043TIP3    H227545   4.196   0.589  17.046 -1.5254 -0.1083 -0.9683
 2044TIP3   OH227546   1.677   1.510  11.299 -0.2643 -0.3091 -0.0785
 2044TIP3    H127547   1.689   1.433  11.244 -1.0958 -1.7516  1.6560
 2044TIP3    H227548   1.603   1.488  11.356 -0.1584  1.5431  0.8630
 2045TIP3   OH227549   1.068   5.073   0.452  0.1041  0.2021  0.3864
 2045TIP3    H127550   1.024   5.124   0.519  2.1655  1.3712  0.9236
 2045TIP3    H227551   1.137   5.025   0.498 -0.2992 -1.2766 -0.4734
 2046TIP3   OH227552   1.342   5.774  14.991 -0.3269  0.2826  0.2077
 2046TIP3    H127553   1.410   5.746  15.052  2.3703 -1.3034 -3.1710
 2046TIP3    H227554   1.383   5.845  14.941 -0.6285 -1.3303 -2.5352
 2047TIP3   OH227555   3.519   2.687  11.924  0.4709 -0.4906 -0.2851
 2047TIP3    H127556   3.532   2.753  11.993  0.7362 -0.5502 -0.2740
 2047TIP3    H227557   3.541   2.734  11.843 -1.6896  0.1542 -0.5660
 2048TIP3   OH227558   6.351   5.009   0.855  0.3943 -0.1183  0.0697
 2048TIP3    H127559   6.312   4.998   0.942  1.5535 -0.5412  0.5555
 2048TIP3    H227560   6.282   5.051   0.803 -0.8873 -1.2920  0.7518
 2049TIP3   OH227561   5.234   0.076   1.878 -0.0375  0.0561  0.7179
 2049TIP3    H127562   5.269  -0.010   1.857  0.6641  0.7102 -1.0146
 2049TIP3    H227563   5.311   0.130   1.896 -0.4467  0.4083  1.4529
 2050TIP3   OH227564   4.306   6.015  16.131 -0.5465 -0.1383 -0.5842
 2050TIP3    H127565   4.225   5.991  16.175 -0.3166 -0.9046 -0.5639
 2050TIP3    H227566   4.338   6.091  16.180 -1.5101  0.5002 -0.9196
 2051TIP3   OH227567   2.942   4.849  15.742 -0.2781 -0.4154  0.4739
 2051TIP3    H127568   2.883   4.780  15.772 -1.1817 -0.5375 -1.4168
 2051TIP3    H227569   2.886   4.926  15.732  0.2585 -0.0278  0.3725
 2052TIP3   OH227570   5.340   6.596   3.150 -0.4613 -0.2802  0.0139
 2052TIP3    H127571   5.300   6.618   3.066 -1.4605  0.2764  0.6133
 2052TIP3    H227572   5.278   6.535   3.191  0.5835 -1.4719 -0.1339
 2053TIP3   OH227573   2.544   4.996  14.527 -0.0741 -0.2263 -0.1482
 2053TIP3    H127574   2.464   5.035  14.562 -0.5574 -0.5175 -0.8965
 2053TIP3    H227575   2.555   4.915  14.577 -1.1124 -0.9625 -1.0431
 2054TIP3   OH227576   5.410   5.688   5.810 -0.2158 -0.2941  0.0843
 2054TIP3    H127577   5.398   5.619   5.745 -0.3068 -0.9681  0.8059
 2054TIP3    H227578   5.349   5.666   5.880  0.6888 -0.2140  0.9140
 2055TIP3   OH227579   2.479   1.065   4.346 -0.3996 -0.1433  0.4844
 2055TIP3    H127580   2.516   1.153   4.345 -2.2144  0.6474  0.7798
 2055TIP3    H227581   2.550   1.010   4.313  0.4390  1.5489 -0.6936
 2056TIP3   OH227582   2.643   3.122  13.785  0.1143  0.6177 -0.3476
 2056TIP3    H127583   2.710   3.112  13.852  0.6171 -0.3855 -0.9694
 2056TIP3    H227584   2.560   3.122  13.833  0.4773  0.1271  0.2928
 2057TIP3   OH227585   6.058   3.130   4.491  0.4155  0.0183  0.6126
 2057TIP3    H127586   6.065   3.211   4.542 -0.5953 -0.2570  1.2250
 2057TIP3    H227587   5.968   3.129   4.459  1.0406  0.2144 -1.2787
 2058TIP3   OH227588   4.981   6.035   3.910  0.3948  0.2438  0.2366
 2058TIP3    H127589   4.922   5.987   3.967  0.2743 -0.0922 -0.1651
 2058TIP3    H227590   4.995   5.977   3.835  1.7987  0.0246  0.6435
 2059TIP3   OH227591   2.700   4.844   3.574  0.1242  0.1628  0.1093
 2059TIP3    H127592   2.672   4.756   3.552  1.2479 -0.4955  1.1658
 2059TIP3    H227593   2.768   4.832   3.641  0.6830  1.7942 -0.1013
 2060TIP3   OH227594   4.122   4.669   4.005  0.0135 -0.0056 -0.4784
 2060TIP3    H127595   4.082   4.754   3.993  1.1926  0.5604 -0.5211
 2060TIP3    H227596   4.184   4.660   3.933 -1.1661 -1.5638 -1.3529
 2061TIP3   OH227597   0.907   0.865   6.320 -0.4552 -0.3426 -0.1188
 2061TIP3    H127598   0.864   0.926   6.380  0.6766  0.1197  0.2481
 2061TIP3    H227599   0.841   0.798   6.302 -0.5237 -1.0949  2.4876
 2062TIP3   OH227600   4.725   0.972  13.812  0.8466 -0.2309  0.2320
 2062TIP3    H127601   4.805   0.925  13.791  0.2162 -1.6533  0.8773
 2062TIP3    H227602   4.716   1.037  13.742  1.4049 -1.5054 -1.0763
 2063TIP3   OH227603   6.400   4.688  14.392  0.3895 -0.3538 -0.3425
 2063TIP3    H127604   6.378   4.772  14.431  1.1302  0.2187 -1.1130
 2063TIP3    H227605   6.479   4.660  14.439  0.4470 -0.3548 -0.4373
 2064TIP3   OH227606   5.829   4.747   4.994  0.3632 -0.0907 -0.0373
 2064TIP3    H127607   5.751   4.725   5.045 -0.1646 -2.4811 -1.6761
 2064TIP3    H227608   5.795   4.791   4.916  0.5696 -1.4066 -0.8991
 2065TIP3   OH227609   4.189   2.226  16.340  0.5748 -0.0960  0.3985
 2065TIP3    H127610   4.184   2.142  16.387  0.4079 -0.1722  0.2462
 2065TIP3    H227611   4.142   2.287  16.397  1.2857  0.0493  0.8407
 2066TIP3   OH227612   6.148   0.233   0.403  0.0805 -0.1706  0.1016
 2066TIP3    H127613   6.094   0.221   0.325 -0.3461  1.3723  0.1310
 2066TIP3    H227614   6.122   0.161   0.461  0.3254 -1.2568 -1.1141
 2067TIP3   OH227615   4.094   3.921   5.730 -0.0164 -0.8127  0.1570
 2067TIP3    H127616   4.186   3.946   5.717  0.0541 -1.3113 -0.3631
 2067TIP3    H227617   4.044   3.990   5.686  0.0207  0.4683  2.0198
 2068TIP3   OH227618   3.644   2.613   0.774  0.6521 -0.4321  0.2120
 2068TIP3    H127619   3.725   2.662   0.759  0.9944 -0.5085  1.7232
 2068TIP3    H227620   3.656   2.570   0.858 -1.8433  1.4573  1.7055
 2069TIP3   OH227621   6.257   6.036   0.538 -0.3619  0.3356 -1.1600
 2069TIP3    H127622   6.341   6.082   0.532 -1.3832  2.6906  0.7517
 2069TIP3    H227623   6.256   5.999   0.626 -1.9579  1.9076 -0.4433
 2070TIP3   OH227624   1.208   3.947  14.068  0.0424 -0.2249 -0.3507
 2070TIP3    H127625   1.163   3.868  14.097  0.7522 -0.2002  0.8536
 2070TIP3    H227626   1.175   4.016  14.125 -1.8558  0.7532 -2.4542
 2071TIP3   OH227627   3.435   6.655   5.909 -0.4348 -0.2715 -1.2326
 2071TIP3    H127628   3.411   6.744   5.881 -2.0315  0.0287  0.8883
 2071TIP3    H227629   3.360   6.624   5.958  1.2104 -1.6952  0.5529
 2072TIP3   OH227630   4.943   5.510  12.284 -0.6911 -0.0818  0.3936
 2072TIP3    H127631   4.856   5.544  12.306 -1.5921 -2.9168  1.6359
 2072TIP3    H227632   4.986   5.498  12.369 -1.1752 -3.6573  0.2819
 2073TIP3   OH227633   2.939   2.532   0.169 -0.0073  0.2754  1.1798
 2073TIP3    H127634   3.011   2.500   0.222  0.4801  0.9997  0.9757
 2073TIP3    H227635   2.862   2.523   0.224  0.2362 -0.5336  1.3890
 2074TIP3   OH227636   5.686   4.600   1.372 -0.3167  0.4173  0.1237
 2074TIP3    H127637   5.599   4.621   1.407 -0.5848 -0.2303 -0.1209
 2074TIP3    H227638   5.743   4.597   1.449 -0.8506 -0.7434  0.5090
 2075TIP3   OH227639   5.753   1.301   6.042 -0.0838 -0.0947  0.2011
 2075TIP3    H127640   5.768   1.376   6.101 -0.4566  0.1624 -0.0281
 2075TIP3    H227641   5.761   1.225   6.099 -0.1292  0.1372  0.5252
 2076TIP3   OH227642   5.753   0.701  14.730 -0.4315 -0.0832 -0.6659
 2076TIP3    H127643   5.782   0.708  14.821  0.2694  0.8161 -0.9357
 2076TIP3    H227644   5.793   0.620  14.698 -0.5535 -0.3203 -0.2214
 2077TIP3   OH227645   4.169   6.759   1.883  0.0646 -0.0627 -0.2013
 2077TIP3    H127646   4.199   6.726   1.968  1.0174  0.2583 -0.3977
 2077TIP3    H227647   4.173   6.684   1.825 -0.3340 -0.2219 -0.0222
 2078TIP3   OH227648   0.216   1.778  12.027 -0.1089 -0.2083 -0.1795
 2078TIP3    H127649   0.257   1.757  12.111 -0.3756  0.4039  0.1150
 2078TIP3    H227650   0.283   1.827  11.979 -1.3641  3.5071  1.4867
 2079TIP3   OH227651   0.167   4.791   2.378 -0.3093  0.3259 -0.1495
 2079TIP3    H127652   0.203   4.844   2.449  2.9736 -2.7695  0.7703
 2079TIP3    H227653   0.234   4.794   2.309 -0.7268 -1.3536 -0.6723
 2080TIP3   OH227654   5.110   6.383  10.536  0.2408 -0.2683  0.0052
 2080TIP3    H127655   5.147   6.449  10.477  0.7943 -1.8323 -1.4770
 2080TIP3    H227656   5.034   6.425  10.575  0.9872  1.4743 -0.3460
 2081TIP3   OH227657   0.904   6.450   0.530 -0.2873  0.0122  0.3780
 2081TIP3    H127658   0.812   6.444   0.557  0.1207  0.6708  1.9964
 2081TIP3    H227659   0.954   6.424   0.607  0.9163  0.1526 -0.3195
 2082TIP3   OH227660   2.743   2.825   5.416  0.8432 -0.0816 -0.0466
 2082TIP3    H127661   2.709   2.896   5.362  3.0421  0.7237 -0.4918
 2082TIP3    H227662   2.745   2.749   5.358 -0.3685 -0.2246  0.0706
 2083TIP3   OH227663   3.843   0.056  10.766  0.1915 -0.1757 -0.5975
 2083TIP3    H127664   3.868   0.147  10.778 -1.6455  0.3037  0.0341
 2083TIP3    H227665   3.887   0.029  10.686  0.2146  1.4989 -1.1969
 2084TIP3   OH227666   1.204   3.711  16.851 -0.7463 -0.0138 -0.0211
 2084TIP3    H127667   1.175   3.665  16.929  0.6963 -0.4929  0.2655
 2084TIP3    H227668   1.251   3.788  16.884  0.7230 -0.7281 -0.3344
 2085TIP3   OH227669   2.134   5.016   0.859  0.2030 -0.3819  0.2335
 2085TIP3    H127670   2.053   4.991   0.902 -0.3276 -0.2437 -0.6555
 2085TIP3    H227671   2.136   5.112   0.864  0.0663 -0.3573 -0.1762
 2086TIP3   OH227672   5.190   4.540   3.322 -0.0782 -0.2756 -0.8013
 2086TIP3    H127673   5.177   4.635   3.327  1.3707 -0.0630 -0.6563
 2086TIP3    H227674   5.132   4.504   3.389  2.8855  0.8960  2.7392
 2087TIP3   OH227675   2.335   2.794  15.809  0.0290 -0.2097  0.2778
 2087TIP3    H127676   2.339   2.806  15.715 -1.0078  2.4284  0.4978
 2087TIP3    H227677   2.426   2.776  15.835  0.4877  0.0523 -1.0884
 2088TIP3   OH227678   2.246   1.614  14.252 -0.4118 -0.2637 -0.3042
 2088TIP3    H127679   2.338   1.626  14.274 -0.0500 -0.4997 -1.6287
 2088TIP3    H227680   2.247   1.562  14.172 -1.6423  1.0120 -1.1964
 2089TIP3   OH227681   6.363   3.753   3.888  0.1430 -0.0773 -0.0357
 2089TIP3    H127682   6.409   3.680   3.930  0.6682  0.2703 -0.0012
 2089TIP3    H227683   6.337   3.718   3.802 -0.1722 -0.5093  0.2344
 2090TIP3   OH227684   4.716   2.055   1.117 -0.3965  0.1836 -0.0405
 2090TIP3    H127685   4.634   2.012   1.142 -1.1484  0.5584 -1.7338
 2090TIP3    H227686   4.722   2.042   1.023  2.3056 -1.1811  0.2316
 2091TIP3   OH227687   2.889   0.925  12.421  0.4618  0.2134 -0.3909
 2091TIP3    H127688   2.904   0.997  12.360 -0.0078  1.2581  0.6728
 2091TIP3    H227689   2.895   0.846  12.368  0.9238  1.0375 -1.6081
 2092TIP3   OH227690   1.759   4.144   4.181 -0.0351 -0.1438 -0.8223
 2092TIP3    H127691   1.795   4.154   4.270  0.7369 -0.0367 -1.1411
 2092TIP3    H227692   1.673   4.185   4.186  0.6295  1.2682 -0.5280
 2093TIP3   OH227693   5.555   5.090  12.342  0.5156  0.9186  0.0347
 2093TIP3    H127694   5.585   5.030  12.410 -1.1186  0.5166  0.4477
 2093TIP3    H227695   5.598   5.059  12.262 -0.2544 -0.8036  0.2488
 2094TIP3   OH227696   3.703   5.115  13.430 -1.1195  0.0868  0.1522
 2094TIP3    H127697   3.683   5.030  13.391  1.7046 -0.7990  0.3927
 2094TIP3    H227698   3.720   5.095  13.522 -1.2023  1.0683  0.3920
 2095TIP3   OH227699   4.726   3.557  14.910  0.2619  0.3047  0.0716
 2095TIP3    H127700   4.807   3.518  14.876  1.6899  2.2437  1.0333
 2095TIP3    H227701   4.707   3.506  14.989  1.5604  0.8460  0.7834
 2096TIP3   OH227702   2.549   5.466   3.756 -0.1301 -0.1654 -1.1299
 2096TIP3    H127703   2.592   5.380   3.753  0.5383  0.1192 -0.0321
 2096TIP3    H227704   2.470   5.452   3.808  0.9194  0.2567  0.6467
 2097TIP3   OH227705   4.247   2.343   5.225  0.1628  0.3613 -0.3208
 2097TIP3    H127706   4.161   2.375   5.253 -0.1421  0.2001 -1.0601
 2097TIP3    H227707   4.231   2.302   5.140  0.7315 -0.8101  0.1046
 2098TIP3   OH227708   2.257   3.792   3.115  0.1461  0.3749  0.0901
 2098TIP3    H127709   2.241   3.861   3.050 -1.4642 -0.5227 -0.5428
 2098TIP3    H227710   2.306   3.836   3.185 -1.1289  2.2581 -0.1096
 2099TIP3   OH227711   4.336   6.061  10.068 -0.3824 -0.1090 -0.0759
 2099TIP3    H127712   4.261   6.052  10.010 -1.7522  0.9141  1.4462
 2099TIP3    H227713   4.341   6.155  10.087  0.7957 -0.2632  0.4794
 2100TIP3   OH227714   5.514   2.083  14.614  0.2177  0.0731 -0.5110
 2100TIP3    H127715   5.457   2.068  14.539 -0.4702 -0.9456  0.1919
 2100TIP3    H227716   5.466   2.146  14.669  0.9411  1.2116 -1.1232
 2101TIP3   OH227717   0.478   1.122  14.261 -0.1762  0.1298  0.1755
 2101TIP3    H127718   0.479   1.036  14.305 -0.6698  1.2564  2.5559
 2101TIP3    H227719   0.543   1.174  14.309  0.9298  0.8355 -1.9334
 2102TIP3   OH227720   2.245   2.315  13.808 -0.1721  0.4200 -0.0003
 2102TIP3    H127721   2.239   2.403  13.847 -0.9899 -0.0226  0.9114
 2102TIP3    H227722   2.293   2.329  13.726 -1.3288  1.9155 -0.4657
 2103TIP3   OH227723   0.361   0.700  14.129  0.0313  0.2055  0.3056
 2103TIP3    H127724   0.449   0.735  14.113  0.8273 -1.9517 -0.4514
 2103TIP3    H227725   0.304   0.748  14.069  0.7880  1.1879  0.3476
 2104TIP3   OH227726   6.352   4.757  12.854  0.3127 -0.6185 -0.1237
 2104TIP3    H127727   6.276   4.760  12.795  0.7480 -0.7178 -0.7036
 2104TIP3    H227728   6.321   4.797  12.935 -0.2955 -0.4538 -0.4281
 2105TIP3   OH227729   2.347   2.770  11.512  0.2053 -0.6517  0.0924
 2105TIP3    H127730   2.338   2.813  11.597 -0.7525  0.2916 -0.4508
 2105TIP3    H227731   2.266   2.719  11.503 -0.9005  1.1811 -1.2435
 2106TIP3   OH227732   3.216   4.602  14.438  0.2348  0.2027 -0.6688
 2106TIP3    H127733   3.297   4.570  14.399  0.9614  0.7505  0.3632
 2106TIP3    H227734   3.204   4.689  14.401  1.2790  0.9928  0.7933
 2107TIP3   OH227735   3.692   4.924   1.744  0.3127 -0.2621 -0.7892
 2107TIP3    H127736   3.679   4.913   1.839 -1.6973  1.0058 -0.8672
 2107TIP3    H227737   3.785   4.906   1.731  1.1239  1.5534  1.7466
 2108TIP3   OH227738   6.300   3.881  10.899 -0.1503 -0.2051  0.7085
 2108TIP3    H127739   6.224   3.936  10.882  0.1572  0.2027  0.6138
 2108TIP3    H227740   6.311   3.830  10.819 -0.1069  0.0054  0.5776
 2109TIP3   OH227741   0.093   5.919  15.453  1.2406 -0.1793 -0.0255
 2109TIP3    H127742   0.116   5.863  15.378  1.2338 -0.8959  0.4923
 2109TIP3    H227743   0.104   5.862  15.529 -1.2157 -0.2696  0.3519
 2110TIP3   OH227744   6.757   0.899  10.850 -0.1192  0.4051 -0.1472
 2110TIP3    H127745   6.687   0.934  10.795  0.2181  1.0966 -0.1531
 2110TIP3    H227746   6.810   0.847  10.790  0.1886  1.0713 -0.4682
 2111TIP3   OH227747   6.053   1.819  16.820  0.3908  0.0381  0.1282
 2111TIP3    H127748   6.089   1.899  16.857 -0.4526  0.0703  0.9088
 2111TIP3    H227749   6.066   1.753  16.888  0.6304 -0.3736 -0.3142
 2112TIP3   OH227750   6.444   4.549  12.297 -0.0649 -0.5790 -0.5950
 2112TIP3    H127751   6.521   4.599  12.268  0.9428 -1.6604  0.1152
 2112TIP3    H227752   6.383   4.554  12.224 -0.3006  2.2298 -0.3224
 2113TIP3   OH227753   2.307   5.976  15.620 -0.1933  0.8246  0.7151
 2113TIP3    H127754   2.223   6.014  15.596 -0.0967  0.3155 -0.4744
 2113TIP3    H227755   2.284   5.892  15.661 -0.2662  0.7412  0.5031
 2114TIP3   OH227756   5.010   6.066   2.051  0.1185  0.2362  0.0390
 2114TIP3    H127757   5.014   6.070   2.146 -0.2873  1.4007  0.0268
 2114TIP3    H227758   5.065   6.139   2.022  1.3992 -0.9640 -0.6627
 2115TIP3   OH227759   1.891   1.319   4.074  0.1048 -0.3545  0.8511
 2115TIP3    H127760   1.968   1.347   4.025 -1.1387  0.4170 -0.7489
 2115TIP3    H227761   1.838   1.271   4.010 -2.0566  1.5583  1.0932
 2116TIP3   OH227762   2.602   0.852  13.582  0.0501 -0.1668  0.3599
 2116TIP3    H127763   2.687   0.842  13.624  0.0567  0.7012  0.5846
 2116TIP3    H227764   2.586   0.769  13.538  3.0792  1.0585 -3.5989
 2117TIP3   OH227765   2.174   1.159  12.634 -0.0431  0.2804 -0.2134
 2117TIP3    H127766   2.195   1.066  12.632 -0.2160  0.2387 -0.0161
 2117TIP3    H227767   2.118   1.170  12.711  0.9741  0.7543  0.4839
 2118TIP3   OH227768   4.623   5.666  17.013 -0.3721  0.1718 -0.1856
 2118TIP3    H127769   4.621   5.602  16.942  0.1103  1.9366 -1.8842
 2118TIP3    H227770   4.535   5.664  17.050 -0.6638 -0.7113 -0.8981
 2119TIP3   OH227771   4.450   0.343   3.115  0.4658 -0.4653 -0.3949
 2119TIP3    H127772   4.431   0.436   3.122  1.4298 -0.2892  0.0368
 2119TIP3    H227773   4.426   0.307   3.200  1.8148 -0.2745  0.0860
 2120TIP3   OH227774   5.340   0.633   6.317 -0.0917 -0.1069  0.2477
 2120TIP3    H127775   5.363   0.712   6.366 -0.9373 -0.0606  0.5875
 2120TIP3    H227776   5.244   0.627   6.325  0.1219 -2.3754  2.0919
 2121TIP3   OH227777   4.649   4.135  13.395  0.0738  0.5206 -0.1688
 2121TIP3    H127778   4.580   4.078  13.428 -1.4318  2.1284 -0.3846
 2121TIP3    H227779   4.688   4.086  13.322 -0.8166 -0.4235 -0.0252
 2122TIP3   OH227780   4.968   5.030  15.341 -0.2069  0.0515  0.5697
 2122TIP3    H127781   5.011   4.979  15.272 -1.3120 -0.4542  0.2370
 2122TIP3    H227782   5.033   5.096  15.366  0.4501 -0.1713 -0.4985
 2123TIP3   OH227783   5.855   6.630  14.468  0.0538  0.4264  0.2042
 2123TIP3    H127784   5.818   6.612  14.382 -0.5284  0.9891  0.3329
 2123TIP3    H227785   5.946   6.657  14.450  0.7341 -1.8375 -0.0457
 2124TIP3   OH227786   5.558   1.055  16.130  0.0844  0.3960 -0.7251
 2124TIP3    H127787   5.535   1.091  16.215 -0.7404  0.4113 -0.9468
 2124TIP3    H227788   5.621   1.117  16.094  0.6885  0.2208 -0.0024
 2125TIP3   OH227789   6.701   1.578  13.665  0.0247  0.0111  0.2909
 2125TIP3    H127790   6.789   1.576  13.626  0.7561  1.2214  1.7635
 2125TIP3    H227791   6.670   1.488  13.657  0.6504 -0.0620 -1.8535
 2126TIP3   OH227792   3.205   3.012   6.004 -0.7499  0.1633  0.3424
 2126TIP3    H127793   3.200   2.943   5.937  0.8116  0.7299 -0.3941
 2126TIP3    H227794   3.165   3.088   5.963 -0.7452  0.2261  0.4536
 2127TIP3   OH227795   3.051   2.588   5.198 -0.1052  0.0985  0.2433
 2127TIP3    H127796   2.961   2.558   5.208  0.3639 -1.4243  0.0906
 2127TIP3    H227797   3.103   2.526   5.249  1.0166 -0.0092 -0.9888
 2128TIP3   OH227798   3.459   6.705   2.724  0.6922 -0.5929 -0.0464
 2128TIP3    H127799   3.497   6.635   2.777  0.9703 -0.4762 -0.0901
 2128TIP3    H227800   3.466   6.674   2.634 -0.3114 -1.0440  0.0246
 2129TIP3   OH227801   0.719   3.867   4.929 -0.2643 -0.2168  0.6233
 2129TIP3    H127802   0.677   3.828   5.006 -0.6469  0.4873  0.7776
 2129TIP3    H227803   0.648   3.876   4.865  0.3524 -2.3480 -0.4733
 2130TIP3   OH227804   5.117   6.641   2.607  0.2814  0.0801  0.0031
 2130TIP3    H127805   5.043   6.639   2.668  0.0114  1.7607 -0.2127
 2130TIP3    H227806   5.157   6.555   2.614 -2.8003 -1.6281 -1.2532
 2131TIP3   OH227807   5.578   6.763  16.924 -0.1641 -0.2367 -0.2190
 2131TIP3    H127808   5.509   6.776  16.859 -1.0784  2.0374  1.0667
 2131TIP3    H227809   5.546   6.692  16.979 -0.3302 -0.7987 -1.0145
 2132TIP3   OH227810   1.099   2.284   1.638  0.2458  0.4015  0.0248
 2132TIP3    H127811   1.179   2.293   1.586  1.1280  0.9318  1.4191
 2132TIP3    H227812   1.128   2.293   1.729 -1.3759  0.3998  0.5749
 2133TIP3   OH227813   0.992   6.207   4.222 -0.3048  0.1243  0.8525
 2133TIP3    H127814   1.014   6.296   4.196 -2.5808  0.3382 -0.6126
 2133TIP3    H227815   1.003   6.155   4.142 -0.9894 -0.5138  1.1644
 2134TIP3   OH227816   5.181   5.661  12.148  0.1084 -0.3739 -0.6308
 2134TIP3    H127817   5.218   5.619  12.225 -0.5448 -0.6891 -0.4790
 2134TIP3    H227818   5.087   5.667  12.167  0.4445  3.7959  0.6619
 2135TIP3   OH227819   1.571   0.910  13.412  0.5495  0.0869  0.3537
 2135TIP3    H127820   1.647   0.856  13.394  0.8351  0.2644  0.9804
 2135TIP3    H227821   1.597   0.964  13.488 -0.3764 -0.2476  0.9305
 2136TIP3   OH227822   2.839   4.032  13.194 -0.2221 -0.4147  0.4376
 2136TIP3    H127823   2.745   4.044  13.209 -0.3134  0.8861 -0.9579
 2136TIP3    H227824   2.867   4.112  13.151  1.5139 -0.8623  0.6561
 2137TIP3   OH227825   3.296   5.666   0.969 -0.0852  0.0600  1.1062
 2137TIP3    H127826   3.359   5.594   0.976  0.2478  0.1757 -0.3142
 2137TIP3    H227827   3.330   5.720   0.898 -0.8107  1.1475  1.5612
 2138TIP3   OH227828   2.194   4.539  12.263  0.0804  0.5668  0.1993
 2138TIP3    H127829   2.150   4.585  12.334  0.1854  0.6111  0.2370
 2138TIP3    H227830   2.287   4.555  12.279  0.0681  1.4740 -0.5508
 2139TIP3   OH227831   1.976   1.653   3.111 -0.4503  0.1038  0.0973
 2139TIP3    H127832   1.949   1.690   3.196 -0.0649  2.8264 -0.8789
 2139TIP3    H227833   1.901   1.599   3.084 -1.6578  1.2616  0.9994
 2140TIP3   OH227834   3.711   5.847   0.420  0.1788 -0.3475  0.4319
 2140TIP3    H127835   3.678   5.798   0.496  0.9472  0.3516  1.2327
 2140TIP3    H227836   3.632   5.877   0.376 -0.2853 -0.3668  1.2201
 2141TIP3   OH227837   3.396   5.437  11.561  0.0068  0.0541  0.2852
 2141TIP3    H127838   3.316   5.440  11.508  0.2085 -0.5277 -0.0559
 2141TIP3    H227839   3.407   5.345  11.582 -0.3283  0.3094  1.7455
 2142TIP3   OH227840   6.111   4.410   0.434  0.5760 -0.2776 -0.0932
 2142TIP3    H127841   6.187   4.355   0.452  1.6916  0.9407 -0.8975
 2142TIP3    H227842   6.044   4.380   0.496  1.8908 -0.9889  1.0369
 2143TIP3   OH227843   0.962   1.756  13.479 -0.0688  0.3328  0.5772
 2143TIP3    H127844   0.939   1.663  13.489  0.6162  0.2887  1.8378
 2143TIP3    H227845   0.895   1.803  13.527 -2.3905  0.7875 -2.7375
 2144TIP3   OH227846   6.683   2.575   3.975 -0.0255  0.2961 -0.3048
 2144TIP3    H127847   6.688   2.595   3.881  1.1422 -0.7571 -0.5070
 2144TIP3    H227848   6.708   2.656   4.018  0.3968  0.5243 -0.9541
 2145TIP3   OH227849   3.592   4.228  14.047  0.0193  0.2705 -0.3381
 2145TIP3    H127850   3.607   4.135  14.063  0.4943  0.3087 -0.5412
 2145TIP3    H227851   3.658   4.273  14.100 -0.2703  0.4961 -0.1638
 2146TIP3   OH227852   4.177   1.498  11.188  0.6340  0.1900 -0.3367
 2146TIP3    H127853   4.245   1.492  11.121 -0.1963 -0.9022 -1.1154
 2146TIP3    H227854   4.150   1.408  11.203 -0.2243  0.5556  0.4209
 2147TIP3   OH227855   0.110   5.885   2.653  0.3094 -0.8965 -0.1471
 2147TIP3    H127856   0.065   5.925   2.579  2.3782  1.3573 -0.2942
 2147TIP3    H227857   0.039   5.861   2.713 -1.2797 -0.9342 -1.9477
 2148TIP3   OH227858   0.680   4.964   5.750 -0.3557 -0.4211  0.4635
 2148TIP3    H127859   0.598   5.003   5.780 -1.3084 -0.5496 -1.7706
 2148TIP3    H227860   0.693   4.887   5.806 -1.1422  0.2352  1.5740
 2149TIP3   OH227861   1.847   5.550  15.288  0.3112  0.2072  0.7925
 2149TIP3    H127862   1.771   5.506  15.325  0.3578 -0.2938  0.2987
 2149TIP3    H227863   1.855   5.631  15.339 -0.8470  0.5147  0.5169
 2150TIP3   OH227864   1.812   0.511  14.468 -0.9820 -0.1277 -0.1161
 2150TIP3    H127865   1.860   0.431  14.449  0.1317  0.9724 -2.3295
 2150TIP3    H227866   1.746   0.516  14.398  0.1410  1.7257 -1.1175
 2151TIP3   OH227867   1.596   3.221   3.253 -0.3012 -0.6795 -0.4688
 2151TIP3    H127868   1.553   3.210   3.168  0.2543 -0.1690 -0.8164
 2151TIP3    H227869   1.531   3.189   3.316 -0.7624 -0.9528 -1.0702
 2152TIP3   OH227870   3.176   5.192   4.978 -0.0855 -0.2087 -0.1059
 2152TIP3    H127871   3.164   5.285   4.994  0.9069 -0.0769 -0.0341
 2152TIP3    H227872   3.256   5.188   4.925  0.2469 -1.0617  0.4516
 2153TIP3   OH227873   5.044   4.893  14.673  0.0993  0.1240  0.0298
 2153TIP3    H127874   5.055   4.907  14.579 -1.2616  0.2074 -0.1441
 2153TIP3    H227875   5.033   4.981  14.710 -0.1478  0.0471  0.1457
 2154TIP3   OH227876   5.027   0.185   2.057  0.0663  0.3319  0.0063
 2154TIP3    H127877   5.106   0.161   2.009 -0.1521 -0.0713 -0.1648
 2154TIP3    H227878   5.006   0.107   2.108 -1.0062 -0.0975 -1.0217
 2155TIP3   OH227879   6.778   2.508  14.686  0.2481  0.2407  0.6674
 2155TIP3    H127880   6.744   2.517  14.775 -0.9914  1.8776  0.0669
 2155TIP3    H227881   6.835   2.584  14.674 -0.2674  0.5010 -0.2191
 2156TIP3   OH227882   4.374   1.006   2.500 -0.1318  0.1505  0.0656
 2156TIP3    H127883   4.365   1.096   2.534  2.3396  0.0542  1.1645
 2156TIP3    H227884   4.400   1.018   2.409  0.3575  0.5656  0.2532
 2157TIP3   OH227885   6.570   4.270  11.642 -0.0513 -0.1844 -0.2251
 2157TIP3    H127886   6.641   4.287  11.705  0.3165 -1.6889 -0.1857
 2157TIP3    H227887   6.491   4.300  11.687  0.1972 -1.2554  0.9987
 2158TIP3   OH227888   4.499   1.944  13.403 -0.5835 -0.0571  0.4585
 2158TIP3    H127889   4.461   2.010  13.460 -2.0130 -0.2150 -0.2573
 2158TIP3    H227890   4.462   1.963  13.316  1.3189  0.0156 -0.3787
 2159TIP3   OH227891   2.565   4.405   2.977  0.3256 -0.3775 -0.0351
 2159TIP3    H127892   2.609   4.350   3.041  1.5540 -0.0297 -0.5428
 2159TIP3    H227893   2.592   4.494   2.999 -1.6320  0.0475  0.7714
 2160TIP3   OH227894   4.973   5.653  11.390 -0.5675 -0.0471  0.2140
 2160TIP3    H127895   5.052   5.635  11.440  0.3197  0.5620 -0.9134
 2160TIP3    H227896   4.990   5.615  11.304 -1.0361  1.0176 -0.3776
 2161TIP3   OH227897   0.625   0.638  16.555 -0.4778 -0.3054  0.6880
 2161TIP3    H127898   0.547   0.663  16.505  0.1293  0.4254  0.0819
 2161TIP3    H227899   0.634   0.707  16.621  0.5936  0.5468 -0.3069
 2162TIP3   OH227900   6.097   0.996  11.807  0.1434 -0.0330 -0.1317
 2162TIP3    H127901   6.044   0.931  11.761 -0.4734 -0.0044  0.5231
 2162TIP3    H227902   6.133   1.051  11.737  0.1984 -0.7119 -0.6538
 2163TIP3   OH227903   6.251   2.082  11.497  0.1970 -0.1467  0.3967
 2163TIP3    H127904   6.201   2.074  11.416  0.8526 -0.7889  0.0442
 2163TIP3    H227905   6.293   1.996  11.507  0.1360 -0.0743  1.4102
 2164TIP3   OH227906   3.164   5.079  16.864  0.1980 -0.5698 -0.5675
 2164TIP3    H127907   3.089   5.024  16.888  0.6099 -1.0344 -0.3273
 2164TIP3    H227908   3.139   5.167  16.892  0.1807 -0.9026  0.4974
 2165TIP3   OH227909   1.613   5.147  12.383 -0.7085 -0.1211  0.3915
 2165TIP3    H127910   1.676   5.186  12.323 -0.7263 -0.0199  0.4388
 2165TIP3    H227911   1.637   5.181  12.469 -1.7518  1.1216  0.2289
 2166TIP3   OH227912   3.986   1.577  12.821 -0.8753 -0.9069 -0.3273
 2166TIP3    H127913   4.011   1.505  12.762 -0.2936 -0.3461 -0.7896
 2166TIP3    H227914   4.014   1.656  12.774 -2.4701 -0.2975 -0.3218
 2167TIP3   OH227915   2.536   4.145  14.542  0.5209  0.7212  0.6736
 2167TIP3    H127916   2.552   4.152  14.636 -0.0287 -1.1663  0.9482
 2167TIP3    H227917   2.615   4.104  14.506 -0.7308 -2.2452  0.9893
 2168TIP3   OH227918   6.428   1.245   3.191  0.0648  0.1305 -0.0869
 2168TIP3    H127919   6.379   1.163   3.199  0.0928  0.2472  1.6341
 2168TIP3    H227920   6.369   1.304   3.145  0.3706 -1.0788 -2.1499
 2169TIP3   OH227921   0.530   0.395  15.642 -0.8089 -0.4665 -0.6418
 2169TIP3    H127922   0.504   0.324  15.702 -0.9070 -0.0737 -0.2164
 2169TIP3    H227923   0.465   0.391  15.571 -1.3388 -0.2429 -0.1779
 2170TIP3   OH227924   2.531   6.554  15.129 -0.0519 -0.7230  0.1223
 2170TIP3    H127925   2.477   6.508  15.194 -1.0501  1.1727  0.7038
 2170TIP3    H227926   2.529   6.496  15.053  0.1168 -2.4132  1.3350
 2171TIP3   OH227927   2.972   4.686  10.362  0.3649 -0.1878  0.2084
 2171TIP3    H127928   2.917   4.764  10.358 -1.1863 -1.2544 -0.6398
 2171TIP3    H227929   2.929   4.624  10.303  1.8953 -1.4773  0.3760
 2172TIP3   OH227930   5.835   4.141  11.232 -0.1793 -0.3148 -0.1838
 2172TIP3    H127931   5.926   4.169  11.238 -0.1349 -0.3791 -0.5580
 2172TIP3    H227932   5.839   4.046  11.236 -0.3759 -0.2874  1.7216
 2173TIP3   OH227933   4.257   5.075  14.994 -0.4278  0.0054  0.1080
 2173TIP3    H127934   4.334   5.030  14.959  0.5853  1.4650  0.3317
 2173TIP3    H227935   4.190   5.064  14.927  0.2210 -0.6554 -0.4528
 2174TIP3   OH227936   0.024   4.157  13.351 -0.0261  0.1473 -0.2351
 2174TIP3    H127937   0.074   4.220  13.298  0.6407 -0.5728 -0.4730
 2174TIP3    H227938   0.025   4.077  13.300 -1.5427  0.1434 -0.2934
 2175TIP3   OH227939   4.760   3.600  11.986 -0.3700  0.0210  0.2108
 2175TIP3    H127940   4.695   3.669  11.972  0.0902  0.4471  0.1579
 2175TIP3    H227941   4.763   3.553  11.903 -1.8580 -1.1051  0.7279
 2176TIP3   OH227942   5.777   5.362  14.196  0.2399  0.1594  0.0123
 2176TIP3    H127943   5.682   5.374  14.201  0.4061  1.1283  1.1575
 2176TIP3    H227944   5.788   5.285  14.139 -1.2467 -0.3634  0.3766
 2177TIP3   OH227945   5.488   0.970   1.899 -0.6503 -0.3662 -0.5312
 2177TIP3    H127946   5.418   1.035   1.891  0.4886  0.9907  0.1679
 2177TIP3    H227947   5.524   0.962   1.811 -2.3570 -1.9466 -1.1726
 2178TIP3   OH227948   5.288   0.539  16.669 -0.1148 -0.1802  0.4198
 2178TIP3    H127949   5.271   0.630  16.691 -0.5336  0.0131 -0.6612
 2178TIP3    H227950   5.366   0.542  16.614 -0.1552 -0.4733  0.3462
 2179TIP3   OH227951   3.317   2.183  11.871 -0.3939 -0.7672 -0.0273
 2179TIP3    H127952   3.346   2.273  11.857 -0.1366 -0.8973 -0.3447
 2179TIP3    H227953   3.225   2.191  11.898 -0.3659 -0.4107 -0.0362
 2180TIP3   OH227954   3.680   1.119   3.446 -0.3464  0.4176  0.5216
 2180TIP3    H127955   3.601   1.095   3.397  0.1170  1.5156 -0.8143
 2180TIP3    H227956   3.677   1.214   3.453  0.3337  0.3901  1.4114
 2181TIP3   OH227957   4.368   4.805  13.878 -0.2020  0.0425 -0.1640
 2181TIP3    H127958   4.329   4.759  13.952 -1.1828 -1.8012 -1.7546
 2181TIP3    H227959   4.447   4.846  13.915 -0.1216 -1.6232  1.6908
 2182TIP3   OH227960   1.481   2.759  14.964 -0.5140 -0.4595 -0.7612
 2182TIP3    H127961   1.388   2.768  14.944 -0.3725 -2.0158 -2.2567
 2182TIP3    H227962   1.507   2.677  14.924  0.8556 -1.5833  2.1481
 2183TIP3   OH227963   6.359   2.187   2.302 -0.1784 -0.3304  0.9564
 2183TIP3    H127964   6.387   2.275   2.328  2.3539 -1.5901  2.9809
 2183TIP3    H227965   6.264   2.187   2.314 -0.2922  2.1833  0.5525
 2184TIP3   OH227966   3.543   1.417  11.616 -0.7778 -0.6522  0.6120
 2184TIP3    H127967   3.497   1.376  11.689 -1.0680 -0.1580  0.7111
 2184TIP3    H227968   3.622   1.363  11.604  0.2713  0.3480  2.5571
 2185TIP3   OH227969   6.513   4.875  15.503  0.1289  0.1578  0.5792
 2185TIP3    H127970   6.479   4.900  15.417 -0.3976  0.9925  1.0193
 2185TIP3    H227971   6.440   4.891  15.563 -0.6682 -3.4617  0.8038
 2186TIP3   OH227972   1.739   3.783   3.930  0.1776 -0.5095  0.0811
 2186TIP3    H127973   1.648   3.768   3.903  0.4010 -2.6973  0.3569
 2186TIP3    H227974   1.790   3.770   3.851  0.3020  0.4486 -0.0115
 2187TIP3   OH227975   3.424   1.650  16.065 -0.9242 -0.4383  0.3559
 2187TIP3    H127976   3.483   1.656  16.140  0.9166  0.6230 -1.0800
 2187TIP3    H227977   3.381   1.565  16.074  0.8152 -1.2534  1.5183
 2188TIP3   OH227978   5.613   3.303  10.865  0.3775  0.2176  0.4991
 2188TIP3    H127979   5.533   3.331  10.909  0.7400  3.2005 -0.5054
 2188TIP3    H227980   5.631   3.372  10.802  2.5797 -1.4490 -0.8600
 2189TIP3   OH227981   3.682   5.615   1.658 -0.0139  0.0759  0.1362
 2189TIP3    H127982   3.650   5.574   1.578  0.0065  1.8780 -0.8455
 2189TIP3    H227983   3.767   5.651   1.635 -0.5935  1.7894  0.5424
 2190TIP3   OH227984   0.944   0.824  13.860  0.6233 -0.0854  0.0862
 2190TIP3    H127985   0.923   0.897  13.801 -1.0901  0.4428  1.2813
 2190TIP3    H227986   0.921   0.856  13.947 -1.2254 -2.4115  0.5400
 2191TIP3   OH227987   2.543   2.215  16.113  0.0797  0.1372  0.0578
 2191TIP3    H127988   2.576   2.134  16.151 -1.2984 -0.6222 -0.2976
 2191TIP3    H227989   2.546   2.278  16.185 -1.7732 -1.0777  1.2867
 2192TIP3   OH227990   0.914   3.315  15.459 -0.2750  0.1777 -0.6956
 2192TIP3    H127991   0.841   3.258  15.484 -0.9661  0.0081 -2.8968
 2192TIP3    H227992   0.969   3.319  15.537 -1.8375 -0.9468  0.5266
 2193TIP3   OH227993   1.174   1.159  16.243 -0.4688 -0.0985 -0.4331
 2193TIP3    H127994   1.108   1.112  16.294  0.3641  0.2326  1.0216
 2193TIP3    H227995   1.173   1.248  16.279  1.4231 -0.3307  0.3473
 2194TIP3   OH227996   5.326   3.120   1.984 -0.3178 -0.2143  0.3453
 2194TIP3    H127997   5.341   3.212   1.964 -0.3734 -0.3129 -0.1514
 2194TIP3    H227998   5.344   3.074   1.902 -1.9775 -0.4797  0.0992
 2195TIP3   OH227999   1.317   3.543   2.632 -0.2407  0.6632 -0.0446
 2195TIP3    H128000   1.325   3.579   2.543  0.0807  0.0696 -0.2643
 2195TIP3    H228001   1.304   3.449   2.618 -0.6209  0.6264  0.5283
 2196TIP3   OH228002   2.390   1.582   1.234 -0.0263  0.0760  0.2905
 2196TIP3    H128003   2.347   1.587   1.319  0.5826  0.1629  0.6031
 2196TIP3    H228004   2.327   1.620   1.173  0.2664  1.7776  0.9914
 2197TIP3   OH228005   3.309   4.919   5.496  0.2699 -0.5957  0.3573
 2197TIP3    H128006   3.305   4.968   5.578 -0.0719  0.8007 -0.4697
 2197TIP3    H228007   3.234   4.859   5.499 -0.6042  0.4848  0.4337
 2198TIP3   OH228008   3.697   0.678   4.595 -0.0314 -0.0945 -0.0012
 2198TIP3    H128009   3.626   0.630   4.637  0.1286  0.6053  1.1180
 2198TIP3    H228010   3.670   0.687   4.503 -1.0940 -0.3702  0.2780
 2199TIP3   OH228011   5.928   6.288   5.096 -0.3613  0.3284  0.0859
 2199TIP3    H128012   5.989   6.359   5.075  1.1405 -0.4493  1.7016
 2199TIP3    H228013   5.871   6.284   5.019  0.7410  1.9708 -0.8985
 2200TIP3   OH228014   3.834   5.903   2.723  0.1415 -0.1949 -0.3859
 2200TIP3    H128015   3.869   5.883   2.809 -1.2783  0.4240  0.3641
 2200TIP3    H228016   3.869   5.834   2.666 -0.1851 -1.5540  0.9941
 2201TIP3   OH228017   3.276   6.431  12.648  0.1584 -0.2328 -0.6494
 2201TIP3    H128018   3.224   6.511  12.652 -0.7959 -0.8690  0.2557
 2201TIP3    H228019   3.214   6.362  12.628  0.1879 -1.3106  2.3696
 2202TIP3   OH228020   4.169   3.402  13.963 -0.1679 -0.4919 -0.1748
 2202TIP3    H128021   4.137   3.357  13.885  0.1520 -0.0737 -0.5538
 2202TIP3    H228022   4.153   3.495  13.945  0.5695 -0.3349 -0.0574
 2203TIP3   OH228023   4.577   1.662  13.328 -0.0944  0.0188  0.4772
 2203TIP3    H128024   4.548   1.750  13.352  0.1354  0.0167  0.7674
 2203TIP3    H228025   4.569   1.611  13.409  0.2623 -0.0989  0.4404
 2204TIP3   OH228026   0.775   6.436   2.952  0.8559 -0.5139  0.3244
 2204TIP3    H128027   0.687   6.422   2.919  0.7035  2.5303 -0.8509
 2204TIP3    H228028   0.824   6.470   2.877  2.2582  0.5075  1.6394
 2205TIP3   OH228029   4.604   3.178   4.232 -0.3240  0.7032 -0.2047
 2205TIP3    H128030   4.578   3.137   4.149  0.3957 -0.0483 -0.0712
 2205TIP3    H228031   4.639   3.106   4.284  2.1900  1.6577 -0.4486
 2206TIP3   OH228032   4.474   1.718   1.483  0.0496 -0.2519 -0.0657
 2206TIP3    H128033   4.453   1.811   1.471  0.6825  0.2106  2.0570
 2206TIP3    H228034   4.405   1.686   1.541  0.0781 -1.0295 -0.4487
 2207TIP3   OH228035   3.246   2.320   6.031  0.3195  0.5784  0.7264
 2207TIP3    H128036   3.333   2.359   6.028  1.5409 -1.9626  0.3926
 2207TIP3    H228037   3.219   2.315   5.939  1.7973 -2.5167  0.3348
 2208TIP3   OH228038   0.872   4.407  16.287 -0.2448  0.5122 -0.0429
 2208TIP3    H128039   0.863   4.502  16.282 -0.7902  0.4368 -0.8161
 2208TIP3    H228040   0.951   4.387  16.236 -0.4062  0.5238 -0.3051
 2209TIP3   OH228041   3.219   3.393   6.402  0.0140  0.4581  0.0932
 2209TIP3    H128042   3.311   3.367   6.400  0.0658  0.6607 -1.4885
 2209TIP3    H228043   3.176   3.325   6.455  1.0087  0.1927  0.5880
 2210TIP3   OH228044   3.514   6.636  12.659  0.0805 -0.4239 -0.6018
 2210TIP3    H128045   3.603   6.617  12.688  0.0419  0.3694  0.0577
 2210TIP3    H228046   3.480   6.552  12.629  1.1422 -0.6847 -1.1305
 2211TIP3   OH228047   5.638   4.108  15.327 -0.2852  0.6576 -0.2664
 2211TIP3    H128048   5.724   4.068  15.314  0.3419  1.9322 -0.1973
 2211TIP3    H228049   5.595   4.101  15.241  0.0962  0.4852 -0.4458
 2212TIP3   OH228050   0.634   2.244   4.684  0.2505 -0.0273  0.0284
 2212TIP3    H128051   0.623   2.212   4.773  0.6133 -0.6565 -0.1504
 2212TIP3    H228052   0.544   2.252   4.650  0.0808  0.7193  0.6130
 2213TIP3   OH228053   4.297   1.467   0.343 -0.5180 -0.5716  0.5398
 2213TIP3    H128054   4.265   1.432   0.260  2.3471  2.1797 -1.9777
 2213TIP3    H228055   4.219   1.501   0.387 -2.0581 -1.6577 -1.2087
 2214TIP3   OH228056   1.854   5.099  15.398 -0.0826 -0.1330  0.4928
 2214TIP3    H128057   1.868   5.128  15.308 -0.1665 -1.2091  0.1275
 2214TIP3    H228058   1.827   5.007  15.391 -0.5173 -0.1143  1.5860
 2215TIP3   OH228059   0.857   4.506   1.857 -0.3292 -0.1597  0.8099
 2215TIP3    H128060   0.769   4.525   1.825 -0.0516 -0.8763 -0.4491
 2215TIP3    H228061   0.844   4.443   1.927 -0.8621  0.2636  1.0964
 2216TIP3   OH228062   0.565   3.991   4.718  0.0203 -0.6414 -0.1932
 2216TIP3    H128063   0.632   4.047   4.679  0.6871 -0.3689  1.2788
 2216TIP3    H228064   0.496   4.052   4.745  0.7430 -0.5146  1.4054
 2217TIP3   OH228065   3.238   6.404   4.401 -0.1882  0.6318  0.2820
 2217TIP3    H128066   3.303   6.473   4.415  0.1799  0.4980 -0.6647
 2217TIP3    H228067   3.279   6.325   4.437 -0.7575  0.9615  1.6878
 2218TIP3   OH228068   0.484   3.622   2.702 -0.4407  0.0723 -0.5284
 2218TIP3    H128069   0.461   3.529   2.695 -2.9538  0.4910  1.1634
 2218TIP3    H228070   0.411   3.668   2.661  0.3598  1.3708 -0.5588
 2219TIP3   OH228071   0.788   2.992   3.600 -0.0904 -0.5195 -0.1493
 2219TIP3    H128072   0.837   2.957   3.526 -0.6437 -1.8418  0.0923
 2219TIP3    H228073   0.852   2.997   3.672  0.4264  0.6919 -0.6521
 2220TIP3   OH228074   3.584   3.156  12.894  0.2137  0.3458 -0.3263
 2220TIP3    H128075   3.671   3.115  12.895  0.4175  0.7768 -0.1543
 2220TIP3    H228076   3.556   3.153  12.986 -1.1456 -2.2758 -0.7404
 2221TIP3   OH228077   2.827   3.747   2.173  0.0753  0.7542 -0.1741
 2221TIP3    H128078   2.920   3.727   2.181  0.3132  1.2235 -1.5763
 2221TIP3    H228079   2.814   3.769   2.081 -1.2994  1.3401  0.1246
 2222TIP3   OH228080   4.223   3.516  13.076 -0.0268 -0.0068  0.4315
 2222TIP3    H128081   4.252   3.427  13.057 -0.3210 -0.7229  2.9614
 2222TIP3    H228082   4.278   3.544  13.148  0.2907  2.0475 -0.5437
 2223TIP3   OH228083   2.691   1.994  13.156  0.2896  0.0281 -0.2566
 2223TIP3    H128084   2.622   2.057  13.135 -0.6907 -0.5618  1.0801
 2223TIP3    H228085   2.722   1.962  13.071 -0.7003  0.7038 -0.8844
 2224TIP3   OH228086   1.170   3.634   5.101  0.4312  0.3184  0.0123
 2224TIP3    H128087   1.118   3.623   5.022 -0.6551  0.2129  0.7280
 2224TIP3    H228088   1.184   3.545   5.133  1.7401  0.2823 -0.5877
 2225TIP3   OH228089   1.166   6.617   0.006  0.3390  0.7476 -1.0978
 2225TIP3    H128090   1.165   6.523  -0.012  0.6394  0.8470 -1.6591
 2225TIP3    H228091   1.074   6.638   0.026  0.1165  0.4916 -1.8178
 2226TIP3   OH228092   6.481   1.727  17.178 -0.0417  0.0051  0.7921
 2226TIP3    H128093   6.479   1.808  17.229 -0.7717  0.2383  0.4091
 2226TIP3    H228094   6.413   1.739  17.112  0.4580 -0.5513  0.1583
 2227TIP3   OH228095   3.728   2.409  13.046  0.2074 -0.1993 -0.0573
 2227TIP3    H128096   3.687   2.381  12.964 -0.0699  0.7555 -0.2523
 2227TIP3    H228097   3.779   2.486  13.023 -1.0243  0.9539  0.9180
 2228TIP3   OH228098   6.625   4.281   3.011 -0.0341  0.3951 -0.1558
 2228TIP3    H128099   6.562   4.259   3.079  0.8146  0.5007  0.6965
 2228TIP3    H228100   6.572   4.308   2.936 -0.9960  2.1246  1.0834
 2229TIP3   OH228101   0.881   5.332   5.477 -0.0284  0.1622 -0.0282
 2229TIP3    H128102   0.837   5.390   5.414 -0.9766 -1.3883 -0.8370
 2229TIP3    H228103   0.810   5.278   5.512  0.9459 -1.0016  0.1779
 2230TIP3   OH228104   2.004   5.718  13.612 -0.6124 -1.2212 -0.0291
 2230TIP3    H128105   1.917   5.698  13.646 -1.0397 -0.0826 -0.4056
 2230TIP3    H228106   2.057   5.737  13.689 -1.3436  0.4608  0.1146
 2231TIP3   OH228107   1.288   0.189   0.992 -0.0705  0.1099 -0.5824
 2231TIP3    H128108   1.355   0.220   0.930  2.5761  0.5127  2.2411
 2231TIP3    H228109   1.250   0.269   1.028  1.0334 -0.0048  0.9043
 2232TIP3   OH228110   1.451   4.225  11.280 -0.1076 -0.8444 -0.3182
 2232TIP3    H128111   1.536   4.183  11.264 -0.6460 -3.1694  2.2096
 2232TIP3    H228112   1.468   4.286  11.353 -0.7646 -2.2539  1.0783
 2233TIP3   OH228113   1.590   0.792   5.555 -0.1755 -0.2425 -0.2146
 2233TIP3    H128114   1.581   0.872   5.606 -0.9091  0.6191 -1.6356
 2233TIP3    H228115   1.508   0.745   5.569  0.0044 -0.4578  0.1296
 2234TIP3   OH228116   0.255   5.723  16.389 -0.1963  0.2687 -0.0983
 2234TIP3    H128117   0.217   5.779  16.457 -0.0484  0.4721 -0.1812
 2234TIP3    H228118   0.350   5.732  16.402 -0.1640  0.4880 -0.4762
 2235TIP3   OH228119   6.588   0.837  14.625  0.3378  0.7368 -0.0034
 2235TIP3    H128120   6.559   0.882  14.546  0.7066  0.5940 -0.2248
 2235TIP3    H228121   6.595   0.906  14.690 -3.0144  0.4387  0.8409
 2236TIP3   OH228122   6.719   0.762  17.179 -0.2783 -0.1035  0.0646
 2236TIP3    H128123   6.810   0.733  17.187 -0.0946  0.5621  0.5142
 2236TIP3    H228124   6.700   0.758  17.086 -0.2493 -1.5963  0.0943
 2237TIP3   OH228125   3.457   0.977   0.149 -0.3204 -0.5683 -0.1602
 2237TIP3    H128126   3.541   0.982   0.103 -0.1756 -0.4695  0.1123
 2237TIP3    H228127   3.426   0.888   0.133 -0.4283 -0.4338 -0.7243
 2238TIP3   OH228128   2.747   6.366   5.485 -1.0206 -0.0852  0.4943
 2238TIP3    H128129   2.784   6.387   5.571  0.6837  3.2928 -0.8778
 2238TIP3    H228130   2.709   6.449   5.455 -1.1400 -1.0373 -2.2291
 2239TIP3   OH228131   6.223   2.985  13.776  0.1274  0.2620 -0.7305
 2239TIP3    H128132   6.235   3.057  13.839 -0.9277 -0.4288  0.2958
 2239TIP3    H228133   6.217   2.907  13.831 -1.9616 -0.2329 -1.5851
 2240TIP3   OH228134   5.615   4.843   9.958  0.8535  0.2532 -0.3004
 2240TIP3    H128135   5.645   4.921   9.911  0.7537  0.4401 -0.0538
 2240TIP3    H228136   5.521   4.856   9.969  0.6786 -0.3314 -1.0622
 2241TIP3   OH228137   2.773   1.636  14.385 -0.2406 -0.2065 -0.1794
 2241TIP3    H128138   2.826   1.678  14.452 -1.3443  1.4730 -0.3283
 2241TIP3    H228139   2.831   1.568  14.349  1.7522  1.3831 -0.1731
 2242TIP3   OH228140   4.744   1.595  12.722  0.6013  0.2226 -0.2024
 2242TIP3    H128141   4.700   1.566  12.803  1.3115  0.3921  0.2566
 2242TIP3    H228142   4.810   1.528  12.706  0.3521  0.1051 -0.7428
 2243TIP3   OH228143   4.527   2.657  14.495  1.2393  0.7360  0.4678
 2243TIP3    H128144   4.536   2.660  14.591  0.1144 -0.0829  0.6151
 2243TIP3    H228145   4.465   2.587  14.479  0.5280  1.6236 -0.8114
 2244TIP3   OH228146   0.438   1.285  11.034  0.0668 -0.1673  0.3348
 2244TIP3    H128147   0.503   1.268  11.102  0.5858  2.1638  0.5199
 2244TIP3    H228148   0.487   1.333  10.966 -0.9491 -0.4375 -0.6073
 2245TIP3   OH228149   6.602   0.843   4.431  0.1930 -1.0641 -0.5093
 2245TIP3    H128150   6.628   0.859   4.521 -0.6864 -3.5693  0.2487
 2245TIP3    H228151   6.684   0.825   4.385  0.6947  0.6713 -0.3798
 2246TIP3   OH228152   1.147   0.060  11.772  0.0999  0.1681  0.2391
 2246TIP3    H128153   1.174   0.114  11.698 -0.9159 -0.0145 -0.2821
 2246TIP3    H228154   1.131   0.123  11.843  0.7041  0.3795  0.1872
 2247TIP3   OH228155   0.985   5.554   4.879 -0.0355 -0.7265 -0.1052
 2247TIP3    H128156   1.068   5.599   4.864 -1.1196  1.3752 -0.1190
 2247TIP3    H228157   1.011   5.468   4.912  2.1400 -0.1714 -0.1741
 2248TIP3   OH228158   2.946   4.347   3.527 -0.4993 -0.2454 -0.3409
 2248TIP3    H128159   2.896   4.326   3.605  0.4061 -0.3651  0.2288
 2248TIP3    H228160   2.894   4.413   3.481 -1.4377 -0.7859 -0.0720
 2249TIP3   OH228161   1.745   1.872   4.755  0.3994  0.0691  0.1900
 2249TIP3    H128162   1.744   1.782   4.722  2.4233 -0.7150  1.9857
 2249TIP3    H228163   1.802   1.919   4.694  2.1742 -0.7884  1.0790
 2250TIP3   OH228164   5.330   3.769  16.999 -0.7155 -0.2884  0.1916
 2250TIP3    H128165   5.309   3.856  17.033  1.5058 -0.4284  2.2634
 2250TIP3    H228166   5.387   3.786  16.924 -0.9032  0.0386  0.1196
 2251TIP3   OH228167   5.196   6.564  14.151  0.1159  0.2930 -0.2380
 2251TIP3    H128168   5.171   6.513  14.228 -1.7902  0.9438 -0.3760
 2251TIP3    H228169   5.227   6.500  14.088 -2.8479 -0.8827 -0.6606
 2252TIP3   OH228170   4.763   4.212   6.296  0.0969  0.4763 -0.8213
 2252TIP3    H128171   4.804   4.288   6.338 -2.1726  1.6539 -0.5567
 2252TIP3    H228172   4.713   4.169   6.366 -1.7032  1.0051 -1.7120
 2253TIP3   OH228173   5.604   0.183   3.591  0.0288  0.0291  0.0504
 2253TIP3    H128174   5.635   0.152   3.676 -0.4191  0.1502  0.2596
 2253TIP3    H228175   5.544   0.254   3.611  0.1428  0.2519 -0.3814
 2254TIP3   OH228176   3.764   0.062  11.319  0.6222 -0.3724  0.1182
 2254TIP3    H128177   3.700   0.071  11.249  0.5751 -0.1988  0.1832
 2254TIP3    H228178   3.849   0.072  11.276  0.6315 -1.2460 -0.0734
 2255TIP3   OH228179   2.740   3.528  15.090 -0.1678  0.0465  0.2104
 2255TIP3    H128180   2.779   3.483  15.015 -0.6175  0.3550 -0.2190
 2255TIP3    H228181   2.812   3.578  15.129 -0.3979  1.7696 -1.4302
 2256TIP3   OH228182   1.126   5.733   2.492  0.1154 -0.2668 -0.4330
 2256TIP3    H128183   1.096   5.749   2.581 -0.9066 -0.9227 -0.6514
 2256TIP3    H228184   1.185   5.659   2.499  0.5065  0.0597 -0.2246
 2257TIP3   OH228185   5.206   1.329  11.980  0.2030 -0.2975 -0.1530
 2257TIP3    H128186   5.214   1.246  12.027  1.7894 -0.8605 -1.3661
 2257TIP3    H228187   5.113   1.333  11.955  0.2426 -2.0360 -0.6687
 2258TIP3   OH228188   2.951   4.254  13.909  0.3810  0.4857  0.0088
 2258TIP3    H128189   3.028   4.307  13.930  0.5186  0.3728 -0.2087
 2258TIP3    H228190   2.978   4.200  13.834  0.6581 -0.8188  1.0174
 2259TIP3   OH228191   4.615   5.041  11.768  0.9272 -0.5266 -0.4701
 2259TIP3    H128192   4.685   5.086  11.722  0.1477  3.7511  1.9685
 2259TIP3    H228193   4.538   5.096  11.754 -0.3622 -1.5175  2.0830
 2260TIP3   OH228194   0.036   0.344  16.701  0.3917  0.2882 -0.0573
 2260TIP3    H128195  -0.060   0.339  16.703  0.3314  1.2633  1.9125
 2260TIP3    H228196   0.058   0.350  16.608 -1.5481  1.3288 -0.4990
 2261TIP3   OH228197   1.736   0.986   3.652  0.2895 -0.3728 -0.4274
 2261TIP3    H128198   1.719   0.931   3.728  2.6916 -0.2672  0.2630
 2261TIP3    H228199   1.695   1.070   3.673  2.5310  0.2930  1.7137
 2262TIP3   OH228200   0.401   6.714   4.593  0.0009 -0.0410 -0.4992
 2262TIP3    H128201   0.492   6.718   4.564 -0.3182 -0.0293 -1.5560
 2262TIP3    H228202   0.405   6.686   4.684  1.1173  1.0097 -0.2055
 2263TIP3   OH228203   4.156   5.871   3.403  0.1336 -0.1406 -0.7364
 2263TIP3    H128204   4.150   5.885   3.308  0.4271 -0.4872 -0.8103
 2263TIP3    H228205   4.110   5.945   3.441 -1.3707 -0.8003 -1.1831
 2264TIP3   OH228206   2.352   0.238  12.409  0.4922  0.7543  0.5423
 2264TIP3    H128207   2.353   0.191  12.493 -0.9187  0.8897  0.6672
 2264TIP3    H228208   2.383   0.174  12.346  2.9257  1.0751  1.3304
 2265TIP3   OH228209   3.839   2.140   3.290  0.0458  0.2391 -0.5252
 2265TIP3    H128210   3.888   2.200   3.346  1.5282 -0.6018 -0.8734
 2265TIP3    H228211   3.886   2.142   3.206 -2.0578  1.3816 -1.7587
 2266TIP3   OH228212   0.338   6.238  15.738  0.0914 -0.4383 -0.0890
 2266TIP3    H128213   0.259   6.185  15.748  0.5917 -1.1457  0.2153
 2266TIP3    H228214   0.358   6.233  15.645 -0.7391  0.5182 -0.3331
 2267TIP3   OH228215   3.413   3.320  13.838 -0.0150 -0.5443  0.2257
 2267TIP3    H128216   3.354   3.336  13.764  0.7512  0.2903 -0.2192
 2267TIP3    H228217   3.464   3.400  13.845  2.6526 -2.0325 -0.8390
 2268TIP3   OH228218   6.168   2.387  15.393 -0.1891 -0.0020  0.4115
 2268TIP3    H128219   6.076   2.397  15.368 -0.1831 -0.5751  0.1277
 2268TIP3    H228220   6.217   2.419  15.317 -0.1112  2.2100  1.3273
 2269TIP3   OH228221   2.791   3.556  14.759 -0.8323 -0.4210  0.1139
 2269TIP3    H128222   2.817   3.523  14.673 -1.1133  1.1924 -0.6186
 2269TIP3    H228223   2.696   3.564  14.753 -0.7502  0.6684  0.2144
 2270TIP3   OH228224   3.065   2.808  12.604  0.5648 -0.3743 -0.7271
 2270TIP3    H128225   3.125   2.824  12.676  0.6174  0.5768 -0.9728
 2270TIP3    H228226   3.091   2.723  12.569  0.9531 -0.5391 -0.0413
 2271TIP3   OH228227   5.155   0.936  16.251  0.5977 -0.1629 -0.4199
 2271TIP3    H128228   5.183   0.973  16.168  0.0277  0.2870 -0.4197
 2271TIP3    H228229   5.106   1.007  16.294 -0.4017 -0.8600 -0.3591
 2272TIP3   OH228230   1.195   0.079   0.007  0.3426  0.3918 -0.1037
 2272TIP3    H128231   1.147   0.143  -0.045 -0.3026  0.7019  0.8537
 2272TIP3    H228232   1.164  -0.006  -0.025  0.3412  0.5721 -0.5822
 2273TIP3   OH228233   2.127   0.134   0.568  0.4206 -0.8476  0.0124
 2273TIP3    H128234   2.084   0.070   0.624  1.4883 -0.8812  0.8461
 2273TIP3    H228235   2.109   0.218   0.610 -1.0190 -0.5775 -1.1051
 2274TIP3   OH228236   4.470   5.329   5.764  0.4029 -0.4571 -0.1116
 2274TIP3    H128237   4.543   5.278   5.800 -0.2143  0.0853  2.0268
 2274TIP3    H228238   4.476   5.414   5.808 -0.3763  0.2913 -1.3787
 2275TIP3   OH228239   3.198   3.669   0.221 -0.3557 -0.1883 -0.1010
 2275TIP3    H128240   3.213   3.653   0.314 -0.7243  0.0190 -0.0021
 2275TIP3    H228241   3.280   3.704   0.188  0.0608 -1.0735 -0.0472
 2276TIP3   OH228242   3.430   2.663   0.608 -0.2363 -0.7496  0.4296
 2276TIP3    H128243   3.510   2.658   0.660  0.7309 -0.8593 -0.9864
 2276TIP3    H228244   3.428   2.581   0.559  0.2060  0.2878 -1.4544
 2277TIP3   OH228245   6.066   0.019   1.464  0.3017 -0.3810  0.0370
 2277TIP3    H128246   6.081   0.075   1.541 -1.3057 -0.9007  0.7854
 2277TIP3    H228247   6.074  -0.070   1.497  0.2668 -0.6070 -0.5565
 2278TIP3   OH228248   3.208   4.365  14.011 -0.3186 -0.2208 -0.0733
 2278TIP3    H128249   3.293   4.400  14.039 -0.6377  2.5155 -2.1555
 2278TIP3    H228250   3.226   4.274  13.989  1.9860  0.1637 -0.0466
 2279TIP3   OH228251   1.352   5.399  17.074  0.0213  0.1055  0.5809
 2279TIP3    H128252   1.390   5.434  16.994  0.1641  2.0110  1.4258
 2279TIP3    H228253   1.420   5.412  17.140 -1.3960  2.0835  1.7790
 2280TIP3   OH228254   1.214   4.579   5.297  0.1731  0.5593 -0.5483
 2280TIP3    H128255   1.171   4.640   5.357  2.4873 -0.1443  2.0657
 2280TIP3    H228256   1.284   4.630   5.256  0.8194  0.2007  0.0846
 2281TIP3   OH228257   5.482   6.213   4.306 -0.0273  0.6285  0.3628
 2281TIP3    H128258   5.493   6.127   4.345 -0.4754  0.1752 -0.4788
 2281TIP3    H228259   5.528   6.208   4.223  2.1207  2.0264  1.3857
 2282TIP3   OH228260   0.932   1.377   5.057 -0.0574 -0.4769  0.0114
 2282TIP3    H128261   0.967   1.312   5.119 -0.3337  0.9052  1.6905
 2282TIP3    H228262   0.957   1.462   5.094  0.6361  0.4239 -2.3205
 2283TIP3   OH228263   0.961   4.690  12.957 -0.0327 -0.2510 -0.1189
 2283TIP3    H128264   0.943   4.649  12.872  3.2549 -0.1047 -1.0014
 2283TIP3    H228265   0.988   4.617  13.013  0.4695 -0.0019 -0.0339
 2284TIP3   OH228266   2.892   4.969   4.448 -0.4635 -0.0715 -0.3254
 2284TIP3    H128267   2.965   4.923   4.488 -0.2215 -0.1707 -0.8685
 2284TIP3    H228268   2.918   5.062   4.449 -0.7761  0.0114  0.4026
 2285TIP3   OH228269   1.135   1.215  15.859  0.0841 -0.4274 -0.1047
 2285TIP3    H128270   1.114   1.244  15.770  2.3529 -1.1223 -0.9532
 2285TIP3    H228271   1.133   1.294  15.912 -0.3959  0.1463 -0.9592
 2286TIP3   OH228272   5.417   5.300  11.097 -0.5909  0.0479  0.0789
 2286TIP3    H128273   5.485   5.348  11.144  0.3611 -0.3214 -0.8809
 2286TIP3    H228274   5.384   5.237  11.161 -0.0253  0.2218  0.5547
 2287TIP3   OH228275   6.800   0.784   1.745  0.3961  0.2866 -0.0233
 2287TIP3    H128276   6.767   0.873   1.759  1.0565  0.8394 -1.6930
 2287TIP3    H228277   6.883   0.797   1.699  1.3471 -1.1630  1.1974
 2288TIP3   OH228278   6.116   0.858   0.883  0.0106  0.1006 -0.5145
 2288TIP3    H128279   6.181   0.921   0.915 -0.2783 -0.4313  1.2040
 2288TIP3    H228280   6.165   0.776   0.875  0.2393  0.3471 -2.1738
 2289TIP3   OH228281   1.975   4.223   0.175  0.4165  0.3757  0.2551
 2289TIP3    H128282   1.924   4.301   0.155 -0.8563 -0.6440 -0.6546
 2289TIP3    H228283   2.059   4.256   0.208  0.4360  2.1170 -1.4160
 2290TIP3   OH228284   4.015   0.399  14.590  0.1682 -0.2220 -0.6816
 2290TIP3    H128285   4.032   0.375  14.682  1.0383 -1.9238 -1.2552
 2290TIP3    H228286   4.016   0.495  14.591 -0.1733 -0.1938  1.1393
 2291TIP3   OH228287   6.339   1.783   4.440  0.0570 -0.0321 -0.2986
 2291TIP3    H128288   6.434   1.781   4.444  0.0613  0.8226  0.3587
 2291TIP3    H228289   6.311   1.763   4.529 -0.4589 -2.5497 -0.9476
 2292TIP3   OH228290   0.472   5.088  11.438  0.0718 -0.0302 -0.0639
 2292TIP3    H128291   0.457   5.053  11.526  0.6771  0.0028  0.0546
 2292TIP3    H228292   0.562   5.065  11.418 -0.5607 -1.4894 -1.3522
 2293TIP3   OH228293   2.460   1.828  10.996  0.6367 -0.2605  0.2236
 2293TIP3    H128294   2.524   1.758  11.006 -0.4390 -1.1834  0.9802
 2293TIP3    H228295   2.406   1.822  11.075 -1.6754 -0.9037 -1.3102
 2294TIP3   OH228296   2.246   5.299  15.836 -0.0114 -0.2507 -0.1870
 2294TIP3    H128297   2.313   5.269  15.775  0.0896  0.3998 -0.4061
 2294TIP3    H228298   2.259   5.246  15.915  3.0460  2.1254  1.1187
 2295TIP3   OH228299   2.650   2.535   3.279 -0.3378  0.1633 -0.0179
 2295TIP3    H128300   2.577   2.542   3.218 -0.4410  0.3915  0.1293
 2295TIP3    H228301   2.711   2.474   3.237 -0.4697  0.2132 -0.2831
 2296TIP3   OH228302   5.403   0.078   5.563  0.4560 -0.0136 -0.2140
 2296TIP3    H128303   5.471   0.139   5.536  0.3903  0.1113 -0.0995
 2296TIP3    H228304   5.371   0.039   5.482  1.6851 -1.1819 -0.1847
 2297TIP3   OH228305   1.944   0.926  12.980 -0.1797 -0.8784 -0.0486
 2297TIP3    H128306   1.908   1.000  13.030  0.7106 -1.2732  1.2501
 2297TIP3    H228307   1.872   0.864  12.974 -1.0289  0.1858 -1.4066
 2298TIP3   OH228308   2.122   1.532   5.380 -0.0736  0.2692  0.0307
 2298TIP3    H128309   2.208   1.567   5.358  0.2049 -0.4869 -0.1246
 2298TIP3    H228310   2.063   1.607   5.373  0.7584  1.0950  1.4171
 2299TIP3   OH228311   4.631   2.258  13.371 -0.1228  0.3694  0.1116
 2299TIP3    H128312   4.630   2.343  13.415 -0.1606  0.7032 -0.5139
 2299TIP3    H228313   4.540   2.241  13.347  0.0031  0.5752 -0.5403
 2300TIP3   OH228314   6.576   6.187   4.985  0.2893  0.1359  0.1040
 2300TIP3    H128315   6.647   6.242   4.954  0.0826  0.4883  0.2523
 2300TIP3    H228316   6.526   6.166   4.907  1.7322 -1.8643 -0.3633
 2301TIP3   OH228317   6.156   2.799  15.734 -0.2893  0.1419  0.0311
 2301TIP3    H128318   6.142   2.715  15.690  2.6311  0.0348 -0.9117
 2301TIP3    H228319   6.082   2.854  15.705 -1.1835 -1.4835 -0.9119
 2302TIP3   OH228320   0.363   5.625  12.471 -0.0120 -0.7218 -0.5343
 2302TIP3    H128321   0.421   5.699  12.485  1.1636 -1.7162  0.0200
 2302TIP3    H228322   0.386   5.562  12.539 -1.6135 -1.2453 -0.4170
 2303TIP3   OH228323   2.078   4.972  12.003 -0.3860 -0.0642  0.0649
 2303TIP3    H128324   2.068   4.932  11.917  2.1796 -1.1555  0.1666
 2303TIP3    H228325   2.173   4.982  12.014 -0.7301  2.5112  1.7070
 2304TIP3   OH228326   3.306   2.702  13.841  0.2532  0.7183  0.0515
 2304TIP3    H128327   3.298   2.723  13.748 -0.3046  0.1327 -0.0409
 2304TIP3    H228328   3.254   2.622  13.852  0.6283  0.5661  0.7903
 2305TIP3   OH228329   0.969   5.387  13.892 -0.0869  0.2690 -0.1007
 2305TIP3    H128330   0.983   5.479  13.871 -1.0190  0.2900 -0.6527
 2305TIP3    H228331   0.885   5.385  13.937  0.9708 -0.0260  2.0376
 2306TIP3   OH228332   4.147   3.425  12.747 -0.6813 -0.5886  0.2117
 2306TIP3    H128333   4.102   3.494  12.796 -1.2207 -1.5690  1.1515
 2306TIP3    H228334   4.189   3.470  12.674 -2.2285  0.5199 -0.0268
 2307TIP3   OH228335   5.913   1.543  11.919  0.3520 -0.1465 -0.3980
 2307TIP3    H128336   5.890   1.545  11.826  0.4027  1.4789 -0.3957
 2307TIP3    H228337   5.836   1.579  11.963  0.9347  0.5865  0.0418
 2308TIP3   OH228338   5.618   0.398  11.575 -0.1513  0.0752  0.2075
 2308TIP3    H128339   5.711   0.380  11.562 -0.5048 -0.9914 -1.0929
 2308TIP3    H228340   5.585   0.324  11.625 -0.7592 -0.8523 -1.4759
 2309TIP3   OH228341   5.134   1.003  14.817  0.5145  0.0755 -0.7439
 2309TIP3    H128342   5.162   1.070  14.880 -1.2623 -0.1109  0.3273
 2309TIP3    H228343   5.158   1.039  14.732  0.0910  1.8680 -0.1620
 2310TIP3   OH228344   1.942   4.444   2.704  0.0067 -0.2176 -1.0103
 2310TIP3    H128345   2.034   4.444   2.677  0.2821  0.6218 -0.1136
 2310TIP3    H228346   1.935   4.517   2.766 -0.6237 -2.0306  1.1595
 2311TIP3   OH228347   2.267   1.160   4.498 -0.0360  0.1578  0.2498
 2311TIP3    H128348   2.276   1.240   4.445 -0.5248 -1.2738 -2.1344
 2311TIP3    H228349   2.336   1.102   4.466  0.3001 -0.4227  1.9424
 2312TIP3   OH228350   5.992   0.605   3.523  0.1800  1.0080  0.2550
 2312TIP3    H128351   5.937   0.674   3.484 -0.5683  0.4353  0.2721
 2312TIP3    H228352   5.988   0.533   3.461  0.9332  0.9586  0.2574
 2313TIP3   OH228353   4.782   5.480   0.094  0.1031 -0.4630  0.1236
 2313TIP3    H128354   4.782   5.448   0.003 -0.6242 -0.3255  0.0651
 2313TIP3    H228355   4.719   5.423   0.139 -1.3499  0.9695 -0.0202
 2314TIP3   OH228356   4.830   6.204  10.787 -0.3950  0.4337  0.1648
 2314TIP3    H128357   4.804   6.244  10.704 -1.6367  1.3093  0.9450
 2314TIP3    H228358   4.789   6.117  10.785  0.4299  0.0462 -0.5599
 2315TIP3   OH228359   1.333   0.736   4.655 -0.2700 -0.6222 -0.6183
 2315TIP3    H128360   1.388   0.722   4.733 -1.2115 -1.2026 -0.0440
 2315TIP3    H228361   1.393   0.772   4.590  0.1978  1.5250  0.9089
 2316TIP3   OH228362   2.523   4.924   0.159  0.1576  0.2936  0.4486
 2316TIP3    H128363   2.576   4.860   0.111 -0.9239 -0.0730 -0.2978
 2316TIP3    H228364   2.453   4.871   0.199 -2.4065  1.2126 -2.4345
 2317TIP3   OH228365   1.778   2.160  11.772  0.7500 -0.0260 -0.0915
 2317TIP3    H128366   1.710   2.159  11.839 -0.0688 -0.2028 -0.9099
 2317TIP3    H228367   1.836   2.087  11.796  0.6078  0.0631  0.5538
 2318TIP3   OH228368   2.769   3.935   2.979 -0.0434  0.3164 -0.6539
 2318TIP3    H128369   2.791   3.954   3.070  1.4314  1.4913 -1.2190
 2318TIP3    H228370   2.700   3.869   2.984 -0.6161  0.9948  1.3226
 2319TIP3   OH228371   2.520   1.554   2.624 -0.0472 -0.4752  0.4176
 2319TIP3    H128372   2.570   1.635   2.612 -1.3472  0.3476  0.3120
 2319TIP3    H228373   2.586   1.487   2.642  1.3697 -0.1327 -2.9214
 2320TIP3   OH228374   2.545   1.241  13.258 -0.1797  0.4213  0.1108
 2320TIP3    H128375   2.465   1.269  13.215  0.3212  0.7645 -0.6091
 2320TIP3    H228376   2.556   1.303  13.331 -0.6014  0.3291  0.2536
 2321TIP3   OH228377   0.118   5.823   3.777  0.7932  0.1364 -0.0238
 2321TIP3    H128378   0.030   5.802   3.745 -0.5527  0.0590  3.3077
 2321TIP3    H228379   0.142   5.747   3.830  2.0776  0.9715  0.6181
 2322TIP3   OH228380   2.604   6.704  16.910  0.3429 -0.2673  0.3780
 2322TIP3    H128381   2.531   6.665  16.958 -0.1809  2.8335  2.3895
 2322TIP3    H228382   2.679   6.697  16.970  0.5912  0.4331  0.1655
 2323TIP3   OH228383   4.384   2.537  13.980 -0.0845  0.0196 -0.7383
 2323TIP3    H128384   4.439   2.507  14.053 -1.0246  0.8102  0.3274
 2323TIP3    H228385   4.412   2.484  13.906  1.5572 -0.1548 -0.0331
 2324TIP3   OH228386   6.270   1.416   3.701 -0.6263  0.0356 -0.3952
 2324TIP3    H128387   6.348   1.362   3.694 -0.0977  0.2355  2.6256
 2324TIP3    H228388   6.210   1.380   3.636  0.8515 -2.0864 -0.6840
 2325TIP3   OH228389   0.828   0.508  17.065  0.1865  0.1522 -0.1722
 2325TIP3    H128390   0.757   0.444  17.066  1.7341 -1.7263  2.5963
 2325TIP3    H228391   0.784   0.593  17.066 -1.9326 -0.7339 -3.0794
 2326TIP3   OH228392   0.254   0.169  11.052  0.2098 -0.5509  0.4030
 2326TIP3    H128393   0.271   0.177  11.146 -1.1074  1.3350  0.5225
 2326TIP3    H228394   0.172   0.120  11.047 -0.5044  0.6132  0.3314
 2327TIP3   OH228395   4.409   5.711  12.028 -0.0779  0.4950  0.6063
 2327TIP3    H128396   4.358   5.646  11.980 -1.5616  1.7624  0.3759
 2327TIP3    H228397   4.412   5.677  12.118  0.0222 -0.3530  0.2924
 2328TIP3   OH228398   1.046   4.333  12.192  0.0827 -0.1826 -0.0840
 2328TIP3    H128399   1.093   4.296  12.266  0.6047  0.7827  0.0682
 2328TIP3    H228400   1.111   4.383  12.143 -0.4200 -0.1859 -0.7817
 2329TIP3   OH228401   6.581   1.084   0.436  0.3309 -0.5666 -0.6362
 2329TIP3    H128402   6.562   1.050   0.349 -0.0031  0.7985 -1.1122
 2329TIP3    H228403   6.498   1.079   0.482  0.0355  0.5272 -1.0340
 2330TIP3   OH228404   3.837   4.930   4.269 -0.2223 -0.1359  0.2421
 2330TIP3    H128405   3.747   4.918   4.301 -0.4598  1.3974  0.2029
 2330TIP3    H228406   3.883   4.852   4.299 -1.7538 -1.3866 -0.4635
 2331TIP3   OH228407   5.056   6.155   3.043  0.0101  0.0095 -0.6858
 2331TIP3    H128408   5.092   6.154   3.132  1.4960  1.6225 -1.1933
 2331TIP3    H228409   5.131   6.135   2.987 -0.7165 -0.1506 -1.6269
 2332TIP3   OH228410   3.290   2.674  16.913 -0.3074  0.3026 -0.1576
 2332TIP3    H128411   3.210   2.704  16.868 -0.0599 -1.6933 -2.0827
 2332TIP3    H228412   3.296   2.581  16.892  3.3302  0.6568 -1.4079
 2333TIP3   OH228413   2.728   3.637   3.214 -0.3823  0.2294  0.1323
 2333TIP3    H128414   2.644   3.609   3.178  0.5477 -1.8355 -0.5877
 2333TIP3    H228415   2.721   3.616   3.307 -0.8355  0.5840  0.1873
 2334TIP3   OH228416   0.069   1.842   2.355 -0.1284  0.0310 -0.0965
 2334TIP3    H128417   0.141   1.822   2.295 -0.4895 -0.4532 -0.3685
 2334TIP3    H228418   0.032   1.757   2.377  0.5290  0.1162  1.4780
 2335TIP3   OH228419   4.235   0.059   2.254 -0.3241 -0.1897 -0.2864
 2335TIP3    H128420   4.144   0.057   2.284 -0.8108  0.2923 -1.6645
 2335TIP3    H228421   4.257  -0.033   2.238 -0.3434 -0.3694  0.6306
 2336TIP3   OH228422   2.562   0.539  13.691 -0.0163 -0.0643  0.0760
 2336TIP3    H128423   2.467   0.526  13.685  0.1126 -1.7729  1.0112
 2336TIP3    H228424   2.597   0.451  13.707  1.7599  0.4950 -0.5192
 2337TIP3   OH228425   3.630   6.577   0.813 -0.0708  0.2704 -0.0620
 2337TIP3    H128426   3.622   6.514   0.742  0.6370 -0.6349  0.6467
 2337TIP3    H228427   3.640   6.662   0.769 -2.6402  0.1633 -1.0291
 2338TIP3   OH228428   6.332   2.613  13.131 -0.2072 -0.1147  0.2815
 2338TIP3    H128429   6.257   2.622  13.072 -1.0953  0.6837  1.4942
 2338TIP3    H228430   6.311   2.669  13.206  1.6140  0.1397  0.6504
 2339TIP3   OH228431   5.089   3.373   0.285  0.3008 -0.5585  0.2219
 2339TIP3    H128432   5.005   3.376   0.331  0.4496  0.0790  0.4614
 2339TIP3    H228433   5.154   3.354   0.354  0.7156  1.8674  0.5815
 2340TIP3   OH228434   4.066   1.639   2.462 -0.1711 -0.0709  0.2102
 2340TIP3    H128435   4.158   1.642   2.489 -0.2892  0.4729  0.5570
 2340TIP3    H228436   4.063   1.693   2.383 -0.1889 -0.0936  0.1955
 2341TIP3   OH228437   5.725   5.080   3.279 -0.0570  0.0841  0.3131
 2341TIP3    H128438   5.654   5.131   3.241 -0.3390  1.5029  2.5384
 2341TIP3    H228439   5.682   5.011   3.329  0.1971 -0.0598  0.3373
 2342TIP3   OH228440   1.414   5.086   0.055  0.5863  0.8192  0.4362
 2342TIP3    H128441   1.479   5.143   0.015  0.6104  0.7665  0.4004
 2342TIP3    H228442   1.336   5.140   0.062  0.2524  0.4968 -0.6906
 2343TIP3   OH228443   6.362   0.783  11.954  0.2068  0.1185  0.4853
 2343TIP3    H128444   6.267   0.773  11.946  0.0317  0.0945  2.2010
 2343TIP3    H228445   6.392   0.702  11.994  1.0523 -0.1028 -0.5415
 2344TIP3   OH228446   4.263   4.613  10.639 -0.1834  0.4456  0.1206
 2344TIP3    H128447   4.348   4.651  10.616  0.6700 -0.0594  2.2039
 2344TIP3    H228448   4.284   4.531  10.683 -1.7441  0.3566  0.7714
 2345TIP3   OH228449   2.032   0.126  15.350 -0.6119 -0.4664  0.0558
 2345TIP3    H128450   2.033   0.162  15.261  1.6284  3.0592  1.3062
 2345TIP3    H228451   1.979   0.187  15.400 -1.4197 -2.1142  1.3158
 2346TIP3   OH228452   3.137   3.073   0.465  0.5522  0.0422 -0.1896
 2346TIP3    H128453   3.169   3.036   0.383  1.3492 -2.1786  1.0233
 2346TIP3    H228454   3.099   2.998   0.511  0.9398  1.0301  1.8438
 2347TIP3   OH228455   5.336   0.403   2.056  0.1880  0.3034  0.8300
 2347TIP3    H128456   5.291   0.366   2.132  2.3565  0.2522  2.1820
 2347TIP3    H228457   5.384   0.329   2.018  0.2544  0.6290  0.2710
 2348TIP3   OH228458   4.810   0.132   0.266 -0.0321 -0.2098 -0.2655
 2348TIP3    H128459   4.813   0.191   0.341  2.5713  1.2056 -1.3523
 2348TIP3    H228460   4.853   0.052   0.296 -0.0063 -0.0711  0.0684
 2349TIP3   OH228461   3.489   4.199   2.057  0.2616 -0.1494 -0.2306
 2349TIP3    H128462   3.528   4.286   2.054  0.3659 -0.2037 -2.7341
 2349TIP3    H228463   3.562   4.141   2.077  0.2423  0.2574  1.1662
 2350TIP3   OH228464   2.869   6.040  17.001  0.1423  0.4665  0.4106
 2350TIP3    H128465   2.886   5.963  16.946  0.9213  0.1739  1.0353
 2350TIP3    H228466   2.952   6.086  17.004 -0.4462  1.6201 -0.3595
 2351TIP3   OH228467   4.761   2.653  15.091  0.5361 -0.5118  0.0520
 2351TIP3    H128468   4.684   2.596  15.088  0.0149  0.1974 -0.2594
 2351TIP3    H228469   4.729   2.735  15.129  0.3901  0.8666 -2.7439
 2352TIP3   OH228470   2.539   3.538  16.505 -0.3454 -0.1931 -0.0940
 2352TIP3    H128471   2.459   3.583  16.477 -0.2360  0.2625  0.3239
 2352TIP3    H228472   2.532   3.451  16.465 -0.6859  0.0987 -0.6852
 2353TIP3   OH228473   4.726   1.705   2.895 -0.5433 -1.1603  0.0654
 2353TIP3    H128474   4.775   1.782   2.864  0.9261 -2.6248 -1.4166
 2353TIP3    H228475   4.652   1.698   2.834 -0.1706 -1.4449 -0.3531
 2354TIP3   OH228476   4.619   1.324   0.209  0.4447  0.3101  0.4633
 2354TIP3    H128477   4.611   1.256   0.142  1.6952 -0.8704  1.4572
 2354TIP3    H228478   4.637   1.404   0.160  3.6294 -0.9199 -0.5968
 2355TIP3   OH228479   1.548   1.945   5.767 -0.3863  0.0510 -0.6485
 2355TIP3    H128480   1.480   1.996   5.811 -0.7412 -0.6864 -0.3161
 2355TIP3    H228481   1.608   1.920   5.838 -1.6826 -2.3046 -0.2459
 2356TIP3   OH228482   2.587   6.325   2.220 -0.1399  0.0246 -0.3033
 2356TIP3    H128483   2.524   6.395   2.237  0.9537  0.6874  1.2356
 2356TIP3    H228484   2.546   6.247   2.258 -0.5340  0.2086 -0.3416
 2357TIP3   OH228485   6.180   1.787  15.131  0.3007 -0.0319 -0.0860
 2357TIP3    H128486   6.220   1.873  15.137  0.0206  0.0141  1.6363
 2357TIP3    H228487   6.120   1.783  15.205 -1.6096 -0.7693 -1.5837
 2358TIP3   OH228488   3.422   2.834   2.518 -0.3992  0.3794 -0.0737
 2358TIP3    H128489   3.392   2.755   2.471 -0.1631  0.2145  0.0537
 2358TIP3    H228490   3.504   2.808   2.559 -0.1145  0.8174 -0.3650
 2359TIP3   OH228491   0.325   6.675   3.502 -0.0150 -0.2828  0.0850
 2359TIP3    H128492   0.272   6.596   3.485 -1.1828  0.3755  0.5496
 2359TIP3    H228493   0.265   6.734   3.547  1.5780 -0.0992  2.0933
 2360TIP3   OH228494   3.575   2.491   2.203 -0.2799  0.4029  0.4053
 2360TIP3    H128495   3.549   2.525   2.117 -0.0180  0.4245  0.3350
 2360TIP3    H228496   3.663   2.457   2.190 -1.0883 -1.6844  0.0936
 2361TIP3   OH228497   5.578   2.931  15.964  0.7040  0.1985 -0.5575
 2361TIP3    H128498   5.648   2.976  16.011 -0.1841  1.5580 -0.4891
 2361TIP3    H228499   5.559   2.853  16.017 -0.1913  1.6241  1.2997
 2362TIP3   OH228500   2.778   3.407   4.401  0.1524 -0.0034  0.2445
 2362TIP3    H128501   2.696   3.430   4.445 -0.7276 -0.6552 -1.0108
 2362TIP3    H228502   2.804   3.486   4.354  0.6285  0.4128  1.1585
 2363TIP3   OH228503   3.411   2.619   3.357  0.3610 -0.0243 -0.0810
 2363TIP3    H128504   3.361   2.693   3.324  0.7148 -0.3746 -1.4763
 2363TIP3    H228505   3.357   2.542   3.335 -0.4721 -0.1618  2.2171
 2364TIP3   OH228506   5.989   1.764  11.580  0.0839 -0.2481 -0.8497
 2364TIP3    H128507   6.001   1.842  11.635 -0.8460 -0.9633  0.4011
 2364TIP3    H228508   6.058   1.704  11.608 -0.5067 -0.6866 -0.3139
 2365TIP3   OH228509   4.851   3.281  12.919 -0.3827  0.0458 -0.2449
 2365TIP3    H128510   4.773   3.333  12.939 -0.6454 -0.5339  0.2916
 2365TIP3    H228511   4.885   3.318  12.837 -2.1184 -0.6842 -1.3499
 2366TIP3   OH228512   2.210   3.210   0.397 -0.1692  1.1647 -0.0046
 2366TIP3    H128513   2.240   3.300   0.385  0.6269  0.9526  0.2982
 2366TIP3    H228514   2.120   3.210   0.366 -0.9017  2.5442  1.9534
 2367TIP3   OH228515   3.537   4.938  17.144  1.1662  0.1372  0.1647
 2367TIP3    H128516   3.455   4.910  17.103  0.7195  0.7453  0.6309
 2367TIP3    H228517   3.527   4.915  17.236  1.2181  0.8682  0.3590
 2368TIP3   OH228518   3.310   6.517  16.032 -0.1205  0.0608 -0.6826
 2368TIP3    H128519   3.296   6.538  16.125 -0.3281 -0.8689 -0.4964
 2368TIP3    H228520   3.396   6.554  16.012 -0.2562  0.6444 -0.2422
 2369TIP3   OH228521   6.530   4.413  14.737  0.0311 -0.3987  0.0978
 2369TIP3    H128522   6.452   4.469  14.741  0.7110  0.9535 -2.8094
 2369TIP3    H228523   6.512   4.352  14.665  1.5255 -0.1815 -0.4976
 2370TIP3   OH228524   1.059   2.915  13.918 -0.4127 -0.1711  0.5421
 2370TIP3    H128525   1.017   2.994  13.886 -2.1434 -1.6825 -1.2076
 2370TIP3    H228526   1.153   2.931  13.906 -0.8012  1.0520 -1.2566
 2371TIP3   OH228527   4.910   5.476  10.558 -0.3433  0.1451 -0.1829
 2371TIP3    H128528   4.942   5.477  10.467 -0.5994 -1.0554 -0.3028
 2371TIP3    H228529   4.987   5.501  10.610 -0.2461  1.0449 -0.7257
 2372TIP3   OH228530   1.612   3.971  13.522  0.2006  0.3316  0.2399
 2372TIP3    H128531   1.635   3.999  13.610 -1.3018  1.4654  0.3142
 2372TIP3    H228532   1.677   4.014  13.465  1.8906 -1.3229  0.8152
 2373TIP3   OH228533   1.019   4.947  13.156  0.1917  0.0967 -0.2362
 2373TIP3    H128534   1.036   4.896  13.076  1.8193 -0.2016  0.2608
 2373TIP3    H228535   1.106   4.968  13.190 -0.4377 -0.4409  1.8706
 2374TIP3   OH228536   4.969   6.260  15.499 -0.5406 -0.0460  0.3583
 2374TIP3    H128537   5.015   6.306  15.428 -2.0741  0.8033 -0.1242
 2374TIP3    H228538   4.928   6.185  15.456 -0.1864 -0.4091  0.6527
 2375TIP3   OH228539   6.530   4.505   0.896  0.1913  0.2360  0.1939
 2375TIP3    H128540   6.545   4.599   0.882  0.4310  0.2059  0.2357
 2375TIP3    H228541   6.444   4.500   0.937  0.2183  0.4471  0.2786
 2376TIP3   OH228542   6.365   5.829  14.091  0.5470  0.9523  0.0281
 2376TIP3    H128543   6.291   5.875  14.130 -0.7557 -0.4692 -0.6840
 2376TIP3    H228544   6.418   5.898  14.051 -0.5042  1.9712  0.3477
 2377TIP3   OH228545   1.855   0.232  16.055  0.0045 -1.0948 -0.4953
 2377TIP3    H128546   1.771   0.196  16.082 -0.1738 -0.5531 -0.3107
 2377TIP3    H228547   1.909   0.230  16.134 -0.3667  0.0568 -0.1876
 2378TIP3   OH228548   6.292   2.292   1.162 -0.3045 -0.1958 -0.3448
 2378TIP3    H128549   6.373   2.280   1.213 -1.3514  1.6057  1.9270
 2378TIP3    H228550   6.322   2.310   1.073  1.8708  1.1227  0.5751
 2379TIP3   OH228551   2.026   4.622   5.014 -0.7774 -0.2303  0.6296
 2379TIP3    H128552   1.936   4.651   5.030  0.0303  1.5093  2.3314
 2379TIP3    H228553   2.050   4.576   5.094 -0.1110 -0.6509  0.1959
 2380TIP3   OH228554   3.963   0.106   2.018  0.2856 -0.5752  0.0569
 2380TIP3    H128555   3.956   0.200   2.037 -0.4417 -0.4922 -0.5659
 2380TIP3    H228556   4.054   0.085   2.037  0.3725  0.1786  0.5473
 2381TIP3   OH228557   1.393   4.369  12.299 -0.0217 -0.5442 -0.4766
 2381TIP3    H128558   1.301   4.359  12.323  0.1632 -1.9568 -0.3328
 2381TIP3    H228559   1.430   4.281  12.304  1.2076 -0.0905 -1.0903
 2382TIP3   OH228560   6.634   2.134  15.040 -0.1285 -0.5227  0.5504
 2382TIP3    H128561   6.655   2.072  14.970 -0.3690  0.6633 -0.6072
 2382TIP3    H228562   6.554   2.177  15.011  0.7951  1.3390  0.6173
 2383TIP3   OH228563   4.678   2.670   0.086  0.1678 -0.4768  0.6281
 2383TIP3    H128564   4.620   2.622   0.026  1.0443 -2.2369  1.0998
 2383TIP3    H228565   4.632   2.668   0.170  0.6766 -1.4879  0.8996
 2384TIP3   OH228566   4.351   0.733  13.636  0.3505  0.4695 -0.2147
 2384TIP3    H128567   4.275   0.691  13.678  0.3644  1.7342  1.1507
 2384TIP3    H228568   4.425   0.678  13.660  0.0310 -0.1356 -0.5916
 2385TIP3   OH228569   5.698   1.416  11.768  0.2438  0.5260  0.7291
 2385TIP3    H128570   5.618   1.395  11.720  0.3157  2.0952 -0.1216
 2385TIP3    H228571   5.763   1.355  11.734 -0.0656  0.6765 -0.1451
 2386TIP3   OH228572   3.816   0.224  14.057  0.1745 -0.0475  0.3665
 2386TIP3    H128573   3.896   0.277  14.059 -0.0528  0.4010 -0.9742
 2386TIP3    H228574   3.786   0.231  13.966 -0.6471 -1.3259  0.5225
 2387TIP3   OH228575   3.646   5.163   6.043 -0.0987 -0.0418  0.0330
 2387TIP3    H128576   3.682   5.149   5.955  0.5681 -0.3620  0.3488
 2387TIP3    H228577   3.660   5.079   6.088 -0.6226  0.0550  0.3764
 2388TIP3   OH228578   1.210   0.936   0.424  0.2025 -0.1926 -0.1963
 2388TIP3    H128579   1.139   0.988   0.385  1.1854 -0.4893 -2.5412
 2388TIP3    H228580   1.185   0.845   0.408  0.2901 -0.3454  0.5206
 2389TIP3   OH228581   1.842   5.807   0.699 -0.4239 -0.0329 -0.0107
 2389TIP3    H128582   1.764   5.754   0.684 -0.2281 -0.0648 -0.9895
 2389TIP3    H228583   1.848   5.863   0.622  1.5409 -1.3108 -0.8495
 2390TIP3   OH228584   5.464   1.573  14.133  0.2117 -0.5100  0.1358
 2390TIP3    H128585   5.432   1.495  14.177 -0.0098  0.0725  1.0467
 2390TIP3    H228586   5.544   1.597  14.181  0.7791 -0.6893 -0.7070
 2391TIP3   OH228587   1.339   1.496  15.276 -0.1967  0.3113 -0.0037
 2391TIP3    H128588   1.422   1.510  15.232 -0.9720  1.3739 -1.1883
 2391TIP3    H228589   1.330   1.401  15.281  0.9052  0.1882 -0.1956
 2392TIP3   OH228590   6.164   4.181  11.738  0.2236 -0.2611  0.1366
 2392TIP3    H128591   6.210   4.099  11.755  0.2022 -0.0596  1.2232
 2392TIP3    H228592   6.170   4.193  11.643  1.6129 -0.7112  0.1500
 2393TIP3   OH228593   3.074   0.838  16.881 -0.4076 -0.1580  0.0468
 2393TIP3    H128594   3.050   0.931  16.874  1.0879  0.1801 -1.2529
 2393TIP3    H228595   2.993   0.791  16.865 -0.9539  0.9334 -0.5229
 2394TIP3   OH228596   3.186   2.379   5.408  0.8930  0.1309 -0.3345
 2394TIP3    H128597   3.236   2.312   5.456 -1.4344 -1.3410  0.2193
 2394TIP3    H228598   3.209   2.461   5.452  0.9929 -0.8096  1.4856
 2395TIP3   OH228599   1.687   1.874   5.021 -0.7685  0.6159  0.5966
 2395TIP3    H128600   1.615   1.937   5.013 -1.1788  0.2272  1.2117
 2395TIP3    H228601   1.727   1.874   4.934 -1.3694  1.0009  0.3080
 2396TIP3   OH228602   3.195   2.951   1.213  0.6798  0.4636  0.1445
 2396TIP3    H128603   3.172   2.994   1.295 -0.0407  0.5571 -0.0971
 2396TIP3    H228604   3.256   3.011   1.170  1.6146  0.0890  0.9244
 2397TIP3   OH228605   5.708   4.883  14.776 -0.2055 -0.3630  0.5798
 2397TIP3    H128606   5.780   4.945  14.787 -2.2344  2.4998 -0.6821
 2397TIP3    H228607   5.671   4.905  14.691 -1.6001 -2.8239  0.4677
 2398TIP3   OH228608   5.441   3.720   3.470 -0.0028 -0.4056 -0.3651
 2398TIP3    H128609   5.520   3.775   3.464  0.0479 -0.4958 -0.5241
 2398TIP3    H228610   5.375   3.778   3.507  0.3825 -0.5865  0.6476
 2399TIP3   OH228611   2.110   3.673   4.884 -0.8577 -0.1889 -0.2004
 2399TIP3    H128612   2.165   3.629   4.820  2.0230  1.1436  1.1658
 2399TIP3    H228613   2.090   3.758   4.845 -1.0348 -0.2596 -0.2633
 2400TIP3   OH228614   1.056   6.310   5.972 -0.1497 -0.0331 -0.2856
 2400TIP3    H128615   1.091   6.229   6.009  0.7657  0.8251  0.7880
 2400TIP3    H228616   1.133   6.366   5.959 -0.7454  0.6170 -1.1640
 2401TIP3   OH228617   4.407   1.420  15.142 -0.2447 -0.4986  0.9360
 2401TIP3    H128618   4.385   1.491  15.203 -2.8868  0.7689 -1.2483
 2401TIP3    H228619   4.368   1.448  15.059  1.3830 -3.0969 -0.8319
 2402TIP3   OH228620   4.487   5.566   0.987  0.3639 -0.2461 -0.4682
 2402TIP3    H128621   4.469   5.552   0.894 -0.3241  1.2751 -0.6002
 2402TIP3    H228622   4.449   5.490   1.031 -2.0972  0.4808 -1.1936
 2403TIP3   OH228623   0.051   0.746  12.376 -0.0419  0.1103  0.1042
 2403TIP3    H128624  -0.034   0.730  12.415 -0.1637  0.6780  0.0893
 2403TIP3    H228625   0.034   0.750  12.281 -0.2625  1.6074  0.1710
 2404TIP3   OH228626   5.647   0.223   5.581  0.1469  0.3271  0.0020
 2404TIP3    H128627   5.649   0.292   5.648  0.4887 -0.6361  1.0101
 2404TIP3    H228628   5.674   0.144   5.628 -1.3547 -0.7356 -0.8547
 2405TIP3   OH228629   5.217   4.874  13.528 -0.4466 -0.1051  0.0126
 2405TIP3    H128630   5.309   4.848  13.539 -0.9996 -1.4129  2.3001
 2405TIP3    H228631   5.215   4.966  13.553  0.2789  0.0178 -0.3511
 2406TIP3   OH228632   0.073   2.937  11.508  0.9014 -0.1068 -0.2542
 2406TIP3    H128633   0.112   2.989  11.438  0.7627 -0.2378 -0.4291
 2406TIP3    H228634   0.088   2.846  11.483  0.3666 -0.1639 -0.3970
 2407TIP3   OH228635   6.052   0.895   5.092 -0.8165 -0.1455 -0.0482
 2407TIP3    H128636   6.118   0.893   5.162 -0.7309  0.0770 -0.1235
 2407TIP3    H228637   6.078   0.824   5.033  0.5401  1.1899 -1.1599
 2408TIP3   OH228638   6.507   4.867   4.033 -0.6930 -0.3806 -0.2004
 2408TIP3    H128639   6.549   4.793   3.989 -1.1057 -0.8215  0.1393
 2408TIP3    H228640   6.484   4.927   3.962  1.7760  0.5496 -0.2982
 2409TIP3   OH228641   5.466   1.853   3.035 -0.2511  0.0194  0.2419
 2409TIP3    H128642   5.398   1.808   2.985 -0.1615  0.1777 -0.0248
 2409TIP3    H228643   5.512   1.784   3.082 -0.9042 -0.0445  0.7973
 2410TIP3   OH228644   6.192   4.712   1.409 -0.5559  0.1106  0.4095
 2410TIP3    H128645   6.142   4.793   1.396 -0.6621 -0.0572 -0.2763
 2410TIP3    H228646   6.231   4.694   1.323  0.2219 -0.0741  0.7867
 2411TIP3   OH228647   4.162   5.165   3.962 -0.1038 -0.2764 -0.4278
 2411TIP3    H128648   4.204   5.251   3.965 -0.7135  0.0044  0.4303
 2411TIP3    H228649   4.070   5.182   3.982 -0.1340 -1.1915  0.2603
 2412TIP3   OH228650   6.045   2.904  15.318 -0.7277 -0.5600  0.2826
 2412TIP3    H128651   5.980   2.835  15.300 -0.8508 -0.3357 -0.1450
 2412TIP3    H228652   6.120   2.881  15.264 -1.4326  0.6073 -1.2627
 2413TIP3   OH228653   4.415   1.672   6.340 -0.0950  0.0298 -0.0297
 2413TIP3    H128654   4.334   1.673   6.391  0.8024  1.4547  1.4817
 2413TIP3    H228655   4.450   1.761   6.349  2.0405 -0.7510  0.0449
 2414TIP3   OH228656   3.833   5.538   0.319 -0.0842 -0.2386  0.3502
 2414TIP3    H128657   3.868   5.571   0.236 -0.1757 -0.9835  0.0074
 2414TIP3    H228658   3.910   5.534   0.376 -0.0316  0.3383  0.3246
 2415TIP3   OH228659   0.999   1.130   5.562  0.5004  0.1408  0.5116
 2415TIP3    H128660   0.964   1.051   5.602 -0.8093  0.6992  0.5011
 2415TIP3    H228661   0.935   1.153   5.494  1.7113  0.2756 -0.6314
 2416TIP3   OH228662   4.568   6.750   4.809 -0.2210 -0.1585  0.2166
 2416TIP3    H128663   4.526   6.752   4.895  2.0439 -0.0818  1.3995
 2416TIP3    H228664   4.510   6.697   4.755 -0.8028 -1.8182  2.3337
 2417TIP3   OH228665   6.081   5.494  11.830  0.1465 -0.0768  0.4520
 2417TIP3    H128666   6.030   5.480  11.910 -1.4406 -1.0373 -0.6810
 2417TIP3    H228667   6.024   5.465  11.759  1.8450 -0.0869 -0.9881
 2418TIP3   OH228668   3.489   3.438   1.142  0.4695  0.2591 -0.2389
 2418TIP3    H128669   3.475   3.473   1.054  1.7659  2.0272  0.2013
 2418TIP3    H228670   3.416   3.471   1.193  0.0685 -0.2174 -0.5020
 2419TIP3   OH228671   3.014   1.652  11.811 -0.5468  0.1719  0.3627
 2419TIP3    H128672   3.103   1.686  11.801 -0.1472 -0.8354  0.3756
 2419TIP3    H228673   3.006   1.633  11.904 -1.2600  1.5144  0.5974
 2420TIP3   OH228674   1.688   0.541   6.350 -0.3581 -0.6896 -0.0794
 2420TIP3    H128675   1.599   0.528   6.382 -0.3656 -1.0987 -0.2567
 2420TIP3    H228676   1.708   0.460   6.303  0.7390 -1.3403  1.4283
 2421TIP3   OH228677   2.974   1.781  17.115 -0.2497  0.2328  0.3984
 2421TIP3    H128678   2.932   1.867  17.112  0.1617  0.4656  1.0652
 2421TIP3    H228679   2.938   1.734  17.040 -0.7269  0.8722  0.2182
 2422TIP3   OH228680   4.339   6.136  10.367 -0.0399 -0.2102  0.0959
 2422TIP3    H128681   4.256   6.089  10.372 -0.8665  0.8312 -2.2459
 2422TIP3    H228682   4.315   6.228  10.354  1.4867  0.2082 -0.0204
 2423TIP3   OH228683   5.884   3.619   2.458  0.4472  0.4940  0.0083
 2423TIP3    H128684   5.830   3.659   2.389  0.4450  0.2183 -0.1487
 2423TIP3    H228685   5.880   3.525   2.440 -1.5430  0.1698  1.8028
 2424TIP3   OH228686   2.160   6.232   4.079  0.3188  0.2113  0.3100
 2424TIP3    H128687   2.078   6.259   4.039  1.3143  1.4377 -1.0079
 2424TIP3    H228688   2.136   6.160   4.137 -1.7401  0.8580  0.3267
 2425TIP3   OH228689   0.267   5.417  16.553 -0.3089  0.2414 -0.6484
 2425TIP3    H128690   0.187   5.425  16.501  0.3220  0.5440 -1.6077
 2425TIP3    H228691   0.274   5.499  16.601 -0.2458  0.4681 -1.0457
 2426TIP3   OH228692   6.398   3.351   2.356  0.2085  0.0769  0.1131
 2426TIP3    H128693   6.460   3.422   2.375 -0.6074  0.3937  1.7701
 2426TIP3    H228694   6.453   3.273   2.350  0.9779  0.6479 -0.4222
 2427TIP3   OH228695   2.076   0.437   5.400 -0.1430  0.3510  0.1535
 2427TIP3    H128696   2.048   0.359   5.448 -0.5477 -1.2013 -2.4306
 2427TIP3    H228697   2.149   0.472   5.452  0.6480 -2.2669  0.9524
 2428TIP3   OH228698   5.075   6.095  10.680 -0.5009 -0.4548  0.2988
 2428TIP3    H128699   5.081   6.000  10.689  0.1987 -0.2952  2.0267
 2428TIP3    H228700   5.017   6.122  10.752 -2.1149  0.3043 -1.2119
 2429TIP3   OH228701   2.117   2.492  15.106  0.1067 -0.0004  0.3367
 2429TIP3    H128702   2.187   2.450  15.055 -0.2655 -0.4056  0.1522
 2429TIP3    H228703   2.138   2.472  15.197  0.7790  0.7331  0.3553
 2430TIP3   OH228704   2.482   1.433  11.156 -0.4123 -0.0772  0.0026
 2430TIP3    H128705   2.563   1.427  11.207  0.4566  0.3804 -1.2685
 2430TIP3    H228706   2.468   1.527  11.143  0.5555 -0.1614 -2.2953
 2431TIP3   OH228707   3.344   1.603  12.794  0.4274  0.0515 -0.2718
 2431TIP3    H128708   3.332   1.630  12.885 -0.6282  1.7573 -0.8550
 2431TIP3    H228709   3.373   1.683  12.750  2.9647 -1.2390 -1.0937
 2432TIP3   OH228710   6.793   4.050   0.535 -0.0101  0.0739  0.5462
 2432TIP3    H128711   6.857   4.111   0.571  0.0930  0.5496 -0.4420
 2432TIP3    H228712   6.843   3.970   0.519  0.2685  0.3502  0.0456
 2433TIP3   OH228713   3.716   0.210  13.786 -0.0775  0.5091  0.1946
 2433TIP3    H128714   3.717   0.140  13.721 -0.7147  0.3206  0.3815
 2433TIP3    H228715   3.753   0.286  13.741  0.4959  0.0877 -0.0493
 2434TIP3   OH228716   3.311   5.540   2.495 -0.1166 -0.1759 -0.2447
 2434TIP3    H128717   3.328   5.492   2.576  0.8180 -2.9157 -1.9302
 2434TIP3    H228718   3.360   5.622   2.505  2.5910 -1.7862  0.7599
 2435TIP3   OH228719   3.804   3.411   2.397  0.4928 -0.0793  0.4436
 2435TIP3    H128720   3.812   3.401   2.302  0.8452  0.2421  0.4361
 2435TIP3    H228721   3.828   3.503   2.414 -0.4048  0.1089  0.7511
 2436TIP3   OH228722   2.823   2.701  14.021 -0.0139  0.3850 -0.1059
 2436TIP3    H128723   2.758   2.707  14.091  0.6854 -0.1077  0.6071
 2436TIP3    H228724   2.812   2.612  13.985  1.4475 -0.3991  1.2462
 2437TIP3   OH228725   3.886   6.562  11.143  0.5076 -0.1158  0.2977
 2437TIP3    H128726   3.896   6.553  11.048 -1.6849  0.0592  0.0061
 2437TIP3    H228727   3.955   6.505  11.180  3.0307  1.6827 -1.3080
 2438TIP3   OH228728   3.153   0.868  15.686 -0.8474  0.2488 -0.1218
 2438TIP3    H128729   3.237   0.824  15.687 -2.4610 -3.1108 -0.2490
 2438TIP3    H228730   3.127   0.867  15.593 -1.1746  1.0685 -0.0534
 2439TIP3   OH228731   1.655   6.305  14.963  0.3640 -0.1382 -0.1466
 2439TIP3    H128732   1.706   6.247  15.019 -0.0960  0.0668  0.4953
 2439TIP3    H228733   1.641   6.384  15.015 -1.5142 -0.6097  0.1336
 2440TIP3   OH228734   2.524   2.796  16.930 -0.3585 -0.3031  0.1973
 2440TIP3    H128735   2.575   2.742  16.870 -0.9237 -0.0488 -0.5266
 2440TIP3    H228736   2.514   2.880  16.885  1.3218  0.7752  1.7062
 2441TIP3   OH228737   0.739   4.055  16.357  0.1889  0.3015 -0.1552
 2441TIP3    H128738   0.805   4.079  16.292  0.8546  2.1081  1.1045
 2441TIP3    H228739   0.756   3.963  16.377  2.7619  0.8445  0.5552
 2442TIP3   OH228740   2.795   5.493   0.295  0.3513  0.0481 -0.0373
 2442TIP3    H128741   2.739   5.498   0.217  0.4735 -0.2646 -0.1488
 2442TIP3    H228742   2.884   5.484   0.260  0.5463  1.1844  0.1354
 2443TIP3   OH228743   4.556   4.308   4.794  0.1521 -0.2124 -0.3159
 2443TIP3    H128744   4.505   4.300   4.875 -1.2603  0.2927 -1.1160
 2443TIP3    H228745   4.568   4.402   4.783 -2.3205 -0.0141 -2.1988
 2444TIP3   OH228746   1.682   1.780   6.006 -0.1648 -0.0996  0.1734
 2444TIP3    H128747   1.642   1.743   6.085  3.2888  0.1256  2.2144
 2444TIP3    H228748   1.736   1.853   6.038  3.3002 -1.5058 -1.9043
 2445TIP3   OH228749   6.589   1.630   5.285 -0.0089 -0.3625  0.5072
 2445TIP3    H128750   6.684   1.626   5.277  0.1211  1.5429  0.5702
 2445TIP3    H228751   6.571   1.611   5.377  0.4914  0.9468  0.9058
 2446TIP3   OH228752   5.264   6.423  12.243 -0.0619 -0.0508 -0.1270
 2446TIP3    H128753   5.185   6.439  12.295  0.3785  0.6233  0.3506
 2446TIP3    H228754   5.233   6.377  12.165 -0.8440 -0.3176  0.3337
 2447TIP3   OH228755   5.845   3.902  16.180 -0.7020 -0.1148 -0.1063
 2447TIP3    H128756   5.903   3.927  16.252 -0.4550  1.6534 -0.8657
 2447TIP3    H228757   5.757   3.916  16.216 -0.6370 -1.0786  0.4584
 2448TIP3   OH228758   2.918   4.714  13.798 -0.9668 -0.4115  0.0061
 2448TIP3    H128759   3.012   4.699  13.806 -0.9549  0.3388  1.7483
 2448TIP3    H228760   2.900   4.707  13.704  0.9023 -0.0954 -0.4092
 2449TIP3   OH228761   1.840   1.870  12.137 -0.1337 -1.2572  0.2010
 2449TIP3    H128762   1.880   1.787  12.163 -1.3655 -1.7883  0.4561
 2449TIP3    H228763   1.781   1.847  12.065 -2.5054 -1.1019  1.9918
 2450TIP3   OH228764   4.573   1.269   6.440  0.0580  0.1737  0.1041
 2450TIP3    H128765   4.500   1.211   6.463 -0.1973  0.7017  0.6526
 2450TIP3    H228766   4.551   1.301   6.353 -1.1336  1.4859  0.8462
 2451TIP3   OH228767   6.074   5.648  13.300 -0.4972 -0.3001  0.4941
 2451TIP3    H128768   5.988   5.663  13.261 -0.5625 -1.6062  0.0775
 2451TIP3    H228769   6.132   5.710  13.257 -1.2815  0.8144  1.0110
 2452TIP3   OH228770   5.901   6.330  15.874  0.0863  0.2678 -0.0162
 2452TIP3    H128771   5.815   6.290  15.881 -0.2168  0.9521  0.2111
 2452TIP3    H228772   5.929   6.313  15.784  0.8492 -2.2088  0.6161
 2453TIP3   OH228773   1.006   1.251  14.201  0.3989 -0.0547  0.4196
 2453TIP3    H128774   1.075   1.186  14.216  1.5352  1.0777  0.2903
 2453TIP3    H228775   0.977   1.234  14.111 -0.0820 -1.0516  0.7444
 2454TIP3   OH228776   2.864   1.870  12.385  0.6091 -0.0334 -0.0990
 2454TIP3    H128777   2.793   1.873  12.448  1.2419  0.1893  0.6183
 2454TIP3    H228778   2.836   1.929  12.314  0.7506  1.3206  0.9221
 2455TIP3   OH228779   5.833   1.854   5.300  0.7324 -0.3711  0.2898
 2455TIP3    H128780   5.813   1.893   5.215 -0.8409 -0.8196  0.4184
 2455TIP3    H228781   5.752   1.809   5.325  1.8881 -2.1520  0.9970
 2456TIP3   OH228782   6.808   0.823   2.225  0.1323  0.3849  0.0602
 2456TIP3    H128783   6.862   0.870   2.288  2.0913 -1.6643  0.0244
 2456TIP3    H228784   6.840   0.733   2.227 -1.8992 -0.4722 -1.5433
 2457TIP3   OH228785   1.517   5.301  14.802  0.2695  0.0024 -0.0195
 2457TIP3    H128786   1.588   5.241  14.823  0.2522 -0.4326 -1.1531
 2457TIP3    H228787   1.482   5.270  14.719 -1.1079  0.3493  0.3998
 2458TIP3   OH228788   0.159   1.210   1.750  0.0242 -0.7891  0.5020
 2458TIP3    H128789   0.174   1.224   1.657 -0.8323  1.2019  0.6116
 2458TIP3    H228790   0.211   1.133   1.772 -0.5412 -1.9067 -1.8230
 2459TIP3   OH228791   1.851   5.407   4.694  0.1052  0.2107  0.2629
 2459TIP3    H128792   1.756   5.394   4.702  0.1163  0.0298  0.1145
 2459TIP3    H228793   1.862   5.462   4.616  0.1602 -0.3214 -0.1099
 2460TIP3   OH228794   4.353   6.514   0.382 -0.1410  0.0923 -0.2570
 2460TIP3    H128795   4.261   6.536   0.400  0.0624 -0.3169  1.4444
 2460TIP3    H228796   4.395   6.599   0.369 -0.4711  0.3904  0.5415
 2461TIP3   OH228797   2.731   4.125  16.813  0.2222  0.1820  0.2449
 2461TIP3    H128798   2.785   4.198  16.841 -2.3965  1.6990  1.7770
 2461TIP3    H228799   2.713   4.141  16.721  2.4477 -0.4893 -0.3653
 2462TIP3   OH228800   2.351   2.974  15.076 -0.4438  0.0397 -0.3703
 2462TIP3    H128801   2.413   3.000  15.007 -0.6643  2.2980  0.2122
 2462TIP3    H228802   2.406   2.954  15.152 -0.3570  1.1383 -0.1312
 2463TIP3   OH228803   5.255   5.084   0.348 -0.0961 -0.2572  0.2354
 2463TIP3    H128804   5.230   5.051   0.435  0.3846  0.4960  0.6647
 2463TIP3    H228805   5.211   5.025   0.287 -0.5134 -0.7431  0.9895
 2464TIP3   OH228806   6.499   3.513   3.775 -0.1105 -0.2132 -0.4383
 2464TIP3    H128807   6.458   3.563   3.705 -1.2985 -0.3739  0.1162
 2464TIP3    H228808   6.443   3.436   3.785  0.5922 -0.6790  0.0422
 2465TIP3   OH228809   6.412   5.234   1.078 -0.2131  0.3687 -0.1745
 2465TIP3    H128810   6.426   5.155   1.026  0.8419  1.0571 -0.9730
 2465TIP3    H228811   6.383   5.201   1.164 -1.6011 -0.7966 -1.0368
 2466TIP3   OH228812   6.681   3.971  11.872 -0.2510 -0.8378 -0.2124
 2466TIP3    H128813   6.687   4.057  11.914 -1.2483 -0.5758 -0.5914
 2466TIP3    H228814   6.772   3.945  11.859  0.1368  1.1102 -2.0043
 2467TIP3   OH228815   1.462   6.494  12.091 -0.6232 -0.5987 -0.4617
 2467TIP3    H128816   1.489   6.431  12.158 -1.1183 -0.7563 -0.4022
 2467TIP3    H228817   1.451   6.576  12.139  1.4015 -0.0904 -0.7799
 2468TIP3   OH228818   1.739   2.177  11.522 -0.5156 -0.0225 -0.1259
 2468TIP3    H128819   1.805   2.116  11.489  0.8301  1.0956  0.4000
 2468TIP3    H228820   1.757   2.182  11.616 -2.3390 -0.8466  0.3087
 2469TIP3   OH228821   3.945   3.149  14.351  0.2081  0.3552  0.1875
 2469TIP3    H128822   3.882   3.151  14.423  0.1793 -0.5643  0.1965
 2469TIP3    H228823   4.028   3.173  14.392  0.4279 -1.3236  0.7946
 2470TIP3   OH228824   5.071   2.305  13.275 -0.4240 -0.2989 -0.2113
 2470TIP3    H128825   5.092   2.255  13.354 -0.0006 -0.4507 -0.4123
 2470TIP3    H228826   4.977   2.319  13.279 -0.3959 -0.2528  0.3504
 2471TIP3   OH228827   0.673   6.764  11.186 -0.5282  0.2920 -0.7393
 2471TIP3    H128828   0.705   6.833  11.244  0.2245 -0.8711  0.2735
 2471TIP3    H228829   0.579   6.760  11.203 -0.2853 -0.1521  0.5503
 2472TIP3   OH228830   3.199   1.646  16.609 -0.2413 -0.0456  0.5481
 2472TIP3    H128831   3.276   1.596  16.637 -1.9177 -2.3945  1.3742
 2472TIP3    H228832   3.198   1.723  16.665  0.4577 -0.9854  1.9101
 2473TIP3   OH228833   5.906   5.229  11.780  0.1062 -0.6786  0.2390
 2473TIP3    H128834   5.875   5.319  11.771 -1.1815 -1.1585 -0.4293
 2473TIP3    H228835   5.961   5.215  11.703  0.0480 -0.5626  0.1763
 2474TIP3   OH228836   3.679   2.409   4.867 -0.3705 -0.4628 -0.5569
 2474TIP3    H128837   3.605   2.461   4.837 -1.9973 -2.4791 -0.2298
 2474TIP3    H228838   3.694   2.345   4.797  1.1159 -0.0678 -0.6355
 2475TIP3   OH228839   3.851   0.348   2.156  0.0529 -0.4329  0.9056
 2475TIP3    H128840   3.884   0.374   2.069 -0.7594 -2.5008 -0.0936
 2475TIP3    H228841   3.910   0.392   2.217  0.9716  0.6996 -0.6917
 2476TIP3   OH228842   0.043   0.804   1.198 -0.1431 -0.7003  0.4915
 2476TIP3    H128843   0.090   0.721   1.187 -0.1114 -1.2373  3.7085
 2476TIP3    H228844  -0.047   0.779   1.219 -0.4612  0.1195  0.1469
 2477TIP3   OH228845   5.862   5.733   5.230 -0.0510 -0.5298 -0.6550
 2477TIP3    H128846   5.905   5.794   5.289 -1.9439 -0.3893  0.6546
 2477TIP3    H228847   5.816   5.788   5.167 -0.3459 -0.6251 -0.5255
 2478TIP3   OH228848   0.215   0.644   4.387  0.2776 -0.1018 -0.1472
 2478TIP3    H128849   0.187   0.617   4.474  0.4379  0.3297  0.0400
 2478TIP3    H228850   0.309   0.661   4.396  0.0224  1.3816 -0.0353
 2479TIP3   OH228851   4.540   2.730   5.791  0.0445 -0.1017  0.3101
 2479TIP3    H128852   4.521   2.636   5.790  0.0824 -0.1104 -0.3474
 2479TIP3    H228853   4.584   2.745   5.874 -0.4382 -0.5675  0.6608
 2480TIP3   OH228854   3.284   1.288   3.616 -0.5864 -0.6970 -0.2826
 2480TIP3    H128855   3.190   1.299   3.628 -0.2690  2.5765  0.1184
 2480TIP3    H228856   3.294   1.274   3.522 -1.3141  4.2544 -1.3532
 2481TIP3   OH228857   2.960   4.996   2.248 -0.3939 -0.1795  0.0408
 2481TIP3    H128858   2.902   5.014   2.322  0.9070  0.0176  1.0415
 2481TIP3    H228859   3.044   5.034   2.273  0.9691 -2.8717 -0.1098
 2482TIP3   OH228860   3.927   3.821  11.074 -0.0986  0.6120 -0.2294
 2482TIP3    H128861   3.926   3.855  10.984 -2.5295  1.1303 -0.0640
 2482TIP3    H228862   3.907   3.897  11.129  0.1860  0.0566  0.6693
 2483TIP3   OH228863   1.493   6.208  14.771  0.3231 -0.1934 -0.1830
 2483TIP3    H128864   1.566   6.227  14.829  1.5654 -0.2922 -1.6562
 2483TIP3    H228865   1.520   6.242  14.685 -0.0970 -2.7378 -1.4371
 2484TIP3   OH228866   5.375   5.616  14.006  0.7242  0.1414  0.0113
 2484TIP3    H128867   5.470   5.624  14.015  0.8073  1.0998 -1.3898
 2484TIP3    H228868   5.340   5.689  14.057  0.7466 -0.1064  0.3823
 2485TIP3   OH228869   0.178   6.662  13.166  0.2600  0.4054  0.6577
 2485TIP3    H128870   0.236   6.605  13.217  0.6884 -0.0147 -0.2858
 2485TIP3    H228871   0.216   6.663  13.078 -0.3919  1.2357  0.3762
 2486TIP3   OH228872   2.259   2.741  16.959  0.3776 -0.0309  1.0090
 2486TIP3    H128873   2.220   2.773  17.040  0.2426 -1.1035  1.3916
 2486TIP3    H228874   2.353   2.750  16.973  0.3368  0.3437  1.0454
 2487TIP3   OH228875   0.956   3.494  11.855 -0.0348  0.0200 -0.3653
 2487TIP3    H128876   0.966   3.570  11.798 -0.9689 -0.2214 -0.8789
 2487TIP3    H228877   1.043   3.456  11.861  0.1984  0.4112 -1.1366
 2488TIP3   OH228878   5.503   6.542  16.706  0.4362 -0.4111  0.0075
 2488TIP3    H128879   5.497   6.447  16.691 -0.7901 -0.3954  0.2804
 2488TIP3    H228880   5.483   6.580  16.620  0.8860 -0.3877 -0.0915
 2489TIP3   OH228881   3.297   4.954  10.421 -0.1256 -0.2124  0.0160
 2489TIP3    H128882   3.314   4.929  10.512  0.6122 -0.5116 -0.2016
 2489TIP3    H228883   3.201   4.954  10.415 -0.1880 -0.0406  0.8318
 2490TIP3   OH228884   6.363   1.137   4.307 -0.1541  0.1999  0.0414
 2490TIP3    H128885   6.295   1.200   4.328 -1.1402 -1.0514  0.7693
 2490TIP3    H228886   6.342   1.060   4.360 -0.8056 -1.8978 -2.9297
 2491TIP3   OH228887   5.116   4.013  15.569  0.3185 -0.2422  0.3661
 2491TIP3    H128888   5.127   4.107  15.581  0.9806 -0.3210  0.4138
 2491TIP3    H228889   5.059   3.986  15.641 -0.3680  0.2171  0.0041
 2492TIP3   OH228890   0.168   5.447  13.099  0.0619 -0.3694 -0.6249
 2492TIP3    H128891   0.199   5.499  13.173 -0.4854 -0.4537 -0.3312
 2492TIP3    H228892   0.211   5.486  13.023 -0.3263  0.5062 -0.4109
 2493TIP3   OH228893   6.363   5.289  14.502  0.1266 -0.1778 -0.5155
 2493TIP3    H128894   6.380   5.317  14.412 -1.7605  0.6655 -0.6600
 2493TIP3    H228895   6.347   5.195  14.495 -1.3444  0.0958 -1.3156
 2494TIP3   OH228896   5.063   2.393  12.699 -0.4353  0.8580 -0.4838
 2494TIP3    H128897   5.138   2.450  12.710  0.5613 -0.4200 -0.4088
 2494TIP3    H228898   5.009   2.408  12.776  0.2508  1.0590 -0.0366
 2495TIP3   OH228899   6.493   4.213   1.788 -0.0534 -0.2132  0.3247
 2495TIP3    H128900   6.576   4.165   1.792  1.2242  1.8832  0.5842
 2495TIP3    H228901   6.444   4.182   1.863 -0.7897 -3.5409 -1.3395
 2496TIP3   OH228902   3.701   6.727   0.529  0.2927  0.2174 -0.0015
 2496TIP3    H128903   3.786   6.753   0.563  1.1730 -0.3715 -1.6428
 2496TIP3    H228904   3.716   6.641   0.489 -1.1298 -0.0145 -0.0891
 2497TIP3   OH228905   3.617   5.243  16.876 -0.4231  0.0376 -0.2570
 2497TIP3    H128906   3.658   5.170  16.923 -1.4258  0.4475  1.3501
 2497TIP3    H228907   3.546   5.203  16.826 -1.3967 -0.0459  1.1452
 2498TIP3   OH228908   5.078   5.309   4.187 -0.8759 -0.0308  0.0856
 2498TIP3    H128909   5.105   5.268   4.105 -0.7646 -1.9760  1.0340
 2498TIP3    H228910   5.004   5.365   4.163 -0.4028 -0.0088 -1.4347
 2499TIP3   OH228911   4.645   1.164   0.634 -0.4203  0.2384 -0.4494
 2499TIP3    H128912   4.614   1.098   0.695  0.6635 -0.1448 -0.2915
 2499TIP3    H228913   4.566   1.196   0.591 -1.0315 -0.6212  0.0061
 2500TIP3   OH228914   6.292   1.085   0.926 -0.1130 -0.7228  0.3044
 2500TIP3    H128915   6.350   1.066   0.999 -0.1175 -0.1114  0.4752
 2500TIP3    H228916   6.318   1.173   0.897 -0.7283 -0.5790  0.1709
 2501TIP3   OH228917   4.668   5.506  16.564  0.4102 -0.4752  0.1432
 2501TIP3    H128918   4.639   5.416  16.583 -1.0309  0.1325  0.9613
 2501TIP3    H228919   4.719   5.498  16.483  1.0229 -2.1508  0.6582
 2502TIP3   OH228920   3.954   3.142  16.403 -0.1401  0.2192 -0.2982
 2502TIP3    H128921   3.944   3.238  16.401 -0.3543  0.2281  0.7772
 2502TIP3    H228922   3.869   3.109  16.372  0.6237  0.3542 -2.7738
 2503TIP3   OH228923   2.841   2.464  12.358 -0.6769  0.9369  0.5153
 2503TIP3    H128924   2.805   2.553  12.356 -0.5881  0.9727  0.5066
 2503TIP3    H228925   2.878   2.452  12.271  2.2808  2.1275  1.4875
 2504TIP3   OH228926   5.920   2.525   2.070 -0.7470 -0.6682 -0.0243
 2504TIP3    H128927   5.906   2.594   2.006 -0.8064  0.0906  0.7803
 2504TIP3    H228928   5.852   2.540   2.136  0.4439 -0.2690  1.1598
 2505TIP3   OH228929   0.587   5.240   4.543  0.1873 -0.0877 -0.0424
 2505TIP3    H128930   0.528   5.211   4.473 -0.2909  0.1295  0.2666
 2505TIP3    H228931   0.550   5.323   4.573  1.8154  1.1287 -1.2570
 2506TIP3   OH228932   1.142   1.751  17.133  0.0588 -0.3043  0.3496
 2506TIP3    H128933   1.078   1.796  17.077 -0.6217  2.6997  3.1943
 2506TIP3    H228934   1.098   1.671  17.161 -0.6883 -0.4398 -1.1336
 2507TIP3   OH228935   2.212   0.019  15.084  0.0038  0.0885  0.2111
 2507TIP3    H128936   2.299  -0.016  15.065  0.1527  1.1318 -1.1146
 2507TIP3    H228937   2.158  -0.007  15.010 -0.3188  1.1343  0.0660
 2508TIP3   OH228938   4.307   1.798  11.192  0.5299 -0.1935 -0.1742
 2508TIP3    H128939   4.238   1.743  11.155  0.2119 -0.3133  0.5778
 2508TIP3    H228940   4.333   1.752  11.273  0.9509  0.2457 -0.0588
 2509TIP3   OH228941   1.098   1.201   4.579 -0.1378  0.3250  0.5337
 2509TIP3    H128942   1.010   1.221   4.547  1.0702  2.6872 -1.7618
 2509TIP3    H228943   1.129   1.132   4.521 -0.0431  0.3723  0.5284
 2510TIP3   OH228944   6.486   1.592   1.518  0.0264 -0.1725  0.5887
 2510TIP3    H128945   6.445   1.672   1.552  1.3984  0.2993  1.1882
 2510TIP3    H228946   6.412   1.533   1.504 -0.9579  0.9582  0.7607
 2511TIP3   OH228947   1.417   3.015   5.007  0.3619  0.3409  0.6076
 2511TIP3    H128948   1.420   2.946   5.073 -0.3768 -0.2974 -0.0081
 2511TIP3    H228949   1.507   3.018   4.972  0.4422 -0.2103  0.7482
 2512TIP3   OH228950   1.099   4.966   4.802  0.1832 -0.7071  0.5984
 2512TIP3    H128951   1.156   4.923   4.738  0.8798  1.0682 -0.0287
 2512TIP3    H228952   1.010   4.941   4.775  0.4854 -0.3252 -0.8311
 2513TIP3   OH228953   1.990   3.737   3.185 -0.0306  0.9421 -0.2833
 2513TIP3    H128954   2.083   3.754   3.191  0.1905 -0.3627  0.4621
 2513TIP3    H228955   1.976   3.709   3.094  0.0943  2.1665 -0.6938
 2514TIP3   OH228956   3.654   5.293  16.056  0.0037  0.1809  0.4186
 2514TIP3    H128957   3.651   5.342  16.138 -0.4045 -0.0388  0.5355
 2514TIP3    H228958   3.573   5.241  16.056  0.6868 -0.9224  0.5570
 2515TIP3   OH228959   2.628   4.287  15.054  0.0637  0.4149  0.3789
 2515TIP3    H128960   2.657   4.210  15.103  0.1744 -0.7370 -1.3752
 2515TIP3    H228961   2.649   4.266  14.963 -3.3825  0.8550 -0.6701
 2516TIP3   OH228962   3.366   6.478  12.952 -0.4975 -0.3277  0.5699
 2516TIP3    H128963   3.355   6.468  12.857  1.7653 -0.1644  0.2284
 2516TIP3    H228964   3.295   6.536  12.979  0.0064  1.3249 -1.4119
 2517TIP3   OH228965   3.201   6.508   1.595 -0.5710  0.2104 -0.2757
 2517TIP3    H128966   3.172   6.428   1.639 -2.5133  0.8972 -0.2152
 2517TIP3    H228967   3.290   6.489   1.566  0.1205 -0.9346  2.3171
 2518TIP3   OH228968   3.951   4.297   1.269  0.4086  0.1663 -0.6241
 2518TIP3    H128969   3.970   4.239   1.343  2.4145  0.7691 -0.6290
 2518TIP3    H228970   4.012   4.271   1.201 -0.4252  0.6009 -1.5688
 2519TIP3   OH228971   1.777   3.056  15.580 -0.2748  0.1717  0.4672
 2519TIP3    H128972   1.737   3.125  15.527 -1.9102 -0.8054  0.3571
 2519TIP3    H228973   1.750   3.076  15.670  0.1900  0.2842  0.5878
 2520TIP3   OH228974   1.907   6.617  11.548 -0.1815 -0.1529 -0.4641
 2520TIP3    H128975   1.883   6.560  11.621 -0.8089  0.9800  0.2511
 2520TIP3    H228976   1.866   6.577  11.471 -0.3004 -0.8501 -0.0425
 2521TIP3   OH228977   6.513   0.992  12.945  0.0813  0.0463  0.3000
 2521TIP3    H128978   6.570   1.020  13.017  1.1826  1.7339 -1.1709
 2521TIP3    H228979   6.444   1.058  12.942  0.2851  0.2263 -0.4696
 2522TIP3   OH228980   6.268   3.029  12.985  0.3455 -0.2888  0.5939
 2522TIP3    H128981   6.215   3.045  13.063 -1.2299  0.8726 -0.6408
 2522TIP3    H228982   6.292   2.937  12.990 -1.9669 -0.9257  1.1527
 2523TIP3   OH228983   0.243   4.629  13.173  0.3291  0.1625  0.6703
 2523TIP3    H128984   0.203   4.669  13.096 -0.0158 -1.8066 -0.2279
 2523TIP3    H228985   0.335   4.615  13.148  0.3876  0.1613  0.8822
 2524TIP3   OH228986   3.488   5.969   4.533 -0.2284  0.3423 -0.3785
 2524TIP3    H128987   3.575   5.985   4.571  0.7391 -0.9539 -1.8962
 2524TIP3    H228988   3.446   5.909   4.594  0.0407  0.7780  0.2443
 2525TIP3   OH228989   5.786   4.191   0.654 -0.1882  0.2342  0.2133
 2525TIP3    H128990   5.802   4.226   0.566 -0.6417  1.8946  0.7409
 2525TIP3    H228991   5.874   4.177   0.690  0.0850 -3.0601 -1.3731
 2526TIP3   OH228992   3.268   6.672   0.469 -0.0473 -0.0587  0.3661
 2526TIP3    H128993   3.241   6.749   0.519  0.3211  0.0713  0.3679
 2526TIP3    H228994   3.359   6.658   0.494 -0.3047 -0.8975  0.8755
 2527TIP3   OH228995   5.334   0.803  15.881  0.0220  0.6417 -0.3510
 2527TIP3    H128996   5.359   0.740  15.949 -3.7557  0.9663  1.5972
 2527TIP3    H228997   5.361   0.763  15.799  3.0284 -0.6900  1.1491
 2528TIP3   OH228998   5.928   0.271   4.632 -0.3942 -0.4073  0.4607
 2528TIP3    H128999   5.954   0.360   4.659 -0.2693 -0.5168  0.7031
 2528TIP3    H229000   5.931   0.274   4.536 -0.8633 -0.0071  0.4523
 2529TIP3   OH229001   1.665   0.346   3.759  0.5000  0.5285  0.0375
 2529TIP3    H129002   1.676   0.315   3.849 -0.6909  1.2028  0.4424
 2529TIP3    H229003   1.584   0.305   3.730  1.2528 -0.2692 -1.0068
 2530TIP3   OH229004   2.053   0.650  13.813  0.1021 -0.0216 -0.7652
 2530TIP3    H129005   1.977   0.648  13.871  0.1935 -1.4215 -0.6697
 2530TIP3    H229006   2.114   0.710  13.856 -0.5174  0.2841 -0.2971
 2531TIP3   OH229007   2.977   2.548   6.627  0.5436 -0.9418  0.0391
 2531TIP3    H129008   3.047   2.609   6.649  0.4301 -0.3125 -1.2680
 2531TIP3    H229009   2.899   2.586   6.667  1.1730 -2.6388  3.2047
 2532TIP3   OH229010   3.156   5.001  15.842  0.0557 -0.2572  0.3848
 2532TIP3    H129011   3.127   4.925  15.791  1.2815 -0.3634 -0.1970
 2532TIP3    H229012   3.228   5.038  15.791 -0.2237  1.0407  0.8941
 2533TIP3   OH229013   2.613   1.055   3.257  0.0082  0.3401 -0.8609
 2533TIP3    H129014   2.637   1.057   3.350  1.8293 -1.7080 -1.2020
 2533TIP3    H229015   2.672   1.117   3.215  2.4522 -2.0194 -1.1822
 2534TIP3   OH229016   3.486   4.685   0.757 -0.3911 -0.1888 -0.2953
 2534TIP3    H129017   3.453   4.679   0.847  0.3833  0.7125  0.0682
 2534TIP3    H229018   3.521   4.774   0.751 -0.9878 -0.0318 -1.6876
 2535TIP3   OH229019   3.243   0.369  13.800 -0.4760 -0.1062 -0.2742
 2535TIP3    H129020   3.338   0.376  13.812 -0.6289 -0.0156  0.9530
 2535TIP3    H229021   3.228   0.276  13.784 -0.3256 -0.3888  1.0880
 2536TIP3   OH229022   0.445   3.328   5.240 -0.0399  0.3070 -0.2115
 2536TIP3    H129023   0.349   3.322   5.235 -0.0237  0.1503 -0.3407
 2536TIP3    H229024   0.462   3.421   5.257 -0.2455  0.2174  0.5346
 2537TIP3   OH229025   4.078   1.938   0.376  0.4143 -0.3179 -0.5806
 2537TIP3    H129026   4.034   1.905   0.298 -0.4859 -0.9756  0.1893
 2537TIP3    H229027   4.162   1.973   0.344 -0.3752  0.3636 -1.9779
 2538TIP3   OH229028   2.063   0.980   4.330 -0.1928  0.0151 -0.4634
 2538TIP3    H129029   2.126   0.915   4.360 -0.2720 -0.1936 -0.7413
 2538TIP3    H229030   2.046   1.034   4.407  2.1682  1.6229 -0.9803
 2539TIP3   OH229031   4.548   5.814  11.808  0.9406 -0.4980 -0.6480
 2539TIP3    H129032   4.574   5.792  11.897  2.2524  0.6538 -0.7092
 2539TIP3    H229033   4.463   5.857  11.818  1.4511  0.3770  0.1652
 2540TIP3   OH229034   3.689   1.734   0.262 -0.0115 -0.6446 -0.3600
 2540TIP3    H129035   3.674   1.643   0.239 -0.0044 -0.7529  0.0604
 2540TIP3    H229036   3.630   1.783   0.204  0.2972 -0.8820 -0.8880
 2541TIP3   OH229037   0.761   2.455  12.423 -0.0637  0.3636  0.2901
 2541TIP3    H129038   0.809   2.435  12.504  0.7056 -1.1001 -0.4892
 2541TIP3    H229039   0.794   2.541  12.396 -0.8990  1.2495  1.9027
 2542TIP3   OH229040   5.401   3.685   4.571 -0.3195 -0.0135 -0.4713
 2542TIP3    H129041   5.492   3.677   4.543 -0.7253 -2.0461 -1.3520
 2542TIP3    H229042   5.355   3.719   4.494 -0.5056 -0.2065 -0.4473
 2543TIP3   OH229043   3.131   2.313   0.313  0.6214  0.2010 -0.0885
 2543TIP3    H129044   3.048   2.267   0.301  0.9542 -0.5614  0.4525
 2543TIP3    H229045   3.168   2.320   0.226  0.3061 -0.0551 -0.2443
 2544TIP3   OH229046   2.960   5.749  14.751 -0.1809 -0.0133 -0.2149
 2544TIP3    H129047   2.907   5.669  14.746 -2.6330  1.4985 -0.3496
 2544TIP3    H229048   2.922   5.799  14.823  0.7542  1.3816 -0.6349
 2545TIP3   OH229049   5.325   1.448   6.024 -0.0129  0.2495 -0.0099
 2545TIP3    H129050   5.252   1.481   5.971 -0.0300  1.0926  0.5232
 2545TIP3    H229051   5.295   1.362   6.054 -1.3518  1.0950  1.2445
 2546TIP3   OH229052   4.403   0.605   3.085  0.0085 -0.4125 -0.2607
 2546TIP3    H129053   4.416   0.622   2.992 -0.2490  1.1231 -0.0347
 2546TIP3    H229054   4.341   0.672   3.114  1.7590  0.5803  1.4901
 2547TIP3   OH229055   1.501   0.785  11.261 -0.0117 -0.1170  0.0203
 2547TIP3    H129056   1.573   0.734  11.298 -1.2558 -2.0283 -0.0330
 2547TIP3    H229057   1.468   0.836  11.334  2.5264  2.3303 -0.3634
 2548TIP3   OH229058   3.695   3.754  10.844  0.0403  0.4206  0.2013
 2548TIP3    H129059   3.622   3.800  10.884 -0.4667  0.2644 -0.5437
 2548TIP3    H229060   3.735   3.818  10.785  0.1116  0.2964  0.1146
 2549TIP3   OH229061   0.374   6.444  15.468  0.1951  0.3732 -0.2295
 2549TIP3    H129062   0.420   6.515  15.425  2.1996 -0.8475 -0.2018
 2549TIP3    H229063   0.316   6.408  15.401  0.2879  1.0566 -0.6817
 2550TIP3   OH229064   2.211   5.532  10.416 -0.2403  0.4496 -0.0687
 2550TIP3    H129065   2.145   5.487  10.469  0.0195  0.3890  0.2033
 2550TIP3    H229066   2.160   5.591  10.360 -0.7858 -1.6298 -1.9141
 2551TIP3   OH229067   1.943   5.418  16.855 -0.1912  0.0505 -0.3545
 2551TIP3    H129068   1.875   5.391  16.916 -0.5891  0.8101 -0.4502
 2551TIP3    H229069   1.910   5.393  16.769 -0.2790  0.2664 -0.3859
 2552TIP3   OH229070   1.869   4.246   2.541  0.4244  0.1820 -0.0713
 2552TIP3    H129071   1.919   4.182   2.591 -1.3124 -0.8103  0.5005
 2552TIP3    H229072   1.865   4.324   2.597 -0.4461 -0.4902  0.8371
 2553TIP3   OH229073   1.301   3.979   1.529 -0.4219 -0.3779 -0.0436
 2553TIP3    H129074   1.296   3.901   1.474 -1.7128 -0.5233  0.2675
 2553TIP3    H229075   1.341   4.045   1.473  2.0866 -1.6158  0.1230
 2554TIP3   OH229076   6.117   5.640   6.530  0.8230  0.1453 -0.0199
 2554TIP3    H129077   6.146   5.590   6.606 -1.0619 -0.0356  0.6199
 2554TIP3    H229078   6.090   5.574   6.466  2.1703  0.3035 -0.7925
 2555TIP3   OH229079   6.548   1.283  12.091  0.1202 -0.2221  0.6216
 2555TIP3    H129080   6.472   1.270  12.147 -2.9550 -0.0711 -3.1391
 2555TIP3    H229081   6.611   1.328  12.147 -2.6402 -0.0047  3.8726
 2556TIP3   OH229082   1.798   1.230   3.804 -0.4369  0.1126 -0.0533
 2556TIP3    H129083   1.703   1.216   3.805 -0.6186  1.2183 -0.2970
 2556TIP3    H229084   1.817   1.262   3.716  0.4255 -1.6227 -0.5407
 2557TIP3   OH229085   6.660   1.246   4.662 -0.2051 -0.4403 -0.7008
 2557TIP3    H129086   6.695   1.158   4.672 -1.9840 -1.0556  0.8256
 2557TIP3    H229087   6.702   1.297   4.731  1.2897  0.1151 -1.9718
 2558TIP3   OH229088   5.771   3.834  14.422  0.5327  0.3165  0.3537
 2558TIP3    H129089   5.730   3.921  14.424  0.9021  0.5315 -0.8531
 2558TIP3    H229090   5.714   3.782  14.366  1.4478  0.4028 -0.7025
 2559TIP3   OH229091   4.906   6.386   2.387  0.5955 -0.1881 -0.0721
 2559TIP3    H129092   4.999   6.392   2.369  0.7788 -0.8350  0.6086
 2559TIP3    H229093   4.871   6.334   2.314  0.8350 -0.2981 -0.1099
 2560TIP3   OH229094   4.318   6.403   5.671 -0.0655  0.2080 -0.2215
 2560TIP3    H129095   4.383   6.473   5.667  0.4964 -0.0823  2.3282
 2560TIP3    H229096   4.362   6.328   5.630  0.5429  0.4932 -0.1026
 2561TIP3   OH229097   2.297   5.029  12.817  0.7941 -0.4032  0.6042
 2561TIP3    H129098   2.222   5.016  12.874 -0.1663 -0.2406 -0.5969
 2561TIP3    H229099   2.366   4.973  12.854  0.1386 -0.4520  1.7882
 2562TIP3   OH229100   0.412   4.566  11.330 -0.4186 -0.0709 -0.3745
 2562TIP3    H129101   0.452   4.643  11.288 -2.7191  0.6038 -1.4989
 2562TIP3    H229102   0.416   4.498  11.263 -2.7433  0.5657 -1.2499
 2563TIP3   OH229103   4.823   2.080   3.791 -0.0204 -0.5507  0.2458
 2563TIP3    H129104   4.803   2.052   3.702 -1.0937 -0.0121  0.3027
 2563TIP3    H229105   4.738   2.088   3.834  0.4160  0.2106  1.0064
 2564TIP3   OH229106   3.221   1.871  16.768  0.3713  0.2453 -0.2493
 2564TIP3    H129107   3.185   1.915  16.691 -0.0940  1.2154  0.5077
 2564TIP3    H229108   3.289   1.930  16.801 -0.6501  0.7149  1.1090
 2565TIP3   OH229109   3.669   0.027   4.416  0.1576 -0.5845 -0.2384
 2565TIP3    H129110   3.701   0.067   4.335 -0.2076  0.1649 -0.0236
 2565TIP3    H229111   3.701  -0.062   4.413  2.0332  0.0511 -0.1611
 2566TIP3   OH229112   2.730   1.770   4.517 -0.0371 -0.1377 -0.0946
 2566TIP3    H129113   2.670   1.731   4.453  0.1310  0.4583 -0.6235
 2566TIP3    H229114   2.789   1.699   4.540  0.0068 -0.3171 -0.7362
 2567TIP3   OH229115   1.782   5.858  12.044 -0.5898  0.0822  0.0491
 2567TIP3    H129116   1.731   5.860  11.963 -0.2999  0.8900 -0.1216
 2567TIP3    H229117   1.836   5.780  12.036 -2.3255 -1.2400  0.5813
 2568TIP3   OH229118   2.224   3.398   2.798  0.2668 -0.1515 -0.6560
 2568TIP3    H129119   2.197   3.439   2.716 -1.1362  0.5750  0.1409
 2568TIP3    H229120   2.211   3.305   2.784 -0.0472 -0.0232 -1.2345
 2569TIP3   OH229121   5.095   5.280  11.515  0.2004  0.6334  0.4932
 2569TIP3    H129122   5.121   5.215  11.581  1.1059  1.4154  0.9333
 2569TIP3    H229123   5.040   5.231  11.454 -2.4693  0.3124  2.9215
 2570TIP3   OH229124   5.785   4.889  12.984  0.2452  0.0523 -0.3640
 2570TIP3    H129125   5.815   4.966  12.936  0.9412  0.0093 -0.0071
 2570TIP3    H229126   5.742   4.834  12.917  1.6861 -0.2670 -1.0648
 2571TIP3   OH229127   1.355   0.754  15.955  0.1563  0.2335  0.0844
 2571TIP3    H129128   1.264   0.731  15.934  0.2253  0.0804 -0.0501
 2571TIP3    H229129   1.348   0.838  16.000 -0.0525  0.2227  0.0777
 2572TIP3   OH229130   2.665   2.947  15.874  0.1889 -0.2589 -0.2931
 2572TIP3    H129131   2.637   2.859  15.851  0.0105 -0.3062  0.0891
 2572TIP3    H229132   2.739   2.934  15.934 -1.3520 -0.2238  1.7408
 2573TIP3   OH229133   4.521   3.672  15.663  0.5016 -0.3674  0.0002
 2573TIP3    H129134   4.473   3.710  15.736 -1.2502 -0.6878 -0.9406
 2573TIP3    H229135   4.530   3.743  15.600  0.0827 -0.6561 -0.3880
 2574TIP3   OH229136   2.534   1.929   2.955  0.4430  0.4544  0.2761
 2574TIP3    H129137   2.514   1.864   3.023  1.4701  0.3241  0.4741
 2574TIP3    H229138   2.453   1.936   2.904 -0.1153  0.0150  1.0646
 2575TIP3   OH229139   1.107   5.869  11.351 -0.5131 -0.4359 -0.0340
 2575TIP3    H129140   1.149   5.822  11.279 -0.6915 -0.9931  0.2247
 2575TIP3    H229141   1.033   5.814  11.376 -1.6750  0.7076 -0.7561
 2576TIP3   OH229142   0.918   1.765   2.171  0.4892 -0.8238  0.0840
 2576TIP3    H129143   0.854   1.781   2.102 -0.9233 -2.2876  0.9792
 2576TIP3    H229144   0.939   1.851   2.206  0.3687 -0.1718 -1.3860
 2577TIP3   OH229145   5.328   2.058  10.989 -0.2316 -0.0695 -0.2280
 2577TIP3    H129146   5.347   1.971  10.954 -0.3487 -0.7904  1.4080
 2577TIP3    H229147   5.407   2.109  10.971 -0.9123  0.1566 -3.0406
 2578TIP3   OH229148   1.795   0.411   2.894 -0.4208 -0.2332  0.5099
 2578TIP3    H129149   1.842   0.334   2.860  1.8728  1.1611  0.2815
 2578TIP3    H229150   1.796   0.399   2.989 -0.4519 -0.6844  0.4579
 2579TIP3   OH229151   1.808   0.026  11.317 -0.2454 -0.5996  0.7187
 2579TIP3    H129152   1.719  -0.006  11.332 -1.0794  2.1012  2.2226
 2579TIP3    H229153   1.864  -0.051  11.329 -2.2037 -1.8933  2.1425
 2580TIP3   OH229154   0.646   3.040  14.021 -0.3254  0.6682 -0.2294
 2580TIP3    H129155   0.613   3.036  14.111  1.4620  3.6288  0.7055
 2580TIP3    H229156   0.571   3.070  13.970 -1.0438  0.1098  0.4623
 2581TIP3   OH229157   0.059   5.796   4.603 -0.1757 -0.2383 -0.0905
 2581TIP3    H129158   0.143   5.839   4.584 -1.0380  0.5460 -2.5409
 2581TIP3    H229159   0.004   5.818   4.528 -2.3230 -1.4408  1.0510
 2582TIP3   OH229160   6.013   4.799   4.802  0.4061  0.3222  0.0621
 2582TIP3    H129161   6.107   4.785   4.791  0.3220  0.5234 -1.0736
 2582TIP3    H229162   5.999   4.795   4.896  1.6326  0.7523  0.2890
 2583TIP3   OH229163   1.869   0.026  11.919  0.0041  0.1069 -0.0286
 2583TIP3    H129164   1.864   0.107  11.969 -0.0531  1.1859 -1.7163
 2583TIP3    H229165   1.795  -0.026  11.950  0.2214  0.5373  1.2881
 2584TIP3   OH229166   0.980   2.246  12.188  0.1033 -0.0825  0.1580
 2584TIP3    H129167   0.987   2.162  12.234  1.7603 -0.5859 -0.9528
 2584TIP3    H229168   1.023   2.308  12.246  1.8049 -0.6379 -0.4392
 2585TIP3   OH229169   2.597   3.498   5.277 -0.7186  0.3168 -0.1632
 2585TIP3    H129170   2.594   3.508   5.182 -1.4819  0.6503 -0.1131
 2585TIP3    H229171   2.554   3.414   5.294  0.5026 -0.3350 -0.1846
 2586TIP3   OH229172   2.327   4.903   1.800  0.0347 -0.3419 -0.1478
 2586TIP3    H129173   2.400   4.901   1.862 -0.2195  0.5324  0.2013
 2586TIP3    H229174   2.308   4.996   1.789 -0.4519 -0.5274 -0.9217
 2587TIP3   OH229175   5.324   3.149  12.988 -0.3306  0.4010 -0.5543
 2587TIP3    H129176   5.275   3.068  12.998 -0.2969  0.3664 -0.6687
 2587TIP3    H229177   5.335   3.160  12.894  1.1451 -0.3696 -0.5103
 2588TIP3   OH229178   0.446   3.994   5.106 -0.8880  0.4618 -0.3349
 2588TIP3    H129179   0.414   4.041   5.029 -3.2393  0.7025  0.6899
 2588TIP3    H229180   0.432   4.056   5.178  1.1278  0.1895  0.3377
 2589TIP3   OH229181   6.472   0.433  16.150  0.2283 -0.6361 -0.1673
 2589TIP3    H129182   6.398   0.444  16.091  0.4702 -1.6336 -0.6807
 2589TIP3    H229183   6.515   0.353  16.120 -0.9767 -2.5154  2.7402
 2590TIP3   OH229184   2.985   0.661  16.061 -0.0989 -0.0089  0.2502
 2590TIP3    H129185   3.006   0.680  15.970  1.2785  2.3477  0.9555
 2590TIP3    H229186   3.045   0.590  16.085  0.4873  0.2757 -0.3393
 2591TIP3   OH229187   5.775   2.605   4.664 -0.1749  0.0162  0.3008
 2591TIP3    H129188   5.691   2.648   4.679 -0.3683 -0.4940  0.6910
 2591TIP3    H229189   5.828   2.628   4.741 -0.2707 -0.4224  0.4978
 2592TIP3   OH229190   5.646   5.674  14.062 -0.2936  0.2263 -0.2523
 2592TIP3    H129191   5.688   5.612  14.002  1.0914  0.0251  0.8799
 2592TIP3    H229192   5.704   5.677  14.138 -2.7176 -0.6810  1.7953
 2593TIP3   OH229193   1.725   5.786   2.737  0.2048  0.4037 -0.4050
 2593TIP3    H129194   1.660   5.838   2.690  0.4455  0.2894 -0.8696
 2593TIP3    H229195   1.766   5.732   2.670  1.5826  1.3007 -0.3181
 2594TIP3   OH229196   2.855   2.307  11.352 -0.0085 -0.1911 -0.0979
 2594TIP3    H129197   2.770   2.263  11.350 -0.3791  0.5177 -1.5294
 2594TIP3    H229198   2.858   2.356  11.269  0.9649  1.3423  0.7945
 2595TIP3   OH229199   2.784   0.383  10.885  0.2009  0.5617 -0.1037
 2595TIP3    H129200   2.865   0.347  10.848 -0.0756  0.1167 -0.2922
 2595TIP3    H229201   2.737   0.419  10.810 -0.4844 -0.5823 -0.2629
 2596TIP3   OH229202   5.556   5.717  13.594  0.7357  0.2265 -0.4684
 2596TIP3    H129203   5.621   5.693  13.528 -0.1298 -0.7455 -0.9965
 2596TIP3    H229204   5.501   5.782  13.550 -0.0240 -0.6418 -0.8413
 2597TIP3   OH229205   2.143   4.110  13.574  0.7549  0.3812  0.3829
 2597TIP3    H129206   2.221   4.147  13.534  0.6001  0.9991  0.6495
 2597TIP3    H229207   2.148   4.138  13.666  2.4087 -2.9950  1.5124
 2598TIP3   OH229208   1.840   3.391   2.574 -0.0531 -0.0681 -0.2387
 2598TIP3    H129209   1.835   3.472   2.625 -1.2818  0.1699 -0.7001
 2598TIP3    H229210   1.792   3.410   2.494  1.0489 -0.7434 -1.0895
 2599TIP3   OH229211   6.419   3.363  12.811 -0.3132  0.1749  0.2865
 2599TIP3    H129212   6.489   3.311  12.772 -0.9381 -0.9965  0.6670
 2599TIP3    H229213   6.432   3.451  12.778  0.9437 -0.1702 -0.1685
 2600TIP3   OH229214   1.263   6.499  15.831 -0.6581  0.3370 -0.1688
 2600TIP3    H129215   1.267   6.573  15.770  0.1371  0.4739  0.0382
 2600TIP3    H229216   1.334   6.441  15.803 -2.1642 -1.0778 -1.2259
 2601TIP3   OH229217   2.631   4.131   3.444 -0.5890  0.0498 -0.5464
 2601TIP3    H129218   2.664   4.219   3.466 -0.6604 -0.0211 -0.1335
 2601TIP3    H229219   2.583   4.104   3.522  2.4105 -1.8033  0.8491
 2602TIP3   OH229220   0.950   2.350   3.977 -0.3379 -0.2750  0.0828
 2602TIP3    H129221   0.889   2.373   3.907 -0.5412 -1.0629 -0.0062
 2602TIP3    H229222   1.029   2.321   3.931 -0.5811 -1.0897  0.1680
 2603TIP3   OH229223   0.890   6.605  12.532  0.3271 -0.1161  0.1618
 2603TIP3    H129224   0.911   6.635  12.443  2.5630 -1.4028  0.1638
 2603TIP3    H229225   0.910   6.680  12.588 -4.0058  1.8318 -0.4771
 2604TIP3   OH229226   6.246   3.828  15.899 -0.5207 -0.2300  0.4943
 2604TIP3    H129227   6.337   3.815  15.928  0.7704  0.9508 -2.5241
 2604TIP3    H229228   6.253   3.895  15.831 -3.6302 -0.3969 -0.1080
 2605TIP3   OH229229   0.583   0.981  14.646 -0.8716  0.4422 -0.5373
 2605TIP3    H129230   0.577   1.076  14.639 -1.1457  0.4016 -0.8381
 2605TIP3    H229231   0.533   0.947  14.572  0.0762  0.0743 -1.0308
 2606TIP3   OH229232   4.728   1.399  12.443  0.4340  0.4190  0.1326
 2606TIP3    H129233   4.703   1.455  12.516  0.0774  0.9085 -0.3559
 2606TIP3    H229234   4.738   1.312  12.482  0.3072  0.6838  0.7696
 2607TIP3   OH229235   3.128   3.626  13.989  0.2405 -0.1943  0.0978
 2607TIP3    H129236   3.194   3.568  14.027 -0.2567  0.2171  1.6510
 2607TIP3    H229237   3.178   3.696  13.949  0.8002 -0.9611 -0.5800
 2608TIP3   OH229238   4.647   4.477  11.352 -0.9095 -0.5007 -0.2516
 2608TIP3    H129239   4.646   4.383  11.339 -0.7426 -0.4946 -0.3044
 2608TIP3    H229240   4.555   4.499  11.371 -1.0096 -0.6218 -0.5946
 2609TIP3   OH229241   2.573   0.761  12.279  0.0040 -0.0178 -0.3123
 2609TIP3    H129242   2.612   0.676  12.257 -0.2142 -0.6129  1.4986
 2609TIP3    H229243   2.595   0.775  12.371 -0.9072  1.3808 -0.2763
 2610TIP3   OH229244   1.150   2.363  11.258 -0.2837  0.3915  0.1505
 2610TIP3    H129245   1.064   2.344  11.297  0.0803 -0.5553  0.5141
 2610TIP3    H229246   1.133   2.367  11.164 -0.5851 -0.6435  0.1536
 2611TIP3   OH229247   2.206   5.305  14.845 -0.3158 -0.5791 -0.1698
 2611TIP3    H129248   2.207   5.390  14.891 -0.1111 -0.1631 -0.9361
 2611TIP3    H229249   2.296   5.273  14.852 -0.7245 -1.5102  1.5040
 2612TIP3   OH229250   4.075   1.726  16.973  0.4352 -0.0518  0.0853
 2612TIP3    H129251   4.090   1.770  16.889  1.3898 -0.2489  0.1328
 2612TIP3    H229252   4.149   1.755  17.027 -0.6437  0.7785  1.1589
 2613TIP3   OH229253   3.594   6.243   5.898 -0.1030  0.1651  0.1602
 2613TIP3    H129254   3.674   6.295   5.902 -0.6158  0.9652  0.3079
 2613TIP3    H229255   3.621   6.154   5.921  0.8887  0.2496 -0.6168
 2614TIP3   OH229256   5.252   5.521  12.356 -0.0551  0.2941  0.0879
 2614TIP3    H129257   5.297   5.527  12.440  0.1668  0.3871 -0.0361
 2614TIP3    H229258   5.250   5.427  12.337  2.4382  0.4229 -1.1482
 2615TIP3   OH229259   6.474   4.333   5.114  0.1605  0.5855  0.4421
 2615TIP3    H129260   6.531   4.315   5.188 -0.6898  0.2702  1.0428
 2615TIP3    H229261   6.515   4.290   5.039 -0.3227 -1.3861  1.2602
 2616TIP3   OH229262   3.000   2.764  16.899  0.8638  0.1612 -0.5778
 2616TIP3    H129263   3.020   2.772  16.992 -0.3309  0.5282 -0.3342
 2616TIP3    H229264   3.001   2.854  16.866  0.1175  0.1508 -0.6507
 2617TIP3   OH229265   1.648   1.103   5.385 -0.1338  0.2760  0.4840
 2617TIP3    H129266   1.695   1.187   5.379  0.2294 -0.0255 -1.8208
 2617TIP3    H229267   1.710   1.045   5.429  0.8462  0.4379 -0.6423
 2618TIP3   OH229268   6.478   1.958   0.550  0.3493 -0.1699  0.0245
 2618TIP3    H129269   6.445   1.905   0.477  0.5544  0.9356 -0.9047
 2618TIP3    H229270   6.494   1.895   0.620 -0.3434 -1.1988 -0.7083
 2619TIP3   OH229271   6.183   5.000  11.740  0.0231 -0.2861 -0.0202
 2619TIP3    H129272   6.192   5.092  11.764 -0.1923  0.0495 -1.1753
 2619TIP3    H229273   6.239   4.953  11.803  1.6843  0.7980 -0.6384
 2620TIP3   OH229274   6.156   5.444   4.831  0.6315 -0.3320 -0.8111
 2620TIP3    H129275   6.199   5.386   4.894  1.2779  1.5560  0.5938
 2620TIP3    H229276   6.115   5.512   4.885  0.1288  0.6733 -2.3688
 2621TIP3   OH229277   6.660   2.264   2.237  0.2170 -0.9549 -0.0557
 2621TIP3    H129278   6.604   2.300   2.169  1.8633  0.1771 -0.8976
 2621TIP3    H229279   6.605   2.203   2.285 -1.7446  0.2041 -0.7326
 2622TIP3   OH229280   4.665   0.935  12.662  0.8480 -0.0895  0.0547
 2622TIP3    H129281   4.644   0.903  12.750  0.6426 -0.9556 -0.2934
 2622TIP3    H229282   4.587   0.915  12.610  1.3278 -0.4658 -0.5414
 2623TIP3   OH229283   3.186   3.967   2.254  0.1222  0.1052 -0.1200
 2623TIP3    H129284   3.238   4.038   2.291 -1.0647  0.1308  1.6509
 2623TIP3    H229285   3.097   3.985   2.284 -0.2601 -1.9400  0.1246
 2624TIP3   OH229286   5.674   6.710  15.479 -0.3039 -0.5427 -0.3032
 2624TIP3    H129287   5.764   6.701  15.449 -0.2403  1.3624 -0.8032
 2624TIP3    H229288   5.666   6.801  15.507 -2.1262 -0.6035 -0.4571
 2625TIP3   OH229289   1.495   1.773  14.720  0.1118 -0.4487 -0.0155
 2625TIP3    H129290   1.469   1.827  14.794  1.0685 -0.7565  0.5668
 2625TIP3    H229291   1.551   1.830  14.667 -0.7581 -0.1564 -0.6364
 2626TIP3   OH229292   0.549   4.479  16.769 -0.1023  0.4074  0.1734
 2626TIP3    H129293   0.505   4.440  16.694 -1.4656  0.0615  1.1243
 2626TIP3    H229294   0.566   4.405  16.828 -1.0647  0.9730  1.1857
 2627TIP3   OH229295   0.600   0.717   4.879 -0.2016 -0.3255  0.1107
 2627TIP3    H129296   0.676   0.773   4.860 -0.9292  0.6650  0.0679
 2627TIP3    H229297   0.562   0.699   4.793 -0.9532  0.5298  0.2540
 2628TIP3   OH229298   4.978   4.084   2.932 -0.5093  0.1201  0.3659
 2628TIP3    H129299   5.070   4.059   2.922 -0.2630  1.1385 -0.1291
 2628TIP3    H229300   4.978   4.148   3.003 -0.1643  3.1342 -2.1308
 2629TIP3   OH229301   0.185   1.432  13.991  0.5158  0.1462 -0.5568
 2629TIP3    H129302   0.227   1.346  13.991 -0.0992 -0.1642  0.2095
 2629TIP3    H229303   0.248   1.489  14.035  0.0175 -0.3965  0.9340
 2630TIP3   OH229304   2.080   1.795   2.896 -0.1866 -0.1256  0.6754
 2630TIP3    H129305   2.078   1.726   2.962  1.1717 -0.4713  0.3849
 2630TIP3    H229306   2.042   1.755   2.818 -1.3642  0.1403  1.0882
 2631TIP3   OH229307   6.359   3.291   0.020  0.1857 -0.3633  0.4146
 2631TIP3    H129308   6.374   3.205   0.059  0.4598 -0.9897 -0.9971
 2631TIP3    H229309   6.264   3.296   0.009  0.2710 -1.1772 -0.9207
 2632TIP3   OH229310   0.246   3.108   1.569 -0.1921  0.5418 -0.3169
 2632TIP3    H129311   0.257   3.186   1.624 -0.4094  1.0525 -0.9917
 2632TIP3    H229312   0.271   3.136   1.481 -0.0494 -0.2145 -0.5264
 2633TIP3   OH229313   3.572   0.772  12.266  0.3968 -0.5733 -0.1127
 2633TIP3    H129314   3.562   0.752  12.359  0.1801  0.5908  0.1305
 2633TIP3    H229315   3.562   0.687  12.222 -0.0456 -1.0532  0.8809
 2634TIP3   OH229316   0.339   1.305   6.409  0.0763 -0.4404  0.2617
 2634TIP3    H129317   0.344   1.229   6.468  1.6422 -0.1932  0.4940
 2634TIP3    H229318   0.366   1.379   6.463 -0.7403  0.1761 -0.1580
 2635TIP3   OH229319   5.756   5.766   2.731 -0.0405  0.1959 -0.4210
 2635TIP3    H129320   5.770   5.740   2.822 -0.5104  1.0701 -0.0887
 2635TIP3    H229321   5.692   5.703   2.698 -0.0058 -0.0114 -0.0960
 2636TIP3   OH229322   0.335   4.075   4.841  0.4748 -0.4485 -0.5136
 2636TIP3    H129323   0.288   4.000   4.876  0.9935  0.1616  1.6337
 2636TIP3    H229324   0.268   4.126   4.795 -0.4549 -0.8493  0.3614
 2637TIP3   OH229325   2.171   1.435  14.545 -1.0523  0.2664 -0.1237
 2637TIP3    H129326   2.090   1.398  14.509 -0.9974  0.2315 -0.2102
 2637TIP3    H229327   2.231   1.439  14.471 -1.5841  2.0471 -0.5104
 2638TIP3   OH229328   3.650   4.761  12.324  0.9604 -0.1317  0.5096
 2638TIP3    H129329   3.609   4.680  12.295 -0.1459  0.6502 -0.2023
 2638TIP3    H229330   3.716   4.780  12.257  1.9673 -0.9508  1.2208
 2639TIP3   OH229331   3.548   6.025  10.880  0.3088 -0.1883 -0.1344
 2639TIP3    H129332   3.481   5.957  10.891  0.0099  0.0737 -0.2979
 2639TIP3    H229333   3.619   5.981  10.834 -0.1581 -0.2244 -0.8427
 2640TIP3   OH229334   2.578   6.788  16.336  0.1791  0.2791  0.2958
 2640TIP3    H129335   2.553   6.826  16.421  0.0941  0.1748  0.3177
 2640TIP3    H229336   2.526   6.708  16.330  1.3365 -0.5402  0.8505
 2641TIP3   OH229337   3.659   2.001  12.872 -0.0419  0.4921 -0.3816
 2641TIP3    H129338   3.675   2.020  12.964  0.8447 -1.4751 -0.0816
 2641TIP3    H229339   3.599   1.927  12.873  0.4756  0.0392 -1.3522
 2642TIP3   OH229340   2.534   1.454   0.519 -0.3202 -0.3861 -0.6660
 2642TIP3    H129341   2.520   1.514   0.445 -0.9227 -0.1092 -0.3299
 2642TIP3    H229342   2.602   1.496   0.571 -2.0143  0.9724  0.5653
 2643TIP3   OH229343   4.656   4.767  10.998  0.4143  0.1836 -0.6768
 2643TIP3    H129344   4.734   4.712  11.004  1.3553  1.2286 -2.4596
 2643TIP3    H229345   4.619   4.765  11.086  2.2704 -0.5843  0.1493
 2644TIP3   OH229346   5.752   5.829  15.317 -0.2507  0.7189  0.0321
 2644TIP3    H129347   5.768   5.806  15.225 -0.2058  0.6230  0.0650
 2644TIP3    H229348   5.782   5.754  15.367 -1.3300  0.2870  0.0612
 2645TIP3   OH229349   3.462   0.848  14.714 -0.2444 -0.1955  0.1341
 2645TIP3    H129350   3.529   0.915  14.714 -1.2398  0.8865  1.7120
 2645TIP3    H229351   3.482   0.794  14.791 -0.3059 -0.8041 -0.2696
 2646TIP3   OH229352   6.231   4.063   3.593 -0.3038 -0.0216 -0.3193
 2646TIP3    H129353   6.260   4.051   3.684  1.4282  1.5509 -0.6001
 2646TIP3    H229354   6.146   4.106   3.601  0.1882  0.8297  0.5741
 2647TIP3   OH229355   0.803   5.863   3.055 -0.1046 -0.2477 -0.7602
 2647TIP3    H129356   0.866   5.900   2.994 -0.0037 -2.1284 -1.8683
 2647TIP3    H229357   0.728   5.839   3.000 -0.1330 -1.6963 -0.1130
 2648TIP3   OH229358   4.649   3.938   2.257 -0.2249  0.2887  0.0780
 2648TIP3    H129359   4.555   3.942   2.279  0.1270 -0.2623  1.8903
 2648TIP3    H229360   4.662   3.847   2.229 -0.0461  0.0273  0.9554
 2649TIP3   OH229361   1.852   3.988  15.878  0.1767  0.1105 -0.1510
 2649TIP3    H129362   1.893   3.903  15.895  0.2781  0.3473  0.9162
 2649TIP3    H229363   1.923   4.052  15.887 -0.2864  0.4842  1.2812
 2650TIP3   OH229364   3.084   3.875   1.573  0.3844  0.3445  0.1432
 2650TIP3    H129365   3.175   3.886   1.545 -0.3074  0.1880 -2.4278
 2650TIP3    H229366   3.051   3.803   1.520 -1.2765  0.4732  0.9443
 2651TIP3   OH229367   5.327   0.310   5.980  0.1569  0.1370 -0.1969
 2651TIP3    H129368   5.294   0.388   5.935 -1.6861 -0.9111 -0.7686
 2651TIP3    H229369   5.274   0.304   6.060 -0.4380 -1.0631 -0.6568
 2652TIP3   OH229370   2.813   0.632  11.043  0.5943 -0.6501 -0.7189
 2652TIP3    H129371   2.831   0.576  10.967 -1.4178 -2.8325  0.3065
 2652TIP3    H229372   2.870   0.599  11.112 -0.2599 -1.1572 -0.2406
 2653TIP3   OH229373   0.251   1.685  14.188  0.3156  0.2411  0.3892
 2653TIP3    H129374   0.296   1.615  14.235 -1.7990  0.8388  3.5655
 2653TIP3    H229375   0.299   1.764  14.212 -0.0453  0.4145  0.5371
 2654TIP3   OH229376   3.672   1.856   5.619  0.1806  0.3152 -0.1253
 2654TIP3    H129377   3.655   1.770   5.658  0.8476  0.8252  1.3317
 2654TIP3    H229378   3.754   1.884   5.657  0.4060  1.2519 -1.2436
 2655TIP3   OH229379   1.274   5.347  12.865  0.2008  0.3230  0.0984
 2655TIP3    H129380   1.206   5.402  12.906 -0.8285 -0.8844  0.0782
 2655TIP3    H229381   1.290   5.277  12.928  1.6306  0.7137  0.2021
 2656TIP3   OH229382   3.091   0.517   6.281 -0.1218  0.4179  0.1027
 2656TIP3    H129383   3.068   0.473   6.363  0.2812 -0.0055 -0.0071
 2656TIP3    H229384   3.185   0.502   6.272 -0.2054  0.2684 -0.5541
 2657TIP3   OH229385   0.786   0.454  15.148  0.1618  0.2643 -0.5134
 2657TIP3    H129386   0.801   0.536  15.100 -1.2534 -0.0649 -1.6029
 2657TIP3    H229387   0.701   0.466  15.190 -0.7315 -1.1277 -1.8224
 2658TIP3   OH229388   3.429   3.522   0.870 -0.2186 -0.3570  0.0330
 2658TIP3    H129389   3.343   3.564   0.865  0.2725  0.6544 -0.1700
 2658TIP3    H229390   3.416   3.436   0.829 -0.8905  0.1924 -0.9333
 2659TIP3   OH229391   2.180   0.933   4.068 -0.0623  0.2605  0.2029
 2659TIP3    H129392   2.134   0.985   4.002 -0.8783  0.0884  0.6146
 2659TIP3    H229393   2.180   0.988   4.146  0.3942  0.2338  0.2249
 2660TIP3   OH229394   3.184   5.942   3.285  0.0482 -0.0575  0.4452
 2660TIP3    H129395   3.103   5.935   3.233  0.2695 -0.6568  0.1684
 2660TIP3    H229396   3.242   5.875   3.248  0.2249 -0.4808  1.4517
 2661TIP3   OH229397   1.152   6.769   0.895 -0.6608  0.1877 -0.4414
 2661TIP3    H129398   1.177   6.855   0.929 -0.8311  0.5727 -1.2612
 2661TIP3    H229399   1.221   6.710   0.924  0.4225  0.9428 -1.3974
 2662TIP3   OH229400   1.458   4.146   1.362  0.1989  0.2922 -0.0627
 2662TIP3    H129401   1.533   4.118   1.415  0.4339  0.9170 -0.0647
 2662TIP3    H229402   1.460   4.088   1.285  0.3773 -0.0296  0.1839
 2663TIP3   OH229403   2.230   6.648   4.581 -0.0535  0.6158 -0.3240
 2663TIP3    H129404   2.323   6.661   4.563 -0.3561  1.4586 -1.3975
 2663TIP3    H229405   2.204   6.579   4.521  0.6044 -2.2388  2.4194
 2664TIP3   OH229406   4.543   0.413   0.553  0.3353 -0.5532 -0.1035
 2664TIP3    H129407   4.577   0.498   0.582  0.9161 -0.3654 -1.2675
 2664TIP3    H229408   4.620   0.356   0.550  0.2593 -0.6353 -0.9614
 2665TIP3   OH229409   1.422   4.829  16.285  0.0854 -0.1051 -0.1604
 2665TIP3    H129410   1.386   4.918  16.295 -1.4391 -0.7402  0.2410
 2665TIP3    H229411   1.483   4.837  16.212 -1.4543  0.9066 -1.4313
 2666TIP3   OH229412   0.295   1.846  13.046 -0.6139 -0.1563 -0.1501
 2666TIP3    H129413   0.219   1.791  13.067 -0.7893 -0.0595 -0.5321
 2666TIP3    H229414   0.259   1.924  13.005 -0.3384  0.1008  0.0866
 2667TIP3   OH229415   0.172   6.477  16.602  0.5989  0.1412  0.3212
 2667TIP3    H129416   0.175   6.406  16.538 -3.0598 -1.1784  1.3238
 2667TIP3    H229417   0.232   6.543  16.568  1.8349 -2.1079 -2.3092
 2668TIP3   OH229418   4.644   2.317  11.991  0.2683 -0.1819 -0.3693
 2668TIP3    H129419   4.644   2.371  12.069 -1.4626 -0.7708  0.0852
 2668TIP3    H229420   4.637   2.379  11.918 -0.1668  0.2817  0.0616
 2669TIP3   OH229421   6.059   4.117  12.977  0.2907 -0.2056  0.1472
 2669TIP3    H129422   6.051   4.090  13.069  2.4750  1.1121  0.8102
 2669TIP3    H229423   5.993   4.185  12.967  0.6334  0.2831  1.0469
 2670TIP3   OH229424   0.379   5.878  16.723  0.0905 -0.6537  0.1268
 2670TIP3    H129425   0.339   5.951  16.676  1.7922  0.7018  0.6494
 2670TIP3    H229426   0.416   5.918  16.802  0.4178 -2.2355  0.8129
 2671TIP3   OH229427   1.415   6.199   2.229  0.1881 -0.6798  0.3153
 2671TIP3    H129428   1.348   6.174   2.165  0.8458 -0.0847 -0.6310
 2671TIP3    H229429   1.367   6.206   2.311 -0.7336 -1.1882 -0.1544
 2672TIP3   OH229430   1.619   4.333   2.185 -0.2956  0.3031  0.4487
 2672TIP3    H129431   1.532   4.362   2.210  0.4392  1.9519  1.2715
 2672TIP3    H229432   1.629   4.364   2.095  0.5616  3.0157  1.3886
 2673TIP3   OH229433   2.690   5.778   5.532  0.1045 -0.1975  0.3265
 2673TIP3    H129434   2.769   5.816   5.495  0.3923 -0.9086  0.1868
 2673TIP3    H229435   2.650   5.849   5.584  1.2866 -0.0828  1.1092
 2674TIP3   OH229436   1.380   5.881  14.544  0.3280  0.7139  0.7865
 2674TIP3    H129437   1.451   5.817  14.530 -0.6965 -0.6773  1.7452
 2674TIP3    H229438   1.342   5.893  14.457  1.0724  0.6683  0.4461
 2675TIP3   OH229439   5.091   4.435  15.340 -0.0682 -0.7338 -0.3456
 2675TIP3    H129440   5.009   4.418  15.386 -0.2626 -0.7474 -0.6961
 2675TIP3    H229441   5.074   4.513  15.288  0.9078  0.8062  1.5035
 2676TIP3   OH229442   3.049   1.453  16.400 -0.5264  0.0555 -0.3780
 2676TIP3    H129443   3.141   1.454  16.427 -0.2800 -1.6137 -1.0368
 2676TIP3    H229444   3.006   1.400  16.466 -1.2032  1.4476  0.3483
 2677TIP3   OH229445   0.540   1.589   1.033  0.4035 -0.3522  0.0138
 2677TIP3    H129446   0.591   1.638   0.969 -1.9766  1.4001 -0.6625
 2677TIP3    H229447   0.531   1.648   1.108  0.5890 -1.2073  0.7286
 2678TIP3   OH229448   2.474   4.759  10.300 -0.5189 -0.1515 -0.4590
 2678TIP3    H129449   2.512   4.816  10.233  0.4726 -1.0244 -0.6565
 2678TIP3    H229450   2.518   4.785  10.381 -0.3579 -0.3576 -0.4795
 2679TIP3   OH229451   2.349   5.591  13.120 -0.1409  0.3929 -0.5742
 2679TIP3    H129452   2.303   5.668  13.088 -4.1068 -2.1682 -1.8083
 2679TIP3    H229453   2.378   5.546  13.041 -1.9829 -1.5293 -0.2383
 2680TIP3   OH229454   2.201   6.795  13.727 -1.0313  0.3056 -0.2356
 2680TIP3    H129455   2.234   6.834  13.808 -3.1976 -1.2095  1.5141
 2680TIP3    H229456   2.116   6.837  13.712 -0.2609  1.2656 -2.3613
 2681TIP3   OH229457   4.650   4.173   2.090  1.0586  0.6032 -0.4454
 2681TIP3    H129458   4.658   4.228   2.168  0.0866  0.6094 -0.3299
 2681TIP3    H229459   4.641   4.084   2.125 -2.4015  0.8671 -0.3219
 2682TIP3   OH229460   5.406   1.819   0.896 -0.4517 -0.0098 -0.2060
 2682TIP3    H129461   5.489   1.770   0.890 -0.3114  0.0641  0.9763
 2682TIP3    H229462   5.418   1.893   0.836  0.6166  0.3833  0.4639
 2683TIP3   OH229463   3.838   2.933   2.796  0.2665  0.4472  0.1920
 2683TIP3    H129464   3.744   2.934   2.778  0.0730  2.2015  1.0453
 2683TIP3    H229465   3.846   2.978   2.880  1.6461 -2.1281  1.5648
 2684TIP3   OH229466   5.866   2.446  17.080 -0.0022  0.0059  0.4617
 2684TIP3    H129467   5.885   2.489  16.997  0.7596 -0.7072  0.2588
 2684TIP3    H229468   5.901   2.358  17.071 -0.5248 -0.3056  1.2924
 2685TIP3   OH229469   0.085   6.772   1.994  0.0794 -0.0304  0.2981
 2685TIP3    H129470   0.040   6.698   1.954 -0.8390 -0.7165  2.4712
 2685TIP3    H229471   0.016   6.824   2.034  0.8928  1.0228  0.3893
 2686TIP3   OH229472   5.404   5.612  14.913  0.2176  0.2661  0.4509
 2686TIP3    H129473   5.495   5.634  14.893  0.9912 -1.8161  1.3876
 2686TIP3    H229474   5.382   5.544  14.850  0.0729 -0.7786  1.5942
 2687TIP3   OH229475   5.181   6.107  12.987  0.0156  0.0369 -0.1323
 2687TIP3    H129476   5.180   6.202  12.981 -0.1626  0.1600  1.3501
 2687TIP3    H229477   5.247   6.079  12.924  0.9686  1.2381  0.2976
 2688TIP3   OH229478   4.524   4.752  12.394  0.0794 -0.0587  0.2807
 2688TIP3    H129479   4.569   4.836  12.387 -0.7551  0.4149  0.3956
 2688TIP3    H229480   4.484   4.740  12.307 -1.2218  0.5157  0.7650
 2689TIP3   OH229481   3.042   4.184  14.660  0.4541 -0.0274 -0.6696
 2689TIP3    H129482   3.025   4.274  14.630  1.7213  0.4945  0.0934
 2689TIP3    H229483   2.967   4.163  14.716  0.2290  0.6085 -0.7191
 2690TIP3   OH229484   4.779   5.494   0.700  0.3353 -0.1868  0.0238
 2690TIP3    H129485   4.857   5.462   0.746  1.6893  1.8332 -0.7328
 2690TIP3    H229486   4.808   5.574   0.656 -1.9229  0.0775 -1.1377
 2691TIP3   OH229487   3.533   5.447   5.399 -0.7380  0.4490 -0.4393
 2691TIP3    H129488   3.532   5.442   5.495 -1.1014  1.2165 -0.3903
 2691TIP3    H229489   3.447   5.483   5.376 -1.1792 -0.9976 -1.1455
 2692TIP3   OH229490   6.357   3.016   2.079  0.3547 -0.4640 -0.2462
 2692TIP3    H129491   6.443   3.018   2.038  0.0378 -0.8862 -0.9572
 2692TIP3    H229492   6.373   3.035   2.171  1.1329  0.0604 -0.4881
 2693TIP3   OH229493   3.170   5.711  14.910  0.0184  0.0834 -0.3103
 2693TIP3    H129494   3.104   5.708  14.840  0.4079 -0.6054 -0.6637
 2693TIP3    H229495   3.249   5.744  14.866 -0.2241  1.4143  0.2290
 2694TIP3   OH229496   4.175   1.743   3.728 -0.2702 -0.3881 -0.0564
 2694TIP3    H129497   4.216   1.721   3.812 -1.3653 -0.0564  0.5779
 2694TIP3    H229498   4.082   1.744   3.746 -0.4940  0.2776 -1.1526
 2695TIP3   OH229499   0.007   4.654   1.576 -0.2220 -0.2106 -0.0349
 2695TIP3    H129500   0.066   4.598   1.626 -1.1538 -2.9988 -1.7970
 2695TIP3    H229501   0.064   4.703   1.517  0.5427 -0.0152  0.8372
 2696TIP3   OH229502   3.024   4.451  14.247 -1.0783 -0.0790 -0.1490
 2696TIP3    H129503   3.069   4.401  14.179 -0.4782  1.9216 -1.3148
 2696TIP3    H229504   3.074   4.435  14.326  0.0207 -0.1388 -0.8290
 2697TIP3   OH229505   0.253   0.748   5.404  0.6120 -0.0455 -0.3935
 2697TIP3    H129506   0.317   0.806   5.444 -0.3956 -1.4594  3.8812
 2697TIP3    H229507   0.299   0.664   5.397  0.0485 -0.4219  0.2627
 2698TIP3   OH229508   3.798   5.035   4.023 -0.1003  0.1023  0.6270
 2698TIP3    H129509   3.826   5.002   4.108  0.9190 -1.1821 -0.1623
 2698TIP3    H229510   3.872   5.016   3.965 -2.3008 -2.9492 -1.4569
 2699TIP3   OH229511   4.126   5.292  11.263  0.1249 -0.0670 -0.6605
 2699TIP3    H129512   4.090   5.304  11.175 -2.2823 -2.0868 -0.0439
 2699TIP3    H229513   4.093   5.366  11.313  2.6779  1.9160 -1.6404
 2700TIP3   OH229514   0.061   5.102  11.509  0.0130  0.1118 -0.4297
 2700TIP3    H129515   0.135   5.157  11.481  0.3011  0.0225  0.1432
 2700TIP3    H229516   0.072   5.094  11.604  0.1944 -1.2592 -0.5505
 2701TIP3   OH229517   1.659   6.066   2.187 -0.1371 -0.4548 -0.0945
 2701TIP3    H129518   1.579   6.096   2.231  0.4523  0.0576  0.6634
 2701TIP3    H229519   1.694   6.145   2.145  0.0833 -0.6298 -0.2398
 2702TIP3   OH229520   0.186   6.106  10.381  0.0924  0.3827  0.0604
 2702TIP3    H129521   0.200   6.128  10.289  0.1223  0.2403  0.0308
 2702TIP3    H229522   0.158   6.188  10.422  0.4983  0.5451  0.0125
 2703TIP3   OH229523   3.624   4.283  12.934 -0.2178 -0.1586  0.5419
 2703TIP3    H129524   3.639   4.376  12.951  0.6824 -0.4057  1.1730
 2703TIP3    H229525   3.630   4.275  12.839  0.5657  0.2962  0.5412
 2704TIP3   OH229526   1.195   2.984   0.456  0.1280  0.1289  0.1004
 2704TIP3    H129527   1.106   3.014   0.472  0.4234  0.9732  0.2325
 2704TIP3    H229528   1.202   2.902   0.505 -1.2353 -1.1144 -1.6606
 2705TIP3   OH229529   5.246   4.674   5.307  0.1958  0.2207  0.0112
 2705TIP3    H129530   5.320   4.666   5.246 -1.2694 -1.0296 -1.6889
 2705TIP3    H229531   5.182   4.727   5.261 -0.0986  1.1586  1.4103
 2706TIP3   OH229532   6.260   3.000   3.511  0.5629 -0.3706  0.1119
 2706TIP3    H129533   6.211   3.082   3.517  0.9319  0.0545 -1.9151
 2706TIP3    H229534   6.271   2.971   3.601  0.4698  1.8470  0.8778
 2707TIP3   OH229535   6.303   4.016   3.866  0.8146  0.1635  0.3652
 2707TIP3    H129536   6.306   3.921   3.880  0.1699 -0.6197 -3.6257
 2707TIP3    H229537   6.395   4.043   3.869  1.0997 -0.7696  0.5026
 2708TIP3   OH229538   4.579   1.877   0.464 -0.6931 -0.1726 -0.3395
 2708TIP3    H129539   4.638   1.875   0.389  0.5725 -0.5025  0.6248
 2708TIP3    H229540   4.583   1.787   0.498 -0.3462  0.2548  0.7788
 2709TIP3   OH229541   0.138   1.052  10.216  0.7715  0.2394  0.1351
 2709TIP3    H129542   0.230   1.054  10.241  0.4918  0.5764  1.2255
 2709TIP3    H229543   0.102   1.134  10.253  0.4725  1.1596 -2.0687
 2710TIP3   OH229544   4.674   0.205  12.712 -0.5502 -0.4309  0.0376
 2710TIP3    H129545   4.703   0.152  12.787 -2.7623 -0.0853  1.2182
 2710TIP3    H229546   4.663   0.293  12.749  0.8465  0.3771 -1.3610
 2711TIP3   OH229547   4.085   1.745  11.976 -0.0888  0.5368 -0.0169
 2711TIP3    H129548   4.015   1.757  11.913  0.9785 -0.2574 -1.4181
 2711TIP3    H229549   4.095   1.650  11.983  1.8230  0.6037 -1.0388
 2712TIP3   OH229550   3.211   1.449   4.244  0.1059 -0.1843  0.0699
 2712TIP3    H129551   3.186   1.367   4.202 -1.0811  0.9808 -1.6122
 2712TIP3    H229552   3.161   1.516   4.198  1.2874  1.5351  1.1721
 2713TIP3   OH229553   4.771   6.505   3.052  0.2535  0.2516 -0.2365
 2713TIP3    H129554   4.780   6.456   2.970  1.7471 -0.1768  0.1371
 2713TIP3    H229555   4.740   6.440   3.115  0.9670  0.0880 -0.0413
 2714TIP3   OH229556   0.421   5.142  15.620 -0.1409 -0.1625 -0.5664
 2714TIP3    H129557   0.426   5.069  15.559  0.6449  0.3159 -1.0946
 2714TIP3    H229558   0.503   5.138  15.669 -0.9442 -0.7847  0.7598
 2715TIP3   OH229559   6.143   2.902  11.765 -0.2085 -0.2600  0.1633
 2715TIP3    H129560   6.052   2.926  11.781 -0.6811 -2.7808  1.8771
 2715TIP3    H229561   6.187   2.984  11.744 -3.2202  0.8168 -2.7931
 2716TIP3   OH229562   0.575   1.039   5.737 -0.0547  0.1539 -0.1210
 2716TIP3    H129563   0.595   1.131   5.724 -1.6149  0.5739  0.1394
 2716TIP3    H229564   0.575   1.028   5.833 -1.9139  0.4351 -0.0464
 2717TIP3   OH229565   3.503   2.088   1.047  0.0141 -0.3107 -0.0926
 2717TIP3    H129566   3.441   2.016   1.057 -0.3653 -0.0119 -0.3019
 2717TIP3    H229567   3.583   2.056   1.088 -0.2779 -0.6947  0.1798
 2718TIP3   OH229568   4.003   2.128  12.771  0.0511  0.7171  0.1852
 2718TIP3    H129569   3.944   2.073  12.822  0.1527  1.0413  0.6584
 2718TIP3    H229570   3.949   2.162  12.700 -1.3470  3.7826  2.5010
 2719TIP3   OH229571   0.334   0.672  12.055  0.4361 -0.2660 -0.2730
 2719TIP3    H129572   0.398   0.730  12.014  0.6140 -0.8794 -0.8932
 2719TIP3    H229573   0.333   0.698  12.147 -0.2963  1.4351 -0.7272
 2720TIP3   OH229574   2.034   3.425   3.332  0.0413 -0.5265 -0.5797
 2720TIP3    H129575   2.073   3.499   3.286  0.5887 -0.5365 -0.1453
 2720TIP3    H229576   1.998   3.369   3.263  0.8385 -0.5365 -0.9924
 2721TIP3   OH229577   4.081   4.389   4.062 -0.2194 -0.5283  0.1331
 2721TIP3    H129578   4.067   4.480   4.036 -0.8650 -0.6853 -0.0744
 2721TIP3    H229579   4.101   4.343   3.981  2.4667 -0.1607  0.4994
 2722TIP3   OH229580   3.349   3.908   1.550 -0.1655  0.3238  0.1074
 2722TIP3    H129581   3.429   3.898   1.498  0.5865 -0.2112  1.3027
 2722TIP3    H229582   3.362   3.991   1.597 -1.1895  1.2044 -1.1124
 2723TIP3   OH229583   4.050   6.675  13.516 -0.4300 -0.1677 -0.4340
 2723TIP3    H129584   4.002   6.625  13.582  1.1047 -1.2013 -0.0453
 2723TIP3    H229585   3.982   6.720  13.466 -1.8175 -1.7955 -0.1011
 2724TIP3   OH229586   2.748   3.399  11.292 -0.7621 -0.1311 -0.0110
 2724TIP3    H129587   2.714   3.343  11.222 -1.5774  1.1016 -0.6449
 2724TIP3    H229588   2.679   3.464  11.306  0.3492  1.0029  0.3539
 2725TIP3   OH229589   2.938   5.921  12.806  0.1629 -0.5246  0.0916
 2725TIP3    H129590   3.029   5.942  12.788  0.2578 -1.6150 -0.7954
 2725TIP3    H229591   2.937   5.893  12.898  1.0166 -2.0064 -0.3250
 2726TIP3   OH229592   4.260   2.511  16.485 -0.3244  0.1329 -0.5278
 2726TIP3    H129593   4.194   2.573  16.455 -1.1495  0.5203  1.9041
 2726TIP3    H229594   4.335   2.566  16.509 -1.2142  0.3430  2.0505
 2727TIP3   OH229595   4.886   6.135  13.927 -0.5734  0.1594  0.8174
 2727TIP3    H129596   4.797   6.142  13.960 -1.0921  1.0782 -0.6647
 2727TIP3    H229597   4.876   6.126  13.832  0.9016  0.0127  0.6487
 2728TIP3   OH229598   0.143   0.073   3.550  0.2753 -0.2022 -0.4046
 2728TIP3    H129599   0.134   0.098   3.642  0.6366 -1.5045  0.0123
 2728TIP3    H229600   0.137   0.155   3.502 -0.5204  0.4399  0.7408
 2729TIP3   OH229601   2.047   4.036   5.415  0.1201  0.5664 -0.1211
 2729TIP3    H129602   2.103   3.963   5.388 -1.0405 -0.1552 -0.7054
 2729TIP3    H229603   2.054   4.037   5.511 -1.3650 -1.6745  0.1033
 2730TIP3   OH229604   2.691   6.146  13.775  0.0233  0.3611  0.1189
 2730TIP3    H129605   2.738   6.186  13.701  0.3738 -2.7181 -1.5407
 2730TIP3    H229606   2.599   6.149  13.749  0.1892 -1.1889 -0.8195
 2731TIP3   OH229607   0.857   2.173  17.135 -0.3064  1.2146 -0.5314
 2731TIP3    H129608   0.856   2.200  17.227  0.4124  3.4996 -1.1294
 2731TIP3    H229609   0.947   2.189  17.107 -0.7452  1.4327 -1.8631
 2732TIP3   OH229610   0.144   1.886  13.367  0.1073 -0.7221 -0.5895
 2732TIP3    H129611   0.170   1.838  13.446  0.0906 -1.4420 -1.0143
 2732TIP3    H229612   0.172   1.830  13.294 -0.0011 -0.1307 -1.0966
 2733TIP3   OH229613   4.985   6.770  17.122  0.0219 -0.4365 -0.2000
 2733TIP3    H129614   5.005   6.699  17.061  0.5829 -1.4129  1.0842
 2733TIP3    H229615   4.903   6.744  17.163 -1.3691  1.1182 -1.7977
 2734TIP3   OH229616   5.874   5.105  12.856  0.1911 -0.5388  0.1234
 2734TIP3    H129617   5.861   5.199  12.864  0.1816 -0.4907 -0.4028
 2734TIP3    H229618   5.969   5.094  12.850  0.2126 -0.5961  0.5633
 2735TIP3   OH229619   5.635   4.280  16.223  0.0260 -0.0133 -0.4837
 2735TIP3    H129620   5.699   4.347  16.250  1.2015 -0.9710 -0.8185
 2735TIP3    H229621   5.679   4.233  16.152 -1.6256  0.2018 -1.6868
 2736TIP3   OH229622   3.142   3.310  10.988 -0.7610  0.1799  0.4809
 2736TIP3    H129623   3.078   3.285  10.922 -0.7509  0.5149  0.3410
 2736TIP3    H229624   3.094   3.373  11.043 -0.7102  0.0477  0.6761
 2737TIP3   OH229625   6.207   0.025  14.669  0.1579  0.5696 -0.2137
 2737TIP3    H129626   6.174   0.070  14.746  2.1959  1.9932 -0.0796
 2737TIP3    H229627   6.179   0.080  14.595 -0.4695  0.0457 -0.3743
 2738TIP3   OH229628   5.070   2.811  12.911  0.1790 -0.0554 -0.4699
 2738TIP3    H129629   5.043   2.778  12.826  0.2962  1.1708 -1.0010
 2738TIP3    H229630   5.019   2.891  12.924 -1.4192 -1.2843  1.5846
 2739TIP3   OH229631   2.072   6.794   1.507 -0.0668  0.5882 -0.1595
 2739TIP3    H129632   2.079   6.854   1.433  0.3239  0.2710 -0.3770
 2739TIP3    H229633   2.144   6.733   1.496  0.9942  1.4981  1.3582
 2740TIP3   OH229634   3.378   2.818   3.057  0.0786  0.4120  0.2580
 2740TIP3    H129635   3.365   2.808   3.151 -0.0357  0.5534  0.2572
 2740TIP3    H229636   3.290   2.812   3.019  0.1086  0.4978  0.1731
 2741TIP3   OH229637   5.165   3.172  12.158  0.4045 -0.3086  0.1127
 2741TIP3    H129638   5.181   3.099  12.098 -0.3630 -1.3970  1.1479
 2741TIP3    H229639   5.208   3.247  12.118  0.8923 -1.2448 -1.1998
 2742TIP3   OH229640   4.672   4.549  15.696  0.0038 -0.6524 -0.1065
 2742TIP3    H129641   4.648   4.640  15.681 -0.9675 -1.1288 -1.6027
 2742TIP3    H229642   4.668   4.539  15.792  2.1261  1.3622  0.2913
 2743TIP3   OH229643   0.770   0.871  14.812  0.4737 -0.1077 -0.0435
 2743TIP3    H129644   0.707   0.920  14.758  0.5433 -0.0144 -0.0404
 2743TIP3    H229645   0.796   0.797  14.758 -0.4404 -0.7446  0.3454
 2744TIP3   OH229646   0.851   3.489   0.398  0.1250  0.0252  0.1221
 2744TIP3    H129647   0.840   3.394   0.396  0.4515 -0.1219  2.3591
 2744TIP3    H229648   0.866   3.509   0.491  2.1343  2.0353 -0.5560
 2745TIP3   OH229649   6.793   0.947   3.670  0.4689  0.0146 -0.5727
 2745TIP3    H129650   6.857   0.911   3.732 -0.9703 -2.1821 -0.2410
 2745TIP3    H229651   6.846   0.985   3.600  2.1722 -1.5758 -0.2432
 2746TIP3   OH229652   2.777   4.526   2.215  0.6035  0.4635  0.0829
 2746TIP3    H129653   2.801   4.561   2.301 -0.4665  1.4090  0.0230
 2746TIP3    H229654   2.838   4.453   2.201  1.9828  1.4233  0.8402
 2747TIP3   OH229655   3.227   0.477   5.060 -0.0197  0.4451 -0.1458
 2747TIP3    H129656   3.176   0.416   5.114 -1.5613  1.0457 -0.8504
 2747TIP3    H229657   3.293   0.423   5.018  2.1436  0.1205  3.2705
 2748TIP3   OH229658   1.282   3.526  10.838 -0.1853 -0.1316  0.4725
 2748TIP3    H129659   1.323   3.585  10.902 -0.3332 -0.6041  1.0106
 2748TIP3    H229660   1.310   3.560  10.753  1.2881 -0.4074  0.8164
 2749TIP3   OH229661   0.161   2.118   5.082  0.8111  0.0347 -0.2430
 2749TIP3    H129662   0.252   2.132   5.107  0.2042  0.2787  2.0121
 2749TIP3    H229663   0.149   2.023   5.083  1.1244 -0.0136 -0.8984
 2750TIP3   OH229664   5.922   1.702  12.794 -0.0494 -0.0096 -0.2175
 2750TIP3    H129665   5.885   1.628  12.745  0.0185 -0.6363  0.6559
 2750TIP3    H229666   6.015   1.681  12.804 -0.1185 -0.0368  0.4252
 2751TIP3   OH229667   1.034   5.103  12.518 -0.2255 -0.2005  0.4098
 2751TIP3    H129668   1.122   5.134  12.498  0.4343 -1.8555  0.6208
 2751TIP3    H229669   1.020   5.127  12.610 -0.0137  0.1136  0.3594
 2752TIP3   OH229670   1.288   2.587   1.526  0.4913  0.2117  0.2766
 2752TIP3    H129671   1.380   2.585   1.551  1.2436  2.5733 -1.9557
 2752TIP3    H229672   1.241   2.589   1.610  2.4986  0.3082  1.4545
 2753TIP3   OH229673   5.079   5.113  14.829 -0.2729 -0.1613 -0.5332
 2753TIP3    H129674   5.068   5.204  14.857  0.7510 -0.1857 -0.0225
 2753TIP3    H229675   5.120   5.069  14.904  2.0248 -0.3583 -1.8013
 2754TIP3   OH229676   1.405   6.425  13.543 -0.0466 -0.5169 -0.2338
 2754TIP3    H129677   1.382   6.440  13.634 -3.0105 -0.9593 -0.7779
 2754TIP3    H229678   1.397   6.330  13.532  2.1864 -0.7093 -0.5580
 2755TIP3   OH229679   3.138   4.469   5.345 -0.6263 -0.4287 -0.0633
 2755TIP3    H129680   3.075   4.472   5.416 -2.6314  0.2863 -1.7558
 2755TIP3    H229681   3.085   4.475   5.265  1.6180  1.0085 -1.5796
 2756TIP3   OH229682   5.964   5.639   5.761  0.8197  0.3841  0.0909
 2756TIP3    H129683   5.984   5.569   5.824 -0.7869 -0.1957 -0.0014
 2756TIP3    H229684   5.985   5.720   5.808  2.5503 -0.1216  0.2626
 2757TIP3   OH229685   3.954   4.315   5.070 -1.1155  0.7103  0.2896
 2757TIP3    H129686   4.029   4.277   5.116 -1.0344 -1.0856 -1.2136
 2757TIP3    H229687   3.970   4.410   5.073  1.5383  0.3662 -0.4894
 2758TIP3   OH229688   4.432   5.095  16.001 -0.5756 -0.0560 -0.2742
 2758TIP3    H129689   4.388   5.160  15.947 -2.8551 -1.3015 -0.0180
 2758TIP3    H229690   4.381   5.092  16.081  1.4383  0.1401  1.0941
 2759TIP3   OH229691   1.394   5.492  11.080  0.1229  0.1631  0.1400
 2759TIP3    H129692   1.373   5.538  11.160 -3.4765 -2.6469  1.0793
 2759TIP3    H229693   1.371   5.553  11.010 -1.1625  1.0408  1.2837
 2760TIP3   OH229694   2.987   6.608   2.037 -0.1915  0.2089 -0.0321
 2760TIP3    H129695   2.959   6.551   2.108 -1.2710 -1.1022 -1.4264
 2760TIP3    H229696   3.013   6.548   1.967 -1.3628  1.3875 -1.5588
 2761TIP3   OH229697   0.452   0.048  15.128 -0.1749  0.5716  0.4657
 2761TIP3    H129698   0.385   0.030  15.062  0.3033 -0.4761  0.2486
 2761TIP3    H229699   0.436   0.138  15.155 -0.6796  0.8512 -0.7281
 2762TIP3   OH229700   4.353   4.656   5.372  0.4690 -0.1935  0.0933
 2762TIP3    H129701   4.445   4.632   5.384  0.4501 -0.9041 -1.0214
 2762TIP3    H229702   4.329   4.701   5.453  2.2632  1.5296 -0.2787
 2763TIP3   OH229703   1.945   4.169   1.980  0.0527  0.2767 -0.1770
 2763TIP3    H129704   2.032   4.208   1.973  1.4666 -1.7441  3.2569
 2763TIP3    H229705   1.906   4.209   2.058 -1.4191 -0.0513 -0.7082
 2764TIP3   OH229706   4.292   4.508  14.792 -0.3480 -1.1442  0.7562
 2764TIP3    H129707   4.292   4.465  14.707 -2.0894  0.8164 -0.3067
 2764TIP3    H229708   4.241   4.449  14.848 -0.7582 -1.5875 -0.0636
 2765TIP3   OH229709   4.888   5.240  10.789  0.1313  0.1517  0.4925
 2765TIP3    H129710   4.875   5.192  10.870  0.6596 -0.6843  0.0968
 2765TIP3    H229711   4.943   5.315  10.814 -1.3158  1.0084  1.2484
 2766TIP3   OH229712   0.350   1.765  10.985 -0.2459  0.2078 -0.1570
 2766TIP3    H129713   0.270   1.772  10.932  0.2716  0.3330 -0.9405
 2766TIP3    H229714   0.387   1.854  10.983  1.2320 -0.3675 -1.9504
 2767TIP3   OH229715   6.333   5.519  10.529 -0.2408  0.0637  0.0218
 2767TIP3    H129716   6.320   5.424  10.528  0.1663  0.0074 -1.3719
 2767TIP3    H229717   6.428   5.531  10.525 -0.3380  0.4973 -2.7957
 2768TIP3   OH229718   0.384   6.234  13.328 -0.2268 -0.0291  0.4074
 2768TIP3    H129719   0.298   6.197  13.347 -1.7160  1.4394 -2.6502
 2768TIP3    H229720   0.421   6.176  13.261  0.1636  0.5154  0.1425
 2769TIP3   OH229721   2.421   3.322   1.275  0.1975 -0.0956 -0.2302
 2769TIP3    H129722   2.431   3.358   1.187 -0.9898  0.1501 -0.2800
 2769TIP3    H229723   2.489   3.255   1.282  0.9544  0.5853 -0.9625
 2770TIP3   OH229724   4.779   4.847  10.391 -0.0631 -0.2136 -0.1619
 2770TIP3    H129725   4.744   4.897  10.465  0.0796 -1.7772  1.0072
 2770TIP3    H229726   4.871   4.833  10.413  0.1898 -0.0033 -1.0449
 2771TIP3   OH229727   2.978   0.696   3.220  0.3306 -0.2230  0.1998
 2771TIP3    H129728   2.947   0.641   3.148 -0.8417  0.9321 -0.2366
 2771TIP3    H229729   2.981   0.638   3.295 -0.9744 -0.8779 -0.2206
 2772TIP3   OH229730   3.075   1.489   5.468 -0.5361 -0.2147 -0.8288
 2772TIP3    H129731   3.148   1.543   5.496 -0.3796 -1.4314  1.3648
 2772TIP3    H229732   3.006   1.506   5.533 -0.1250 -3.2762  0.6094
 2773TIP3   OH229733   1.710   1.775   1.302  0.3752  0.7252 -0.3845
 2773TIP3    H129734   1.794   1.805   1.337 -0.3098  2.6156 -0.2863
 2773TIP3    H229735   1.715   1.796   1.209 -0.2047  1.3787 -0.2726
 2774TIP3   OH229736   1.211   0.650  13.287 -0.3806  0.5172  0.0672
 2774TIP3    H129737   1.209   0.715  13.357 -0.6392 -0.1890  0.7297
 2774TIP3    H229738   1.249   0.696  13.212  1.6169  0.7713  1.1811
 2775TIP3   OH229739   1.927   2.123  14.428 -0.4589  0.9546  0.2653
 2775TIP3    H129740   1.845   2.162  14.456 -1.0880  0.1390 -0.3903
 2775TIP3    H229741   1.921   2.120  14.332  0.6649  1.5947  0.1599
 2776TIP3   OH229742   0.592   0.978  15.414 -0.1722  0.0339  0.1096
 2776TIP3    H129743   0.542   0.951  15.336  1.0652  0.4570 -0.8474
 2776TIP3    H229744   0.540   1.049  15.452 -0.4665  0.2576 -0.6880
 2777TIP3   OH229745   4.667   6.280   2.886 -0.7429  0.2791 -0.5490
 2777TIP3    H129746   4.601   6.344   2.912 -0.4914  0.6887 -0.8909
 2777TIP3    H229747   4.640   6.198   2.928 -0.7900  0.7253  0.3138
 2778TIP3   OH229748   4.469   4.447  15.139 -0.4350 -0.7457 -0.3453
 2778TIP3    H129749   4.465   4.441  15.235 -2.5016 -2.1863 -0.4391
 2778TIP3    H229750   4.458   4.540  15.120 -0.1510 -0.4564  0.8119
 2779TIP3   OH229751   0.962   5.212   2.517  0.1966  0.1295 -0.5439
 2779TIP3    H129752   0.955   5.137   2.576  0.4964 -0.5311 -1.3283
 2779TIP3    H229753   0.988   5.284   2.573  0.3108 -0.4494  0.1602
 2780TIP3   OH229754   1.295   2.789  13.301  0.0925  0.2136 -0.2531
 2780TIP3    H129755   1.284   2.697  13.278  0.5934  0.1535 -0.2554
 2780TIP3    H229756   1.289   2.792  13.396 -0.3520  0.2373 -0.2816
 2781TIP3   OH229757   5.901   1.009  15.809  0.1204 -0.1859  0.0529
 2781TIP3    H129758   5.858   1.008  15.723 -0.8046  0.3584  0.4948
 2781TIP3    H229759   5.992   0.987  15.790 -0.0558 -0.0257 -1.0798
 2782TIP3   OH229760   4.130   2.336  12.094 -0.0282 -0.4482 -0.6187
 2782TIP3    H129761   4.193   2.381  12.038  0.3217 -1.6726 -1.2380
 2782TIP3    H229762   4.156   2.244  12.091  0.6151 -0.4774  2.3217
 2783TIP3   OH229763   3.696   6.129  13.848  0.1990  0.2170 -0.0072
 2783TIP3    H129764   3.750   6.104  13.773 -1.0853  0.9685 -1.2422
 2783TIP3    H229765   3.710   6.223  13.857  1.5733 -0.1121  1.7573
 2784TIP3   OH229766   4.415   1.498   0.686 -0.2486 -0.0531 -0.2261
 2784TIP3    H129767   4.487   1.523   0.628  1.4884 -1.4270  1.1929
 2784TIP3    H229768   4.356   1.573   0.686 -0.4455 -0.0487 -3.8223
 2785TIP3   OH229769   6.315   2.368   0.881  0.1644  0.2554  0.1765
 2785TIP3    H129770   6.265   2.300   0.836  0.7791 -0.5449  0.6627
 2785TIP3    H229771   6.283   2.450   0.844 -1.6619 -0.2076  0.6582
 2786TIP3   OH229772   5.727   3.818   1.826  0.1339  0.6228  0.7730
 2786TIP3    H129773   5.747   3.846   1.916  2.2258  0.4848  0.3811
 2786TIP3    H229774   5.802   3.847   1.774 -2.1279  3.0252 -1.4991
 2787TIP3   OH229775   0.311   1.036  16.492  0.1366  0.5009 -0.4658
 2787TIP3    H129776   0.229   0.987  16.495  0.1513  0.4970 -0.0512
 2787TIP3    H229777   0.379   0.970  16.504  0.1827  0.5513 -0.4465
 2788TIP3   OH229778   2.207   2.777   3.295  0.0628 -0.1005 -0.7636
 2788TIP3    H129779   2.132   2.836   3.288 -0.6177 -1.0277 -1.5682
 2788TIP3    H229780   2.169   2.693   3.321  0.8233 -0.5762 -1.1491
 2789TIP3   OH229781   1.300   0.036  12.094 -0.2697 -0.0200  0.1776
 2789TIP3    H129782   1.221   0.090  12.090  0.1803  0.6104 -0.6717
 2789TIP3    H229783   1.336   0.051  12.181 -2.3571 -2.2191  1.5477
 2790TIP3   OH229784   3.237   1.622  15.633  0.8588 -0.4147 -0.3308
 2790TIP3    H129785   3.283   1.664  15.706  1.8089 -1.0749 -0.5253
 2790TIP3    H229786   3.236   1.529  15.656  1.1898 -0.6337 -1.1651
 2791TIP3   OH229787   5.589   3.627   1.672 -0.4693 -0.4399 -0.4427
 2791TIP3    H129788   5.622   3.702   1.723 -1.2202 -0.1008 -0.4428
 2791TIP3    H229789   5.639   3.631   1.590  0.4074 -0.7075  0.0628
 2792TIP3   OH229790   5.834   6.180  12.696 -0.5316 -0.8492  0.1495
 2792TIP3    H129791   5.901   6.120  12.728 -0.6578 -0.2091  1.6733
 2792TIP3    H229792   5.883   6.246  12.647 -0.2968 -1.5996 -0.6618
 2793TIP3   OH229793   2.265   4.766   0.819 -0.0562  0.3039 -0.3640
 2793TIP3    H129794   2.227   4.724   0.742 -2.1375  1.7569 -0.2227
 2793TIP3    H229795   2.247   4.860   0.806  0.5349  0.6960  1.3503
 2794TIP3   OH229796   6.339   4.758   4.887  0.2570 -0.5847  0.0726
 2794TIP3    H129797   6.269   4.781   4.948  0.0862 -0.5953 -0.1148
 2794TIP3    H229798   6.355   4.665   4.904 -0.3019 -0.7741 -0.3978
 2795TIP3   OH229799   2.674   4.172   4.023  0.4745  0.1924  0.2163
 2795TIP3    H129800   2.661   4.114   4.099  1.6459  1.0679  1.1143
 2795TIP3    H229801   2.727   4.244   4.056  2.5310 -0.2627 -1.8443
 2796TIP3   OH229802   6.646   3.386  12.369  0.2188 -0.7463 -0.3401
 2796TIP3    H129803   6.593   3.327  12.422  1.3428 -0.2078  1.4807
 2796TIP3    H229804   6.706   3.329  12.322 -1.1910 -1.2761 -1.5405
 2797TIP3   OH229805   4.039   0.354  16.958  0.8345  0.3861  0.2949
 2797TIP3    H129806   3.988   0.378  16.880  2.3823 -0.9492 -1.1881
 2797TIP3    H229807   3.977   0.308  17.014  0.5113 -2.0050 -1.8626
 2798TIP3   OH229808   1.978   4.643  11.366 -0.3224  0.0879  0.0757
 2798TIP3    H129809   1.906   4.692  11.405  0.5443 -0.2144  2.2193
 2798TIP3    H229810   2.047   4.708  11.354  0.2419 -0.2507  1.3464
 2799TIP3   OH229811   2.660   6.570   4.001  0.0356  0.7907 -0.2627
 2799TIP3    H129812   2.717   6.586   4.077  0.3640  1.6408 -0.6755
 2799TIP3    H229813   2.622   6.484   4.018  2.3704 -0.3867 -0.5267
 2800TIP3   OH229814   2.641   6.739  13.386 -0.0144 -0.1217 -0.5668
 2800TIP3    H129815   2.575   6.674  13.411  0.5868 -0.1962  0.9260
 2800TIP3    H229816   2.692   6.753  13.465  1.4177  0.3591 -1.5367
 2801TIP3   OH229817   0.574   2.033   1.115  0.1741  0.6146  0.7341
 2801TIP3    H129818   0.563   1.965   1.048  1.7179  1.6264 -0.6532
 2801TIP3    H229819   0.487   2.047   1.151 -0.6034 -0.4098 -0.6604
 2802TIP3   OH229820   1.439   1.170   3.995  0.3792 -0.1733 -0.5267
 2802TIP3    H129821   1.435   1.161   4.090 -1.4313  2.7101 -0.2051
 2802TIP3    H229822   1.389   1.096   3.962 -0.6469 -0.1459  0.8898
 2803TIP3   OH229823   0.321   4.674  10.182  0.2125 -0.2319 -0.4335
 2803TIP3    H129824   0.233   4.648  10.156  0.1328  0.6264 -1.0502
 2803TIP3    H229825   0.346   4.610  10.248 -1.5800  0.5690  1.1057
 2804TIP3   OH229826   4.035   4.314  10.609  0.0489 -0.5250 -0.0822
 2804TIP3    H129827   3.962   4.255  10.588  0.0071 -0.6009  0.2693
 2804TIP3    H229828   4.090   4.313  10.530  0.5149 -1.7355  0.2362
 2805TIP3   OH229829   4.201   6.176  12.652  0.2030 -0.5343 -0.3807
 2805TIP3    H129830   4.146   6.234  12.705  0.9394  1.4485 -1.6757
 2805TIP3    H229831   4.234   6.110  12.714 -2.1202 -0.7132  0.7835
 2806TIP3   OH229832   2.976   5.553   0.603  0.2346  0.3785  0.4968
 2806TIP3    H129833   2.986   5.645   0.629 -1.7686  0.7441  0.1216
 2806TIP3    H229834   2.892   5.527   0.640  0.6813 -1.2640  0.4243
 2807TIP3   OH229835   1.138   2.066  11.083 -0.0906 -0.1038 -0.1311
 2807TIP3    H129836   1.123   2.156  11.057  1.0338  0.4983  1.1671
 2807TIP3    H229837   1.117   2.014  11.006 -0.5372  1.2816 -0.9627
 2808TIP3   OH229838   4.379   3.645   2.026  0.1915  0.2521  0.6118
 2808TIP3    H129839   4.371   3.561   2.072 -0.5460 -0.1413 -0.2156
 2808TIP3    H229840   4.384   3.621   1.933  2.1080  1.0055  0.4725
 2809TIP3   OH229841   6.731   1.265  12.835 -1.2004  0.1830 -0.1928
 2809TIP3    H129842   6.768   1.196  12.891  1.2449  1.9322  0.5550
 2809TIP3    H229843   6.787   1.266  12.758 -1.2600  1.2612 -0.2326
 2810TIP3   OH229844   2.450   2.093   5.721  0.2794 -0.1834 -0.1003
 2810TIP3    H129845   2.540   2.064   5.737  0.4979  1.0505  1.1425
 2810TIP3    H229846   2.397   2.039   5.780  0.7082  1.8940  2.3753
 2811TIP3   OH229847   5.821   2.457   3.768  0.4921  0.4035  0.2715
 2811TIP3    H129848   5.763   2.414   3.704  0.3883  1.5612 -0.4387
 2811TIP3    H229849   5.841   2.388   3.831 -1.0429 -0.2396  0.1120
 2812TIP3   OH229850   1.084   6.118   2.085  0.9283 -0.2875  0.2293
 2812TIP3    H129851   1.115   6.046   2.140  0.1872 -0.6334  0.2094
 2812TIP3    H229852   1.146   6.188   2.100  0.4642 -0.1914  1.9331
 2813TIP3   OH229853   3.162   6.214   0.509 -0.1903 -0.0726 -0.2455
 2813TIP3    H129854   3.235   6.269   0.537 -0.0461 -1.0171  1.3536
 2813TIP3    H229855   3.199   6.126   0.500 -0.8978 -0.3557 -0.5159
 2814TIP3   OH229856   5.550   2.667  15.501  0.0199 -0.7318 -0.5658
 2814TIP3    H129857   5.457   2.656  15.482 -0.1048  0.0681 -0.4666
 2814TIP3    H229858   5.553   2.741  15.562  0.5082 -2.3425  1.4887
 2815TIP3   OH229859   3.185   6.797   1.040  0.2593  0.0362 -0.4125
 2815TIP3    H129860   3.202   6.842   1.123 -0.8099 -0.2440 -0.0284
 2815TIP3    H229861   3.110   6.844   1.003 -0.8710 -1.3802 -0.0139
 2816TIP3   OH229862   2.653   0.990   3.815  0.1492  0.3540  0.5826
 2816TIP3    H129863   2.637   0.916   3.873  1.6412  0.4067  1.1126
 2816TIP3    H229864   2.578   1.048   3.829 -0.7142 -0.7378  0.6432
 2817TIP3   OH229865   5.908   4.800   3.515 -0.2752  0.4197 -0.4517
 2817TIP3    H129866   5.941   4.716   3.547  1.4264 -0.2170 -3.4902
 2817TIP3    H229867   5.834   4.778   3.458  0.3065  0.9300 -1.4339
 2818TIP3   OH229868   5.072   4.088   0.166 -0.4758  1.0125  0.2334
 2818TIP3    H129869   5.044   4.067   0.256  0.9194  0.4174  0.5632
 2818TIP3    H229870   5.132   4.162   0.176  0.9285 -0.0394  0.0252
 2819TIP3   OH229871   4.509   1.490  13.529  0.2279 -0.0695 -0.5012
 2819TIP3    H129872   4.435   1.432  13.547  0.0916  0.1691 -0.3001
 2819TIP3    H229873   4.584   1.430  13.520  0.1606 -0.2488  0.0913
 2820TIP3   OH229874   1.927   1.586  11.520 -0.2395 -0.2410 -1.0262
 2820TIP3    H129875   2.018   1.593  11.491  0.1728 -2.2230 -0.3565
 2820TIP3    H229876   1.897   1.677  11.525  1.7531  0.4787 -1.0966
 2821TIP3   OH229877   0.425   6.537   2.119 -0.4536  0.2259 -0.4395
 2821TIP3    H129878   0.384   6.571   2.039  1.8426 -0.3614 -1.9656
 2821TIP3    H229879   0.386   6.451   2.132 -1.3699  0.6230 -0.4836
 2822TIP3   OH229880   4.339   4.928  13.258  0.1319  0.1968 -0.2308
 2822TIP3    H129881   4.297   5.013  13.273  1.0798  0.6499 -0.0773
 2822TIP3    H229882   4.362   4.928  13.166 -0.2979 -0.0967 -0.3409
 2823TIP3   OH229883   2.353   1.809  11.850  0.3019 -0.0541 -0.2591
 2823TIP3    H129884   2.389   1.726  11.881  0.3051  0.0770  0.0872
 2823TIP3    H229885   2.411   1.835  11.778  0.8992  0.1426  0.2748
 2824TIP3   OH229886   1.638   6.524  13.623  0.2045  0.7621  0.4338
 2824TIP3    H129887   1.641   6.443  13.675  0.8348 -0.1087 -0.9027
 2824TIP3    H229888   1.551   6.523  13.583  0.3894  0.4927  0.0354
 2825TIP3   OH229889   3.451   2.899  17.096  0.0169  0.3067 -0.7983
 2825TIP3    H129890   3.366   2.935  17.124  0.5345 -0.5655  2.3328
 2825TIP3    H229891   3.507   2.976  17.085  0.0340  0.7618  1.8633
 2826TIP3   OH229892   4.385   1.899   0.879 -0.2845 -0.2133  0.2123
 2826TIP3    H129893   4.400   1.896   0.974  1.5373  0.3255 -0.0157
 2826TIP3    H229894   4.473   1.896   0.841 -1.0295 -1.5607 -1.5208
 2827TIP3   OH229895   3.499   1.117  12.653  0.1843 -0.3654 -0.0112
 2827TIP3    H129896   3.427   1.106  12.591 -2.0179 -0.7905  2.4302
 2827TIP3    H229897   3.502   1.211  12.671  0.0420 -0.3761  0.0723
 2828TIP3   OH229898   6.235   2.162  14.346  0.8157 -0.1378 -0.1376
 2828TIP3    H129899   6.157   2.216  14.342 -0.0149 -1.0580  1.8434
 2828TIP3    H229900   6.229   2.103  14.271  0.6782  1.1029 -1.1282
 2829TIP3   OH229901   5.363   0.868  11.204  0.1246  0.7615 -0.5421
 2829TIP3    H129902   5.302   0.926  11.249 -0.3269  0.1086 -0.2951
 2829TIP3    H229903   5.352   0.783  11.248  2.1754  0.9368  0.4228
 2830TIP3   OH229904   3.490   4.505  16.533 -0.2698  0.1994  0.0834
 2830TIP3    H129905   3.510   4.479  16.443 -1.0646  0.0078 -0.0429
 2830TIP3    H229906   3.401   4.539  16.529 -0.0595  0.8497  0.6718
 2831TIP3   OH229907   4.153   5.717   4.333 -0.7331 -0.1300 -0.3087
 2831TIP3    H129908   4.220   5.772   4.294  1.2622 -2.3861 -0.2916
 2831TIP3    H229909   4.137   5.756   4.419 -0.7467  1.4185 -0.9870
 2832TIP3   OH229910   6.460   2.795   4.791  0.2023 -0.5083 -0.1994
 2832TIP3    H129911   6.510   2.722   4.754 -1.1787 -1.4395 -0.2711
 2832TIP3    H229912   6.369   2.771   4.778 -0.2964  1.4256 -0.5763
 2833TIP3   OH229913   3.363   5.194  16.485  0.0434 -0.0719  0.1614
 2833TIP3    H129914   3.381   5.172  16.577 -0.3859  0.9912  0.5236
 2833TIP3    H229915   3.279   5.240  16.488 -0.0379 -0.1408 -0.7908
 2834TIP3   OH229916   1.431   6.548   2.961  0.3362  0.2618 -0.1333
 2834TIP3    H129917   1.366   6.611   2.928  0.3335 -0.4627 -1.6245
 2834TIP3    H229918   1.382   6.493   3.021 -0.2906  0.1420 -0.7346
 2835TIP3   OH229919   2.029   2.430  14.700  0.1011 -0.6988 -0.6885
 2835TIP3    H129920   1.957   2.421  14.763  1.9699  1.4349  1.9949
 2835TIP3    H229921   2.093   2.364  14.728  0.4507 -0.5497 -1.1347
 2836TIP3   OH229922   1.206   6.724  11.050  0.1284 -0.4831 -0.4697
 2836TIP3    H129923   1.234   6.774  11.126  0.9997  0.3193 -1.2972
 2836TIP3    H229924   1.111   6.735  11.047  0.1924  0.2177 -0.0119
 2837TIP3   OH229925   1.125   1.469  12.856  0.0322  0.1938  0.0885
 2837TIP3    H129926   1.127   1.456  12.951  0.8149  1.0172  0.2042
 2837TIP3    H229927   1.038   1.504  12.838 -0.2361 -0.2791  0.4558
 2838TIP3   OH229928   5.822   4.695   0.130  0.2841 -0.8046  0.0499
 2838TIP3    H129929   5.866   4.610   0.125 -2.1027 -2.1981  0.8150
 2838TIP3    H229930   5.744   4.684   0.075 -0.1489  0.8482  0.2799
 2839TIP3   OH229931   5.159   2.719  12.239  0.1747 -0.2710  0.2499
 2839TIP3    H129932   5.102   2.790  12.266 -0.0378 -1.0037  1.8160
 2839TIP3    H229933   5.102   2.658  12.191  0.0374 -0.1250  0.2297
 2840TIP3   OH229934   4.729   3.105   2.818  0.2088 -0.1787 -0.3914
 2840TIP3    H129935   4.670   3.068   2.884  2.3472 -2.2735  0.4647
 2840TIP3    H229936   4.712   3.052   2.740  1.1275 -1.0145 -0.0457
 2841TIP3   OH229937   2.790   2.022  15.149  0.2914  0.1878  0.5732
 2841TIP3    H129938   2.839   2.105  15.152 -1.1974  1.0733  3.2689
 2841TIP3    H229939   2.836   1.965  15.211 -1.1306  0.5466  2.0365
 2842TIP3   OH229940   2.224   6.579   1.488 -0.4189  0.1181 -0.4047
 2842TIP3    H129941   2.299   6.563   1.544 -0.8813 -0.2271  0.1285
 2842TIP3    H229942   2.256   6.565   1.399  0.5543  1.5578 -0.3029
 2843TIP3   OH229943   2.342   3.580   2.263  0.1243  0.1049 -0.6832
 2843TIP3    H129944   2.437   3.574   2.276 -0.0665 -0.2537  0.6629
 2843TIP3    H229945   2.332   3.640   2.189  1.3511  1.9236  0.5526
 2844TIP3   OH229946   1.327   1.118   1.476  0.2962  0.4558  0.3743
 2844TIP3    H129947   1.352   1.143   1.387 -1.1619  3.7836  0.7669
 2844TIP3    H229948   1.231   1.115   1.474  0.2524  0.2345  1.7504
 2845TIP3   OH229949   4.045   5.870   0.350  0.3495 -0.0562  0.4680
 2845TIP3    H129950   3.983   5.921   0.402  1.3937  1.2703  0.4317
 2845TIP3    H229951   4.102   5.934   0.309  3.2281 -1.2614  2.2918
 2846TIP3   OH229952   5.212   2.802   5.172  0.1092 -0.6005 -0.2894
 2846TIP3    H129953   5.257   2.727   5.133 -0.4194 -1.8914  1.4792
 2846TIP3    H229954   5.139   2.764   5.220  0.0753  1.0155  1.0161
 2847TIP3   OH229955   6.737   4.056  16.870  0.2187 -0.4573 -0.7164
 2847TIP3    H129956   6.755   3.963  16.856 -0.0181 -0.2959 -2.2932
 2847TIP3    H229957   6.823   4.098  16.863  0.2607 -0.5061 -0.4922
 2848TIP3   OH229958   1.854   4.121  12.308  0.2471  0.0385  0.0109
 2848TIP3    H129959   1.902   4.135  12.226  1.7613 -0.4421  0.7783
 2848TIP3    H229960   1.833   4.209  12.339  0.9573  0.2777 -0.1699
 2849TIP3   OH229961   1.726   0.132  14.302  0.0091 -0.0151 -0.1166
 2849TIP3    H129962   1.705   0.130  14.209 -0.0368 -0.0820 -0.1039
 2849TIP3    H229963   1.751   0.042  14.323  1.2150  0.2448 -0.3494
 2850TIP3   OH229964   5.238   0.507   1.820 -0.0852 -0.0351  0.8328
 2850TIP3    H129965   5.161   0.456   1.793 -0.1505  0.8499 -0.8029
 2850TIP3    H229966   5.258   0.476   1.908 -1.2277 -1.5556  0.5937
 2851TIP3   OH229967   6.164   1.425  16.361 -0.0682  0.8617 -0.2079
 2851TIP3    H129968   6.092   1.365  16.379  0.7440 -0.7092 -1.8364
 2851TIP3    H229969   6.123   1.502  16.323 -1.0701  1.0358  1.1755
 2852TIP3   OH229970   4.501   2.410   2.553 -0.2449  0.0766 -0.1858
 2852TIP3    H129971   4.550   2.387   2.474  1.5782 -3.2451  1.6984
 2852TIP3    H229972   4.413   2.375   2.539  0.2019 -0.8954 -0.5812
 2853TIP3   OH229973   4.051   5.830  17.050  0.1326  0.1407  0.4362
 2853TIP3    H129974   4.021   5.824  17.141 -0.3089 -1.4122  0.2235
 2853TIP3    H229975   4.075   5.740  17.027  1.8379  0.7785 -0.4670
 2854TIP3   OH229976   3.671   0.958  14.902 -0.3175 -0.2676  0.2892
 2854TIP3    H129977   3.639   0.879  14.945 -1.0592 -0.1376 -0.0226
 2854TIP3    H229978   3.612   1.027  14.931  0.4577  0.2268  0.7354
 2855TIP3   OH229979   2.569   3.766   1.918 -0.1486 -0.4802  0.0890
 2855TIP3    H129980   2.579   3.705   1.991 -0.7651 -0.0643  0.5354
 2855TIP3    H229981   2.580   3.852   1.957  0.1605 -0.2814 -0.4320
 2856TIP3   OH229982   3.274   1.301  11.837  0.2328  0.1724  0.0533
 2856TIP3    H129983   3.230   1.253  11.908  1.4982  1.0291  1.4640
 2856TIP3    H229984   3.295   1.386  11.875 -2.2542  2.1097 -2.4683
 2857TIP3   OH229985   6.603   1.988  16.898 -0.0280  0.3255 -0.0918
 2857TIP3    H129986   6.690   1.955  16.920 -0.0731 -0.8391 -1.5019
 2857TIP3    H229987   6.620   2.059  16.836 -0.0799 -0.7447 -1.3785
 2858TIP3   OH229988   4.164   5.169  13.067  0.0270 -0.1244 -0.6971
 2858TIP3    H129989   4.097   5.225  13.029  1.1693  0.3417 -2.1209
 2858TIP3    H229990   4.178   5.100  13.002  1.1514 -0.0166 -0.5891
 2859TIP3   OH229991   4.129   2.505   4.874 -0.4891 -0.0879  0.1472
 2859TIP3    H129992   4.135   2.487   4.780 -0.4541 -2.1184  0.4752
 2859TIP3    H229993   4.054   2.453   4.903 -0.8892  1.0257  1.1421
 2860TIP3   OH229994   3.921   0.585  16.531 -0.1979 -0.3420 -0.2232
 2860TIP3    H129995   3.850   0.564  16.470 -0.3538 -0.9650  0.1610
 2860TIP3    H229996   3.960   0.665  16.496 -1.1098  0.0303 -0.4237
 2861TIP3   OH229997   1.118   4.147  13.420  0.0321  0.2437  0.4257
 2861TIP3    H129998   1.137   4.073  13.363 -0.1251  0.3142  0.2823
 2861TIP3    H229999   1.192   4.150  13.481  0.2202  0.1935  0.1999
 2862TIP3   OH230000   1.455   4.588   5.902  0.0936 -0.4940 -0.1766
 2862TIP3    H130001   1.379   4.562   5.954  0.2392  0.0489  0.3160
 2862TIP3    H230002   1.518   4.517   5.914 -0.5178 -1.1970 -0.9963
 2863TIP3   OH230003   1.208   5.478   2.504 -0.0113 -0.1217  0.0188
 2863TIP3    H130004   1.147   5.460   2.577 -1.2763  1.0293 -0.7018
 2863TIP3    H230005   1.232   5.391   2.471 -1.9999 -0.6362 -0.2336
 2864TIP3   OH230006   6.471   5.825   3.593 -0.1052  0.1550  0.2024
 2864TIP3    H130007   6.416   5.759   3.635  1.5864 -0.5015  1.5358
 2864TIP3    H230008   6.448   5.907   3.637 -3.7223  1.0233 -2.8847
 2865TIP3   OH230009   0.725   6.752  14.421 -0.4324  0.4923  0.0197
 2865TIP3    H130010   0.649   6.778  14.472 -0.6879 -0.0691 -0.0796
 2865TIP3    H230011   0.709   6.787  14.333 -0.1946  1.0783  0.2048
 2866TIP3   OH230012   5.547   4.899  15.234  0.4515 -0.2239  0.6045
 2866TIP3    H130013   5.509   4.821  15.193 -1.6085 -0.0395  1.9945
 2866TIP3    H230014   5.593   4.943  15.163 -2.8731  0.0587 -1.5931
 2867TIP3   OH230015   2.794   5.528   3.132  0.3542  0.2123  0.3878
 2867TIP3    H130016   2.877   5.574   3.118  0.3911 -0.0709 -0.3954
 2867TIP3    H230017   2.754   5.572   3.207  1.4024  0.0826  1.0382
 2868TIP3   OH230018   1.195   6.330   4.970 -0.1420 -0.1175  0.8057
 2868TIP3    H130019   1.163   6.240   4.978 -0.2500 -0.2802 -0.9832
 2868TIP3    H230020   1.178   6.353   4.879 -0.5171  1.9000  1.3478
 2869TIP3   OH230021   0.470   1.518   6.535  0.3015 -0.1808 -0.1788
 2869TIP3    H130022   0.536   1.515   6.467 -2.2933 -0.5250 -2.9075
 2869TIP3    H230023   0.440   1.609   6.536 -0.1858 -0.3382 -0.0071
 2870TIP3   OH230024   4.826   5.380  12.902  0.4719 -0.2589 -0.0000
 2870TIP3    H130025   4.857   5.293  12.928  0.8622 -0.6199 -1.5695
 2870TIP3    H230026   4.755   5.400  12.964 -0.3160 -2.1387 -0.2393
 2871TIP3   OH230027   2.978   0.321  12.607  0.3647  0.2778  0.3723
 2871TIP3    H130028   3.013   0.409  12.599  1.0192 -0.0216 -0.0886
 2871TIP3    H230029   2.971   0.307  12.701  0.2004  0.8364  0.4500
 2872TIP3   OH230030   0.962   1.268  12.662  0.4666  0.6990  0.2891
 2872TIP3    H130031   0.916   1.344  12.627  0.7777  0.7309 -0.0504
 2872TIP3    H230032   1.006   1.301  12.741  2.6184  1.5071 -1.1606
 2873TIP3   OH230033   5.875   2.095  12.540 -0.2848 -0.2265 -0.2832
 2873TIP3    H130034   5.806   2.065  12.481  0.3409 -0.6872 -0.7986
 2873TIP3    H230035   5.948   2.117  12.482  1.4787 -3.5626  0.3725
 2874TIP3   OH230036   2.747   4.797   0.579  0.1023 -0.2516  0.1942
 2874TIP3    H130037   2.778   4.835   0.662 -0.6510 -0.3919  0.5518
 2874TIP3    H230038   2.827   4.785   0.527  0.4859  0.7422  0.5162
 2875TIP3   OH230039   6.781   1.261   3.868 -0.4875 -0.2942  0.5159
 2875TIP3    H130040   6.820   1.193   3.923 -0.0448 -1.5765 -1.3070
 2875TIP3    H230041   6.702   1.288   3.916  0.3137 -0.7568  2.1607
 2876TIP3   OH230042   0.128   6.139   2.325 -0.5461  0.5436  0.1872
 2876TIP3    H130043   0.168   6.059   2.360 -0.9161  0.6860  0.9620
 2876TIP3    H230044   0.100   6.187   2.403  2.3122  2.8599 -0.0362
 2877TIP3   OH230045   0.040   4.363  13.598 -0.6154  0.6351  0.0211
 2877TIP3    H130046   0.095   4.439  13.617  1.0446 -0.1305 -1.4164
 2877TIP3    H230047   0.053   4.347  13.504  0.4249 -2.3761  0.5581
 2878TIP3   OH230048   3.874   0.638  14.074  0.2493 -0.6076 -0.0423
 2878TIP3    H130049   3.798   0.610  14.022  1.6332 -0.1196 -2.5133
 2878TIP3    H230050   3.930   0.560  14.076  0.5798 -0.3676 -0.0084
 2879TIP3   OH230051   5.249   3.189   3.583 -0.2002 -0.4758  0.1610
 2879TIP3    H130052   5.241   3.181   3.487 -0.8492  0.3599  0.1325
 2879TIP3    H230053   5.178   3.135   3.617 -2.6297  2.3885  0.0383
 2880TIP3   OH230054   0.140   5.551   3.862 -0.2399  0.3349 -0.0727
 2880TIP3    H130055   0.172   5.462   3.875 -3.6936 -1.2975 -1.4517
 2880TIP3    H230056   0.094   5.572   3.943  2.5928  2.0044  1.2473
 2881TIP3   OH230057   4.748   3.597   5.667  0.4402 -0.5559  0.5765
 2881TIP3    H130058   4.737   3.623   5.758 -0.2594  1.1399  0.0532
 2881TIP3    H230059   4.665   3.554   5.644  0.8212 -1.4670  0.8763
 2882TIP3   OH230060   3.359   0.996  14.165 -0.2716  0.5963  0.6332
 2882TIP3    H130061   3.272   0.969  14.137  0.0154  0.9438 -0.7089
 2882TIP3    H230062   3.349   1.019  14.257 -1.3391 -0.4350  0.7970
 2883TIP3   OH230063   4.133   3.161  14.102  0.0328 -0.1614  0.3388
 2883TIP3    H130064   4.088   3.182  14.184  1.8814  0.9623  1.1415
 2883TIP3    H230065   4.124   3.240  14.049  0.8546  0.0160  0.4450
 2884TIP3   OH230066   5.090   2.188  14.930 -0.6143 -0.2280  0.0296
 2884TIP3    H130067   5.068   2.095  14.923  0.5600 -0.5354  0.2745
 2884TIP3    H230068   5.079   2.221  14.841  0.2080 -0.9052 -0.3462
 2885TIP3   OH230069   4.615   6.316   5.063  0.4014 -0.2077  0.2345
 2885TIP3    H130070   4.538   6.282   5.108 -0.7902  0.6071 -1.0933
 2885TIP3    H230071   4.671   6.350   5.133 -1.3611  0.9972  1.1379
 2886TIP3   OH230072   4.973   1.621  16.875 -0.5710 -0.1010 -0.4721
 2886TIP3    H130073   4.893   1.623  16.822 -2.0138 -2.2436  1.4137
 2886TIP3    H230074   5.014   1.537  16.853 -0.7358 -0.6241  1.0515
 2887TIP3   OH230075   2.519   1.539  15.269  0.1724 -0.2343 -0.0126
 2887TIP3    H130076   2.501   1.614  15.212 -0.8986  0.9024  1.7240
 2887TIP3    H230077   2.433   1.513  15.301  0.5303 -2.2500 -0.5811
 2888TIP3   OH230078   0.752   5.968   2.445  0.5091 -0.2296 -0.4908
 2888TIP3    H130079   0.678   5.908   2.439 -0.8664  1.3541 -0.2273
 2888TIP3    H230080   0.773   5.989   2.354 -0.9793  1.1281 -0.5714
 2889TIP3   OH230081   5.136   2.154  16.595  0.1013 -0.9576  0.2804
 2889TIP3    H130082   5.090   2.170  16.678  1.8462  0.9223  0.9925
 2889TIP3    H230083   5.077   2.099  16.545 -2.3988  0.3801  1.5538
 2890TIP3   OH230084   2.480   2.552   1.366  0.4808  0.0310  0.3503
 2890TIP3    H130085   2.551   2.523   1.309  2.4964  1.0027  2.2270
 2890TIP3    H230086   2.485   2.494   1.442 -1.4903 -0.5925  0.0482
 2891TIP3   OH230087   1.658   0.405  14.049  0.3397 -0.2305 -0.3178
 2891TIP3    H130088   1.668   0.323  14.099  3.0056 -1.5728 -2.7211
 2891TIP3    H230089   1.589   0.386  13.986 -0.2264  0.0281  0.2103
 2892TIP3   OH230090   5.354   0.232   4.677  0.4912  0.3525 -0.2288
 2892TIP3    H130091   5.338   0.313   4.726  1.7065  1.5872 -1.7434
 2892TIP3    H230092   5.388   0.171   4.742 -0.4291  1.0483  0.9544
 2893TIP3   OH230093   4.188   0.068   0.298 -0.1490 -0.2935 -0.4268
 2893TIP3    H130094   4.280   0.084   0.316 -0.7057  1.1509  1.3517
 2893TIP3    H230095   4.176   0.098   0.207  0.5488  2.3258  0.2630
 2894TIP3   OH230096   1.348   4.535  13.326  0.1073 -0.1419  0.3170
 2894TIP3    H130097   1.368   4.453  13.371 -0.9267 -0.5208  0.1083
 2894TIP3    H230098   1.314   4.593  13.395 -1.7278 -0.8100  0.0226
 2895TIP3   OH230099   5.432   4.249   4.453  0.0251 -0.0172  0.0154
 2895TIP3    H130100   5.483   4.314   4.406 -0.0805  0.4457  0.5399
 2895TIP3    H230101   5.382   4.299   4.518 -0.0331 -0.6173  0.4423
 2896TIP3   OH230102   5.833   6.550  15.668 -0.5965  0.4685  0.2229
 2896TIP3    H130103   5.909   6.605  15.650 -0.9530  1.8266  2.4796
 2896TIP3    H230104   5.761   6.593  15.622 -0.6461  1.2647  1.0136
 2897TIP3   OH230105   2.791   5.800   1.804 -0.7790  0.1311  1.2015
 2897TIP3    H130106   2.866   5.745   1.778 -0.6261  0.4405  0.9742
 2897TIP3    H230107   2.715   5.742   1.798 -0.6414 -0.0087  0.7896
 2898TIP3   OH230108   2.606   4.556   5.397  0.0690  0.0716 -0.2581
 2898TIP3    H130109   2.578   4.479   5.447  1.2932 -0.9086 -1.0340
 2898TIP3    H230110   2.691   4.578   5.434 -0.6440  1.6563  0.5691
 2899TIP3   OH230111   5.310   2.587   5.048  0.6480  0.2647 -0.3420
 2899TIP3    H130112   5.350   2.503   5.070 -1.5553 -1.0692 -1.1137
 2899TIP3    H230113   5.269   2.573   4.963  0.5071  2.2576 -0.6608
 2900TIP3   OH230114   2.256   2.788   1.409 -0.6315  0.1620 -0.2231
 2900TIP3    H130115   2.277   2.820   1.321 -2.0149 -1.6125 -1.2859
 2900TIP3    H230116   2.204   2.708   1.393 -1.3413  0.0641  2.2098
 2901TIP3   OH230117   0.964   1.023   0.307 -0.4163 -0.1686 -0.3267
 2901TIP3    H130118   0.884   1.038   0.257  0.7767 -2.7711 -3.4243
 2901TIP3    H230119   1.003   0.945   0.267  4.3050  1.6076  0.1580
 2902TIP3   OH230120   2.751   0.030   5.526  0.2333 -0.7475  0.0944
 2902TIP3    H130121   2.823   0.093   5.538  1.2381 -1.6319 -1.0598
 2902TIP3    H230122   2.780  -0.048   5.573  0.3605 -1.3350 -0.9322
 2903TIP3   OH230123   0.414   0.808   2.459 -1.0667  0.4033  0.0565
 2903TIP3    H130124   0.450   0.895   2.441 -2.0179  1.0817  1.2768
 2903TIP3    H230125   0.435   0.792   2.551 -0.8719 -0.6870 -0.1637
 2904TIP3   OH230126   4.974   1.166  16.224  0.0043 -0.0833  0.1487
 2904TIP3    H130127   4.938   1.212  16.148  0.3197 -0.6366 -0.3413
 2904TIP3    H230128   4.934   1.210  16.299  0.3043  0.9984 -0.3017
 2905TIP3   OH230129   0.878   2.983   5.577 -0.1373 -0.1069 -0.1200
 2905TIP3    H130130   0.841   2.987   5.489 -3.3813 -0.3738  1.1075
 2905TIP3    H230131   0.865   3.071   5.614 -2.3742 -0.9443  1.3065
 2906TIP3   OH230132   4.568   6.139  11.331 -0.0085  0.2879 -0.7662
 2906TIP3    H130133   4.583   6.044  11.326 -0.2288  0.2207 -0.1271
 2906TIP3    H230134   4.562   6.158  11.424  0.4540  1.0036 -0.8734
 2907TIP3   OH230135   5.631   4.448   4.407 -0.3107  0.6699 -0.3045
 2907TIP3    H130136   5.702   4.421   4.466 -0.1339  0.7326 -0.4878
 2907TIP3    H230137   5.667   4.437   4.319 -0.4635  0.8766 -0.3952
 2908TIP3   OH230138   3.726   4.244   4.017 -0.2113 -0.2433 -0.3834
 2908TIP3    H130139   3.774   4.308   3.964 -1.5367  0.4368 -0.7848
 2908TIP3    H230140   3.690   4.182   3.953 -0.0613 -0.6332 -0.0964
 2909TIP3   OH230141   4.613   1.897   1.735 -0.8232 -0.2431 -0.7788
 2909TIP3    H130142   4.671   1.908   1.659 -0.9573 -1.7187 -1.1292
 2909TIP3    H230143   4.635   1.810   1.770 -2.1010 -0.3995 -0.3012
 2910TIP3   OH230144   3.708   5.847  13.112 -0.0045 -0.3940  0.2428
 2910TIP3    H130145   3.795   5.830  13.074 -0.6787 -0.8453 -1.1726
 2910TIP3    H230146   3.690   5.938  13.091 -0.5839 -0.7776 -1.0125
 2911TIP3   OH230147   5.353   3.123  13.354 -0.1516  0.0642 -0.3430
 2911TIP3    H130148   5.347   3.080  13.439  1.3263  0.2732 -0.1022
 2911TIP3    H230149   5.446   3.141  13.343 -0.3615  0.3632 -1.8504
 2912TIP3   OH230150   6.118   3.653   4.682 -0.1574  0.3823 -0.1816
 2912TIP3    H130151   6.131   3.605   4.764  1.4224 -0.3106 -0.7958
 2912TIP3    H230152   6.050   3.717   4.702  0.2772  0.3100  1.6984
 2913TIP3   OH230153   1.007   3.381  16.474 -0.7092 -0.0786 -1.2764
 2913TIP3    H130154   1.089   3.344  16.442 -0.6905 -0.6514 -0.5971
 2913TIP3    H230155   1.031   3.430  16.553 -1.4490 -3.7343  1.5432
 2914TIP3   OH230156   4.708   5.320   3.208  0.0672  0.2050  0.6539
 2914TIP3    H130157   4.765   5.370   3.149 -1.5275 -0.6743 -1.7628
 2914TIP3    H230158   4.625   5.368   3.208 -0.8394 -1.2835 -0.1187
 2915TIP3   OH230159   2.882   4.407   1.856  0.0936 -0.2661  0.9538
 2915TIP3    H130160   2.804   4.353   1.865  0.2961 -0.3562  2.4857
 2915TIP3    H230161   2.932   4.367   1.785  0.4851 -2.4389  2.3677
 2916TIP3   OH230162   4.838   4.779   4.588  0.4615 -0.2275  0.3361
 2916TIP3    H130163   4.933   4.777   4.593  0.3932 -0.2736  2.6976
 2916TIP3    H230164   4.811   4.689   4.606 -0.0317  0.1542  1.6808
 2917TIP3   OH230165   3.312   6.065   1.355  0.1923  0.0624 -0.3411
 2917TIP3    H130166   3.310   5.973   1.381  0.5892  0.2211  0.2898
 2917TIP3    H230167   3.220   6.092   1.355 -0.0612 -0.6917 -1.9082
 2918TIP3   OH230168   5.389   0.887   6.405  0.0530  0.3225 -0.3490
 2918TIP3    H130169   5.391   0.906   6.499  5.1892  0.3313 -0.1806
 2918TIP3    H230170   5.370   0.971   6.364  3.2558  1.7462  0.7585
 2919TIP3   OH230171   4.670   0.648   4.415 -0.2704  0.3967  0.7691
 2919TIP3    H130172   4.711   0.734   4.405  1.4276 -0.3607  0.7489
 2919TIP3    H230173   4.677   0.608   4.328  0.3599 -0.3260  1.1406
 2920TIP3   OH230174   2.157   0.825  15.091  0.1122  0.4961 -0.2844
 2920TIP3    H130175   2.088   0.855  15.150  0.3331  1.2622 -0.4053
 2920TIP3    H230176   2.229   0.801  15.149 -0.0578  0.2298 -0.1857
 2921TIP3   OH230177   0.604   4.715   0.242 -0.1837  0.6330  0.4233
 2921TIP3    H130178   0.538   4.650   0.265  0.0194  0.4459  0.4731
 2921TIP3    H230179   0.666   4.668   0.187  1.0553  0.2657  2.0754
 2922TIP3   OH230180   1.413   2.678  17.157 -0.1358  0.1242 -0.5279
 2922TIP3    H130181   1.459   2.749  17.202  0.1609 -0.7543  0.6099
 2922TIP3    H230182   1.479   2.639  17.099 -0.2446  0.6357 -1.0047
 2923TIP3   OH230183   2.634   2.916  10.367  0.0251  0.7205 -0.0773
 2923TIP3    H130184   2.622   2.947  10.278  0.1889 -0.3508 -0.4847
 2923TIP3    H230185   2.727   2.895  10.373 -0.1879 -0.2547 -0.0120
 2924TIP3   OH230186   3.724   2.458   3.782 -0.5283  0.3426  0.2349
 2924TIP3    H130187   3.644   2.481   3.734  0.1297  2.3551  0.0253
 2924TIP3    H230188   3.704   2.479   3.873 -0.5168  0.0114  0.3163
 2925TIP3   OH230189   1.317   2.870   5.643  0.6816 -0.0955  0.0110
 2925TIP3    H130190   1.293   2.902   5.556  2.2984  0.7913 -0.1519
 2925TIP3    H230191   1.267   2.789   5.653  1.6694 -1.1289 -2.4372
 2926TIP3   OH230192   2.868   3.544   0.580 -0.4387  0.1696 -0.1993
 2926TIP3    H130193   2.914   3.461   0.595 -1.0710 -0.2866 -0.7502
 2926TIP3    H230194   2.824   3.562   0.663 -1.4113 -0.7534 -0.4965
 2927TIP3   OH230195   5.547   5.726   4.062  0.0413 -0.0664 -0.0225
 2927TIP3    H130196   5.628   5.703   4.017  0.6930  0.3147  0.9149
 2927TIP3    H230197   5.480   5.723   3.994  1.0003  0.6215 -1.0440
 2928TIP3   OH230198   0.287   3.488  16.055  0.0877  0.4554 -0.4268
 2928TIP3    H130199   0.338   3.419  16.098 -1.4184 -1.4705 -1.5350
 2928TIP3    H230200   0.337   3.510  15.977 -0.1178 -0.5084 -0.8495
 2929TIP3   OH230201   1.276   2.359  10.462  0.2022  0.3808 -0.3212
 2929TIP3    H130202   1.182   2.363  10.480  0.4259 -0.4273  1.3202
 2929TIP3    H230203   1.304   2.277  10.504  1.5787  0.4256 -1.0946
 2930TIP3   OH230204   1.672   6.550   3.080  0.3288  0.3615 -0.1159
 2930TIP3    H130205   1.705   6.623   3.027  1.6689 -0.3021 -0.2394
 2930TIP3    H230206   1.583   6.536   3.048  0.7313  0.6852 -1.4485
 2931TIP3   OH230207   2.206   1.979  11.515 -0.2768 -0.9524  0.1377
 2931TIP3    H130208   2.189   2.073  11.515 -0.8080 -0.9962 -1.9041
 2931TIP3    H230209   2.301   1.972  11.510 -0.1079 -0.5886  1.9997
 2932TIP3   OH230210   3.757   3.174   2.552  0.6275  0.5926  0.0732
 2932TIP3    H130211   3.719   3.165   2.639 -0.4356 -0.0518 -0.4451
 2932TIP3    H230212   3.757   3.269   2.535 -1.5516  0.5826 -0.2439
 2933TIP3   OH230213   0.856   0.364   1.022  0.2483 -0.7503 -0.1456
 2933TIP3    H130214   0.944   0.363   0.984  0.2464 -0.2876 -0.1597
 2933TIP3    H230215   0.844   0.453   1.055 -0.2273 -0.8041 -0.1616
 2934TIP3   OH230216   0.032   5.216   3.613 -0.1083 -0.3851  0.5016
 2934TIP3    H130217  -0.047   5.269   3.601 -0.9198 -1.7754 -0.5765
 2934TIP3    H230218   0.089   5.241   3.540  0.5043  0.6621  1.3132
 2935TIP3   OH230219   3.699   5.378   2.995  0.6072  0.3872 -0.5072
 2935TIP3    H130220   3.781   5.335   2.970  0.1958 -0.3468 -0.6133
 2935TIP3    H230221   3.649   5.383   2.914  0.2866  0.2517 -0.3175
 2936TIP3   OH230222   4.271   4.568   2.292 -0.1395  0.1717  0.6116
 2936TIP3    H130223   4.218   4.541   2.217  0.0014 -1.2771  0.9861
 2936TIP3    H230224   4.310   4.651   2.266 -0.3350 -0.1501 -0.8068
 2937TIP3   OH230225   5.075   1.175   4.254 -0.2852  0.0981  0.2757
 2937TIP3    H130226   5.131   1.249   4.275  0.0536 -0.2323  0.5558
 2937TIP3    H230227   5.036   1.150   4.338 -0.6666  0.1789  0.1219
 2938TIP3   OH230228   0.072   0.049  14.763  0.5026  0.1978 -0.0638
 2938TIP3    H130229  -0.019   0.042  14.791  0.8147 -0.1336  0.9135
 2938TIP3    H230230   0.091  -0.035  14.721  0.9220 -0.5309  1.5121
 2939TIP3   OH230231   0.533   0.133  14.779 -0.1917  0.4087  0.3997
 2939TIP3    H130232   0.439   0.137  14.765  0.2331  1.9000 -3.3364
 2939TIP3    H230233   0.552   0.207  14.837 -1.1864  1.0629 -0.0759
 2940TIP3   OH230234   0.488   3.091  17.083  0.3580 -0.5756  0.1357
 2940TIP3    H130235   0.577   3.121  17.104 -0.1514  0.8919  0.3487
 2940TIP3    H230236   0.477   3.113  16.991  0.5497 -1.6880 -0.1689
 2941TIP3   OH230237   5.272   4.893   6.507  0.5665 -0.1627  0.5513
 2941TIP3    H130238   5.335   4.883   6.436  0.4761 -0.6853  0.5347
 2941TIP3    H230239   5.259   4.803   6.539 -0.8283 -0.1872 -0.0261
 2942TIP3   OH230240   0.522   0.064  11.432  0.0479 -0.3401 -0.3381
 2942TIP3    H130241   0.477   0.009  11.368  0.5373 -0.2806 -0.7439
 2942TIP3    H230242   0.574   0.003  11.485  0.3842 -0.3004 -0.6172
 2943TIP3   OH230243   5.538   3.745   0.021  0.0951  0.5525 -0.4296
 2943TIP3    H130244   5.484   3.666   0.010  0.5544 -0.1228  1.7678
 2943TIP3    H230245   5.527   3.792  -0.062 -1.1035 -1.2431 -1.3727
 2944TIP3   OH230246   3.532   2.618   2.760 -0.9089  0.0896 -0.2597
 2944TIP3    H130247   3.584   2.538   2.765 -0.2226  0.6018  1.6038
 2944TIP3    H230248   3.443   2.591   2.785 -0.7990 -0.1882 -0.1666
 2945TIP3   OH230249   5.549   4.874   5.647  0.3744 -0.8237 -0.6275
 2945TIP3    H130250   5.482   4.868   5.579 -0.2438 -0.0397 -0.1109
 2945TIP3    H230251   5.549   4.967   5.671  2.3980 -0.5909 -1.3539
 2946TIP3   OH230252   4.924   0.750  13.790 -0.0094  0.2792 -0.2680
 2946TIP3    H130253   4.995   0.722  13.847 -0.9012  0.8387  1.1734
 2946TIP3    H230254   4.962   0.749  13.702  1.1854 -1.3070  0.2214
 2947TIP3   OH230255   5.206   2.345  14.701 -0.3265  0.3877 -0.0250
 2947TIP3    H130256   5.299   2.325  14.709 -0.6230 -0.3030  2.9301
 2947TIP3    H230257   5.201   2.439  14.717 -0.2697  0.0469  2.3691
 2948TIP3   OH230258   3.649   5.908   5.015 -0.1234  0.0703  0.0763
 2948TIP3    H130259   3.658   5.981   5.076  0.5125 -0.3829  0.5444
 2948TIP3    H230260   3.594   5.942   4.944  0.0246  0.9447  0.3670
 2949TIP3   OH230261   3.010   6.680   1.474  0.4267 -0.0656  0.4739
 2949TIP3    H130262   2.993   6.681   1.380  2.2739  2.0059  0.0819
 2949TIP3    H230263   3.092   6.632   1.483  0.4710  0.1027  0.9961
 2950TIP3   OH230264   2.276   1.088  13.315 -0.0628 -0.7150  0.6042
 2950TIP3    H130265   2.291   1.122  13.403  0.5893  0.1412  0.1836
 2950TIP3    H230266   2.254   1.166  13.263 -0.9711 -1.2843  0.1179
 2951TIP3   OH230267   4.600   5.558  11.693 -0.1357  0.1119  0.4295
 2951TIP3    H130268   4.682   5.543  11.740  1.0968  0.1148 -1.5850
 2951TIP3    H230269   4.579   5.650  11.711  3.1080  1.7787 -2.8674
 2952TIP3   OH230270   5.977   5.845   5.971  0.3234  0.2693 -0.1833
 2952TIP3    H130271   6.043   5.815   6.034 -0.1322  1.3224  0.8357
 2952TIP3    H230272   5.991   5.940   5.964  0.7703  0.1067 -2.1883
 2953TIP3   OH230273   1.983   4.514  12.082  0.3747 -0.3447  0.6245
 2953TIP3    H130274   2.060   4.511  12.138  0.5785  3.4735  0.8203
 2953TIP3    H230275   1.939   4.596  12.105 -0.3890  0.7198 -3.6028
 2954TIP3   OH230276   4.010   0.809   5.189 -0.0410 -0.0935  0.3594
 2954TIP3    H130277   3.964   0.829   5.107  4.0273  0.6698 -2.0437
 2954TIP3    H230278   3.954   0.845   5.258 -2.5989  1.3506 -2.2404
 2955TIP3   OH230279   6.306   3.558  15.027  0.2117  0.3148 -0.0283
 2955TIP3    H130280   6.223   3.603  15.043  0.1694  0.4219 -0.5359
 2955TIP3    H230281   6.318   3.504  15.104  0.1419  1.0145  0.4851
 2956TIP3   OH230282   6.787   4.419  11.227  0.1336  0.9524  0.1646
 2956TIP3    H130283   6.765   4.455  11.313  0.7907 -0.3561  0.9127
 2956TIP3    H230284   6.829   4.491  11.181 -0.1590  1.6529  0.9719
 2957TIP3   OH230285   1.840   3.569  10.560  0.5945 -0.1762  0.7485
 2957TIP3    H130286   1.913   3.514  10.531  2.0427  1.0569  1.8999
 2957TIP3    H230287   1.857   3.654  10.518 -1.2815 -0.3813 -0.5275
 2958TIP3   OH230288   3.305   3.822  13.108 -0.3070  0.0205  0.2386
 2958TIP3    H130289   3.320   3.743  13.159 -1.5408  1.3976  2.9839
 2958TIP3    H230290   3.391   3.846  13.073  0.8125 -0.6142  2.3913
 2959TIP3   OH230291   5.866   0.404  16.716 -0.0782 -0.6718 -0.6009
 2959TIP3    H130292   5.773   0.384  16.706  0.5268 -3.7975 -0.8591
 2959TIP3    H230293   5.884   0.469  16.648 -1.9944 -0.1365 -0.6548
 2960TIP3   OH230294   6.625   6.757  15.677 -0.9910  0.3612  0.0450
 2960TIP3    H130295   6.586   6.844  15.682 -2.1394 -0.2069  1.4246
 2960TIP3    H230296   6.682   6.752  15.754 -0.6095  0.0270 -0.2530
 2961TIP3   OH230297   2.161   6.513  11.224  0.0507 -0.2357 -0.6371
 2961TIP3    H130298   2.190   6.548  11.140  0.4387 -0.4964 -0.6089
 2961TIP3    H230299   2.229   6.451  11.250  0.3857  0.4965  0.2938
 2962TIP3   OH230300   1.168   2.646   1.757  0.2707 -0.8239  0.2390
 2962TIP3    H130301   1.152   2.625   1.849 -1.6948  0.3588  0.2337
 2962TIP3    H230302   1.108   2.719   1.738  0.4066 -1.2254 -2.0560
 2963TIP3   OH230303   0.493   0.467   5.563  0.4251 -0.1669  0.4423
 2963TIP3    H130304   0.564   0.531   5.554  0.6979 -0.7130 -2.0848
 2963TIP3    H230305   0.536   0.382   5.555 -0.3003 -0.5766  0.7746
 2964TIP3   OH230306   5.694   0.088   2.029 -0.1301  0.4845 -0.0422
 2964TIP3    H130307   5.744   0.094   2.110 -0.2596  0.3649  0.0464
 2964TIP3    H230308   5.758   0.102   1.960  0.1162 -0.1583  0.0483
 2965TIP3   OH230309   6.070   4.302  12.371  0.3264 -0.0219 -0.4163
 2965TIP3    H130310   6.117   4.308  12.288 -0.0431  1.5730 -0.5438
 2965TIP3    H230311   5.979   4.283  12.346  0.2254  0.4049 -0.3792
 2966TIP3   OH230312   3.668   4.346   1.320 -0.2043 -0.7030  0.7391
 2966TIP3    H130313   3.653   4.428   1.366 -0.3197 -0.8894  1.0389
 2966TIP3    H230314   3.762   4.330   1.330 -0.4001 -1.2749  1.8286
 2967TIP3   OH230315   0.565   5.330  11.513  0.5674 -0.3280  0.6296
 2967TIP3    H130316   0.658   5.313  11.497  0.4065 -0.7542  0.1237
 2967TIP3    H230317   0.520   5.254  11.476 -0.0758  0.5355 -0.4163
 2968TIP3   OH230318   5.469   3.198   4.227  0.4712  0.3656  0.3579
 2968TIP3    H130319   5.440   3.117   4.186  1.5541 -0.7896  1.7524
 2968TIP3    H230320   5.539   3.230   4.169 -0.6927  0.9520 -0.7860
 2969TIP3   OH230321   5.632   2.483   4.448  0.5248  0.7753 -0.2642
 2969TIP3    H130322   5.582   2.411   4.485 -2.0344  1.5404 -1.9813
 2969TIP3    H230323   5.654   2.538   4.522 -2.4042  1.0827  0.4890
 2970TIP3   OH230324   0.548   2.653  11.548  0.2852  0.2850  0.1933
 2970TIP3    H130325   0.571   2.699  11.468  0.1979  2.2051  1.2056
 2970TIP3    H230326   0.593   2.569  11.542 -0.2019  0.1357 -2.1082
 2971TIP3   OH230327   3.812   3.088   1.371 -0.4626 -0.3705  0.1200
 2971TIP3    H130328   3.723   3.053   1.373 -0.4192 -0.8078 -2.1747
 2971TIP3    H230329   3.868   3.011   1.361  0.1121 -0.0316  0.6529
 2972TIP3   OH230330   2.264   5.357   4.165  0.1063 -0.2124  0.4163
 2972TIP3    H130331   2.336   5.355   4.229  3.5375  1.1375 -3.0085
 2972TIP3    H230332   2.233   5.448   4.167  0.1572 -0.1909  0.2459
 2973TIP3   OH230333   5.235   3.140  16.513 -0.7096 -0.3230  0.6415
 2973TIP3    H130334   5.236   3.063  16.570  1.0579 -0.4233  0.5350
 2973TIP3    H230335   5.256   3.213  16.570  0.3229 -0.3205  0.2860
 2974TIP3   OH230336   3.475   2.862   1.492 -0.0415 -0.0499 -0.0949
 2974TIP3    H130337   3.518   2.930   1.439 -0.1077 -0.2899 -0.4625
 2974TIP3    H230338   3.511   2.874   1.580  1.9159 -1.1483 -0.6647
 2975TIP3   OH230339   3.522   6.027  15.716  0.4713  0.0176 -0.2934
 2975TIP3    H130340   3.430   6.049  15.733  0.8351  0.3667  1.4096
 2975TIP3    H230341   3.518   5.945  15.668 -0.7867  1.2995 -2.6155
 2976TIP3   OH230342   5.302   0.433   4.087  0.3175  0.3710 -0.0867
 2976TIP3    H130343   5.259   0.369   4.144  1.0162 -1.3529 -1.4117
 2976TIP3    H230344   5.259   0.422   4.002  3.5042 -1.7532 -1.5912
 2977TIP3   OH230345   1.882   0.925  14.119 -0.1049 -0.0980  0.2561
 2977TIP3    H130346   1.945   0.861  14.085 -1.0375 -0.7488 -0.2784
 2977TIP3    H230347   1.879   0.907  14.213  1.5453  0.8808  0.5414
 2978TIP3   OH230348   5.268   3.495   6.336 -0.1595 -0.4676 -0.3278
 2978TIP3    H130349   5.225   3.578   6.359 -0.1624 -0.7837  0.8852
 2978TIP3    H230350   5.278   3.499   6.241  1.5942  1.7646 -0.1314
 2979TIP3   OH230351   0.275   1.659  16.528 -0.0833 -0.4638 -0.0616
 2979TIP3    H130352   0.245   1.594  16.592 -0.4921  0.7591  1.0494
 2979TIP3    H230353   0.361   1.686  16.559  0.8033 -1.6025 -1.4225
 2980TIP3   OH230354   5.730   4.729   0.395  0.2510  0.3686 -0.0509
 2980TIP3    H130355   5.808   4.758   0.443  0.6059 -2.3178  1.1719
 2980TIP3    H230356   5.764   4.706   0.308  0.5893  0.2805  0.1026
 2981TIP3   OH230357   5.554   0.627   1.956  0.5287  0.6867  0.3126
 2981TIP3    H130358   5.479   0.575   1.982  0.6376 -0.4546 -1.4569
 2981TIP3    H230359   5.630   0.571   1.974  1.0764  2.0204  2.5636
 2982TIP3   OH230360   0.793   5.457  10.959  0.1707 -0.4093  0.2829
 2982TIP3    H130361   0.887   5.440  10.953  0.1808 -0.7699  1.3381
 2982TIP3    H230362   0.763   5.455  10.868  0.7544 -2.7650  0.0665
 2983TIP3   OH230363   4.397   6.593   4.642  0.0252 -0.5284 -0.4571
 2983TIP3    H130364   4.354   6.593   4.557 -0.4295 -1.3747 -0.2364
 2983TIP3    H230365   4.357   6.520   4.689  1.9812 -1.5716 -0.3661
 2984TIP3   OH230366   4.310   2.964   2.542 -0.0420 -0.6343 -0.0576
 2984TIP3    H130367   4.296   2.986   2.450 -0.8375  0.2772  0.2629
 2984TIP3    H230368   4.370   3.032   2.574 -0.5483 -0.3595  0.3283
 2985TIP3   OH230369   4.613   6.044   4.151  0.2606 -0.3316 -0.2597
 2985TIP3    H130370   4.685   6.033   4.213 -0.5061 -1.7950  0.4174
 2985TIP3    H230371   4.584   6.134   4.164  0.9344 -0.2207  0.5837
 2986TIP3   OH230372   4.185   4.951   1.749  0.3795  0.1334 -0.4430
 2986TIP3    H130373   4.200   4.984   1.838  0.7200  2.1843 -1.2033
 2986TIP3    H230374   4.236   4.871   1.745  1.2013  0.5464  0.8958
 2987TIP3   OH230375   4.697   0.149   5.863  0.3938 -0.1031  0.3588
 2987TIP3    H130376   4.666   0.076   5.809  0.5981 -0.1501  0.3027
 2987TIP3    H230377   4.717   0.110   5.948 -0.9261  0.1541  0.8115
 2988TIP3   OH230378   0.809   3.519  12.573 -0.0284  0.2864  0.8005
 2988TIP3    H130379   0.894   3.536  12.613  0.9395  1.8636 -1.6911
 2988TIP3    H230380   0.754   3.593  12.600 -0.0043  0.2865  0.8485
 2989TIP3   OH230381   2.714   6.523  11.991 -0.8059 -0.1385 -0.1808
 2989TIP3    H130382   2.685   6.449  12.045  1.6276  0.5971  2.3607
 2989TIP3    H230383   2.633   6.566  11.965 -2.1907 -1.8988  0.9235
 2990TIP3   OH230384   4.121   0.917   0.392 -0.2150 -0.4480 -0.0700
 2990TIP3    H130385   4.091   1.000   0.430 -1.3268 -0.4391 -0.8947
 2990TIP3    H230386   4.073   0.850   0.442  0.0210 -0.5536  0.0159
 2991TIP3   OH230387   3.474   2.431   0.430  0.2363 -0.0920 -0.1377
 2991TIP3    H130388   3.426   2.365   0.479  0.6198 -0.0906  0.2528
 2991TIP3    H230389   3.523   2.382   0.364  0.2131 -0.1615 -0.1027
 2992TIP3   OH230390   3.614   0.058   1.448  0.5923  0.2243  0.2160
 2992TIP3    H130391   3.632   0.045   1.541 -0.1265 -0.1627  0.3070
 2992TIP3    H230392   3.699   0.045   1.405  0.8248 -0.0919  0.7675
 2993TIP3   OH230393   5.882   6.120   2.254  0.8084 -0.6254  0.7458
 2993TIP3    H130394   5.811   6.056   2.265 -1.2028  1.1979 -0.8061
 2993TIP3    H230395   5.960   6.074   2.286 -0.1790 -4.4165 -1.5479
 2994TIP3   OH230396   1.022   5.546   0.046 -0.1924  0.0568  0.2502
 2994TIP3    H130397   1.112   5.571   0.066 -0.0715 -0.2392  0.0842
 2994TIP3    H230398   0.968   5.606   0.097  0.0952  0.6278 -0.1085
 2995TIP3   OH230399   4.340   4.613  11.358 -0.0135  0.6444  0.2974
 2995TIP3    H130400   4.258   4.650  11.325  0.2307  2.0696  1.1674
 2995TIP3    H230401   4.354   4.658  11.441  0.9148 -0.6422  0.8695
 2996TIP3   OH230402   0.637   2.568  14.152 -0.1771 -0.0913 -0.1167
 2996TIP3    H130403   0.547   2.534  14.148 -0.8202  1.6186 -1.7419
 2996TIP3    H230404   0.687   2.511  14.093 -0.2496 -0.8549  0.5462
 2997TIP3   OH230405   2.579   6.023   0.720 -0.0363  0.0881  0.0407
 2997TIP3    H130406   2.594   5.957   0.788 -3.3628 -1.6765 -0.7295
 2997TIP3    H230407   2.667   6.057   0.700  1.8144 -3.5359  1.0850
 2998TIP3   OH230408   1.512   6.576   5.421  0.7019 -0.4900  0.9547
 2998TIP3    H130409   1.561   6.584   5.503  1.7663  0.3532  0.2555
 2998TIP3    H230410   1.547   6.645   5.365  0.5603 -1.5614 -0.5162
 2999TIP3   OH230411   2.472   5.432   0.612 -0.1960 -0.2969  0.4223
 2999TIP3    H130412   2.554   5.411   0.568 -0.8104 -0.7472 -0.5390
 2999TIP3    H230413   2.462   5.527   0.601  0.4138 -0.1666  0.9504
 3000TIP3   OH230414   6.751   2.685   5.061  0.3749  0.3256 -0.4467
 3000TIP3    H130415   6.691   2.642   5.001 -1.6055  1.0814  0.8762
 3000TIP3    H230416   6.781   2.615   5.120 -0.0960  0.1343 -0.4332
 3001TIP3   OH230417   4.825   2.848   0.940  0.1669  0.4074  0.0710
 3001TIP3    H130418   4.798   2.921   0.884 -0.0388  0.3578  0.1060
 3001TIP3    H230419   4.809   2.770   0.888  1.5864  0.4467 -0.4585
 3002TIP3   OH230420   5.932   5.040  13.876  0.4527 -0.2466 -0.1681
 3002TIP3    H130421   5.904   5.027  13.785 -0.1777  1.3128 -0.2250
 3002TIP3    H230422   6.026   5.020  13.875  0.8830  1.5440 -1.6078
 3003TIP3   OH230423   0.167   4.050  15.396  0.3647  0.2315 -0.9343
 3003TIP3    H130424   0.216   4.075  15.474 -2.4892  2.0896  0.4355
 3003TIP3    H230425   0.209   4.098  15.325  1.2341  0.8222 -0.0432
 3004TIP3   OH230426   6.055   2.463   4.530  0.3000  0.2264 -0.6364
 3004TIP3    H130427   6.016   2.543   4.567 -0.9767 -0.6727  0.0630
 3004TIP3    H230428   6.132   2.494   4.482  0.5080  1.7450  0.5808
 3005TIP3   OH230429   5.818   2.044  16.198  0.1553  0.5700  0.4662
 3005TIP3    H130430   5.820   1.978  16.267 -0.3345  0.6080  0.5254
 3005TIP3    H230431   5.909   2.058  16.175  0.2518 -0.3981  0.1987
 3006TIP3   OH230432   0.834   2.576   2.809  0.3718  0.1994 -0.3879
 3006TIP3    H130433   0.751   2.619   2.792  0.9133  1.6462  0.4532
 3006TIP3    H230434   0.812   2.484   2.825 -1.3268  0.9295  1.9266
 3007TIP3   OH230435   4.760   2.666  11.773 -0.3868  0.3969  0.1409
 3007TIP3    H130436   4.838   2.644  11.723 -0.7822  0.4025 -0.4848
 3007TIP3    H230437   4.790   2.731  11.837  0.1318  0.3370 -0.0353
 3008TIP3   OH230438   0.467   4.706   2.413  0.7213 -0.3786  0.0498
 3008TIP3    H130439   0.443   4.775   2.352  2.1353 -0.6735 -0.8880
 3008TIP3    H230440   0.438   4.737   2.498  3.2625  2.4337  0.0370
 3009TIP3   OH230441   0.525   0.945   0.136  0.0805 -0.1761  0.3240
 3009TIP3    H130442   0.455   0.965   0.074  2.1627  0.1348 -2.1105
 3009TIP3    H230443   0.516   1.011   0.204 -2.5664 -0.7991  0.6899
 3010TIP3   OH230444   2.735   6.527   1.873 -0.6525  0.4616 -0.4495
 3010TIP3    H130445   2.773   6.611   1.900 -1.1619  0.5188  0.1230
 3010TIP3    H230446   2.742   6.526   1.778 -0.6635  1.1654 -0.4599
 3011TIP3   OH230447   4.359   3.851  12.852  0.2300  0.2416  1.0265
 3011TIP3    H130448   4.271   3.880  12.827 -0.1581 -1.0325  0.8522
 3011TIP3    H230449   4.352   3.830  12.945  0.2713 -0.1211  0.9500
 3012TIP3   OH230450   3.962   5.026   2.172  0.5636  0.2435 -0.0387
 3012TIP3    H130451   3.976   5.111   2.131  1.9496  0.2333  0.3567
 3012TIP3    H230452   3.940   5.046   2.263  1.6796  0.1850  0.2600
 3013TIP3   OH230453   6.548   2.462  12.139  0.3830 -0.4063 -0.1295
 3013TIP3    H130454   6.632   2.505  12.122  0.2622  1.4775  3.1813
 3013TIP3    H230455   6.570   2.388  12.195  0.0512 -1.6637 -1.6031
 3014TIP3   OH230456   6.615   4.686   6.405 -0.3578 -0.4788 -0.1796
 3014TIP3    H130457   6.525   4.718   6.409 -0.0926  0.1695  0.9458
 3014TIP3    H230458   6.610   4.595   6.433 -0.2519  0.4916  3.3926
 3015TIP3   OH230459   1.808   6.486  16.027 -0.7217  0.0481 -0.0038
 3015TIP3    H130460   1.803   6.426  15.953  0.8769  0.6769 -0.6794
 3015TIP3    H230461   1.807   6.430  16.104  0.0277 -0.7919 -0.5937
 3016TIP3   OH230462   6.495   2.589  12.906 -0.7292  0.1236  0.5896
 3016TIP3    H130463   6.439   2.623  12.976 -0.0863  0.9828  0.6941
 3016TIP3    H230464   6.437   2.530  12.856 -1.5835  0.6066  0.9845
 3017TIP3   OH230465   2.772   4.358  14.158  0.2391 -0.2883 -0.1201
 3017TIP3    H130466   2.770   4.379  14.065  1.3347 -2.1544 -0.6135
 3017TIP3    H230467   2.842   4.414  14.194  0.4358 -0.2231 -0.6013
 3018TIP3   OH230468   5.253   2.199  11.914 -0.0442  0.0665  0.1595
 3018TIP3    H130469   5.345   2.190  11.890  0.5336  1.8433  1.4566
 3018TIP3    H230470   5.244   2.148  11.994  0.2025  1.0504  0.8318
 3019TIP3   OH230471   0.059   0.782  16.463  0.3723  0.0859 -0.1975
 3019TIP3    H130472  -0.003   0.742  16.524  1.1825  3.4103  3.1539
 3019TIP3    H230473   0.012   0.856  16.426  0.8744 -0.1613 -1.3867
 3020TIP3   OH230474   1.479   4.597   1.827 -0.3171 -0.2014 -0.1712
 3020TIP3    H130475   1.528   4.657   1.771 -0.4732 -0.5203 -0.6533
 3020TIP3    H230476   1.446   4.652   1.898 -0.5448  0.3007 -0.6612
 3021TIP3   OH230477   5.003   2.171  16.839  0.0177 -0.2811  0.0561
 3021TIP3    H130478   5.029   2.205  16.925 -0.4533 -1.5577  0.7259
 3021TIP3    H230479   5.026   2.078  16.842 -0.3763 -0.4263 -1.0567
 3022TIP3   OH230480   3.882   5.264   3.773  0.1558  0.0007 -0.0228
 3022TIP3    H130481   3.970   5.236   3.749  0.9981  2.0635  0.5349
 3022TIP3    H230482   3.833   5.261   3.690  1.0662  0.0144 -0.5730
 3023TIP3   OH230483   3.205   1.274  14.212  0.2185  0.6268 -0.3303
 3023TIP3    H130484   3.253   1.356  14.198  1.0940  0.5792  1.9075
 3023TIP3    H230485   3.246   1.236  14.290 -2.9316  0.2220  1.2972
 3024TIP3   OH230486   4.052   1.042  14.236  0.4811  0.3573  0.0023
 3024TIP3    H130487   4.003   1.118  14.265  2.5662  1.0902  1.8757
 3024TIP3    H230488   4.130   1.077  14.194  1.5761 -0.6732  1.0594
 3025TIP3   OH230489   6.264   0.144   0.011 -0.0171 -0.0334 -0.2489
 3025TIP3    H130490   6.337   0.189   0.053 -0.5038  0.6397 -0.1091
 3025TIP3    H230491   6.249   0.066   0.065 -0.4401  0.6673  0.6666
 3026TIP3   OH230492   2.877   3.850  15.665  0.3983  0.7586  0.6968
 3026TIP3    H130493   2.922   3.815  15.587 -0.6849  0.3564  0.2409
 3026TIP3    H230494   2.789   3.870  15.635 -0.1720  0.1698  1.9357
 3027TIP3   OH230495   2.291   5.185  14.099  0.6289 -0.4608  0.1753
 3027TIP3    H130496   2.264   5.151  14.184  1.0180 -2.1671 -0.3442
 3027TIP3    H230497   2.386   5.191  14.104  0.5862  0.3478  0.1645
 3028TIP3   OH230498   0.258   2.765   4.775  0.0144  0.1595  0.3606
 3028TIP3    H130499   0.201   2.814   4.834  1.2290  1.2164  0.7009
 3028TIP3    H230500   0.219   2.777   4.689 -1.8449 -1.4935  0.9013
 3029TIP3   OH230501   0.004   1.393  16.284 -0.3277  0.3153  0.0356
 3029TIP3    H130502   0.004   1.299  16.267  0.1002  0.1443  0.9102
 3029TIP3    H230503   0.091   1.423  16.257  1.1714 -0.3356  3.6499
 3030TIP3   OH230504   6.717   5.676  14.297 -0.1281  0.5688 -0.2585
 3030TIP3    H130505   6.812   5.678  14.290 -0.1516  0.9455 -0.5121
 3030TIP3    H230506   6.698   5.592  14.338  0.3118  0.4731 -0.2434
 3031TIP3   OH230507   5.214   6.771   0.168 -0.1358  0.1445  0.5284
 3031TIP3    H130508   5.307   6.751   0.158 -0.0916  0.1107  0.9905
 3031TIP3    H230509   5.171   6.686   0.166 -0.3274  0.2446 -1.2902
 3032TIP3   OH230510   3.279   5.953  12.653 -0.3449  0.3093  0.2268
 3032TIP3    H130511   3.263   5.993  12.738 -2.9497 -0.9221  0.4048
 3032TIP3    H230512   3.371   5.928  12.655  1.0523  4.6179  0.7108
 3033TIP3   OH230513   5.416   2.639  11.154  0.2184  0.2831 -0.7820
 3033TIP3    H130514   5.500   2.597  11.173  0.8439  1.2688 -1.2518
 3033TIP3    H230515   5.437   2.703  11.086 -1.5330 -1.7372 -3.4378
 3034TIP3   OH230516   2.993   1.500   1.960  0.3650 -0.4740  0.4344
 3034TIP3    H130517   2.941   1.426   1.992 -1.6123  0.1646 -1.1036
 3034TIP3    H230518   2.992   1.491   1.865  0.6393  1.1603  0.2413
 3035TIP3   OH230519   3.598   0.428   5.124  0.4129 -0.0442 -0.0047
 3035TIP3    H130520   3.589   0.522   5.108  0.6735 -0.2215 -1.3379
 3035TIP3    H230521   3.684   0.406   5.088 -0.5469 -1.1759 -1.7531
 3036TIP3   OH230522   1.547   0.353  13.135 -0.1803 -1.1427 -0.6130
 3036TIP3    H130523   1.625   0.400  13.164 -0.0606 -2.0186  0.5447
 3036TIP3    H230524   1.495   0.418  13.088  0.6061 -0.2091 -0.2112
 3037TIP3   OH230525   4.217   3.555   1.451  0.5605 -0.0007  0.6451
 3037TIP3    H130526   4.294   3.545   1.396  1.1996 -0.8035  1.6339
 3037TIP3    H230527   4.230   3.638   1.497 -0.2750  0.9829 -0.8248
 3038TIP3   OH230528   1.232   2.271   3.851  0.1602 -0.2555  0.7236
 3038TIP3    H130529   1.254   2.229   3.768 -0.4625  0.9934 -0.0880
 3038TIP3    H230530   1.317   2.294   3.889  0.4103  0.8835 -0.4790
 3039TIP3   OH230531   1.866   6.498   5.142 -0.2321 -0.1743 -0.2052
 3039TIP3    H130532   1.857   6.436   5.215  1.7373 -1.0687 -0.6557
 3039TIP3    H230533   1.959   6.521   5.142 -0.1176 -0.4005 -2.5570
 3040TIP3   OH230534   2.363   6.591  16.702 -0.1253 -0.3054  0.2571
 3040TIP3    H130535   2.412   6.647  16.762 -1.2249  1.8239 -0.7073
 3040TIP3    H230536   2.276   6.584  16.742 -2.3818  4.7444 -2.7346
 3041TIP3   OH230537   0.632   2.984   5.813 -0.5337 -0.5588 -0.6897
 3041TIP3    H130538   0.724   3.003   5.831 -0.9240 -0.0536  0.9667
 3041TIP3    H230539   0.620   2.895   5.844 -0.7863 -0.3205 -0.0786
 3042TIP3   OH230540   3.990   4.136   4.873 -0.2190 -0.0235  0.2696
 3042TIP3    H130541   3.961   4.057   4.917  0.3352 -0.8703 -0.8423
 3042TIP3    H230542   3.975   4.206   4.936  1.0252 -1.2468  2.0045
 3043TIP3   OH230543   5.807   5.033   1.251  0.1776  0.4293  0.4981
 3043TIP3    H130544   5.764   5.031   1.166 -0.0659 -1.5405  0.6237
 3043TIP3    H230545   5.735   5.038   1.314  0.3179  0.9611  0.6195
 3044TIP3   OH230546   3.201   1.100   1.274  0.6083 -0.6899 -0.2681
 3044TIP3    H130547   3.269   1.084   1.340  0.6013  0.7561  0.1175
 3044TIP3    H230548   3.246   1.089   1.190  1.2374 -0.0625 -0.0163
 3045TIP3   OH230549   0.360   3.237  16.462  0.4661 -0.0114  0.1837
 3045TIP3    H130550   0.314   3.154  16.453 -0.5294  0.0752  3.3126
 3045TIP3    H230551   0.302   3.291  16.514  1.8000  2.1126 -0.4000
 3046TIP3   OH230552   0.335   4.700   2.647 -0.3023  0.5703 -0.5149
 3046TIP3    H130553   0.260   4.752   2.679 -0.3590 -0.5818  1.3945
 3046TIP3    H230554   0.308   4.609   2.659  1.5074  0.1244  0.5327
 3047TIP3   OH230555   6.050   4.937   1.358 -0.2696 -0.3682 -0.1432
 3047TIP3    H130556   5.966   4.954   1.316 -1.3332 -1.1189  1.5591
 3047TIP3    H230557   6.078   5.022   1.390  0.2082  0.0864 -1.6882
 3048TIP3   OH230558   5.459   6.159  13.231  0.3695  0.3670 -0.5744
 3048TIP3    H130559   5.509   6.079  13.248  0.0234  0.3938  0.6816
 3048TIP3    H230560   5.524   6.223  13.204  0.5316 -0.5962 -2.7101
 3049TIP3   OH230561   5.718   3.721   2.188  0.3453 -0.4167 -0.3430
 3049TIP3    H130562   5.653   3.670   2.237  0.4165  0.0335  0.2265
 3049TIP3    H230563   5.763   3.656   2.134  0.0783 -0.8820 -0.0203
 3050TIP3   OH230564   6.653   6.702  15.131  0.4946 -0.0232 -0.5071
 3050TIP3    H130565   6.658   6.726  15.224 -1.0958  1.3538 -0.7387
 3050TIP3    H230566   6.603   6.772  15.091 -0.2079 -1.3983 -2.1418
 3051TIP3   OH230567   4.664   5.918   5.457 -0.4373 -0.0726 -0.2284
 3051TIP3    H130568   4.602   5.957   5.394  0.7462  0.3386 -1.1815
 3051TIP3    H230569   4.729   5.987   5.472 -0.3647 -0.3856  0.9905
 3052TIP3   OH230570   3.248   3.703  15.692 -0.0958  0.1837  0.2803
 3052TIP3    H130571   3.311   3.633  15.706  0.8252  0.5893 -1.5057
 3052TIP3    H230572   3.262   3.763  15.764  0.7548 -0.3046  0.5369
 3053TIP3   OH230573   4.002   4.115  15.384 -0.4657 -0.0568 -0.3162
 3053TIP3    H130574   4.056   4.040  15.358  1.6358  0.7161  1.5902
 3053TIP3    H230575   4.037   4.143  15.468 -1.1078  3.1620 -0.9895
 3054TIP3   OH230576   4.012   2.974  10.541 -0.2184 -1.0329 -0.0698
 3054TIP3    H130577   4.038   3.025  10.465 -0.7125  0.2090  0.5639
 3054TIP3    H230578   3.925   2.940  10.519 -1.2368  0.9256  0.6207
 3055TIP3   OH230579   6.266   2.817   0.320 -0.0308 -0.2614 -0.4419
 3055TIP3    H130580   6.244   2.884   0.385  0.2811 -1.0429  0.4960
 3055TIP3    H230581   6.351   2.783   0.347 -0.7435 -1.9191 -0.1349
 3056TIP3   OH230582   0.452   0.310   1.474  0.6261 -0.4023 -0.1108
 3056TIP3    H130583   0.483   0.312   1.383 -0.2672 -0.7395 -0.4442
 3056TIP3    H230584   0.503   0.377   1.519  1.0113 -0.1582 -0.8936
 3057TIP3   OH230585   2.021   6.521   1.302  0.1225 -0.0581 -0.0151
 3057TIP3    H130586   1.990   6.611   1.288  0.7547  0.2900  0.7314
 3057TIP3    H230587   2.067   6.525   1.386  1.2991 -0.7830 -0.6072
 3058TIP3   OH230588   2.846   0.398   1.234 -0.2043 -0.3027  0.1512
 3058TIP3    H130589   2.779   0.372   1.172  0.0589  1.2447 -0.8153
 3058TIP3    H230590   2.919   0.428   1.180  0.1736  0.7274  1.1963
 3059TIP3   OH230591   4.343   4.100  14.993 -0.2632  0.0567 -0.1812
 3059TIP3    H130592   4.259   4.111  15.038 -1.2482  1.1963 -2.1898
 3059TIP3    H230593   4.336   4.016  14.948 -1.4992  1.3173 -2.5366
 3060TIP3   OH230594   2.307   3.929  15.020 -0.2675 -0.3198 -0.2207
 3060TIP3    H130595   2.225   3.943  15.066 -0.9464 -1.8515 -0.9079
 3060TIP3    H230596   2.333   3.840  15.043  1.5553  0.3529  0.4952
 3061TIP3   OH230597   5.223   0.392  11.699  0.5650  0.3198  0.0718
 3061TIP3    H130598   5.189   0.451  11.632 -0.3827 -1.8726 -1.4905
 3061TIP3    H230599   5.169   0.314  11.692  1.5731 -0.6678  2.2570
 3062TIP3   OH230600   4.007   4.693  13.736  0.0728  0.0296  0.0155
 3062TIP3    H130601   4.056   4.624  13.781  0.2070  1.1314  1.6203
 3062TIP3    H230602   4.069   4.731  13.674  0.3086 -0.5898 -0.1377
 3063TIP3   OH230603   3.966   1.529   4.296 -0.5140  0.4926 -0.4873
 3063TIP3    H130604   4.040   1.517   4.356 -0.6347  1.7111 -0.0807
 3063TIP3    H230605   3.922   1.444   4.295 -0.3706  0.3872  0.9641
 3064TIP3   OH230606   1.932   4.418  16.401 -0.1572 -0.1330  0.0836
 3064TIP3    H130607   2.012   4.385  16.361  0.2221 -2.0316  2.2251
 3064TIP3    H230608   1.867   4.418  16.330  1.0105 -1.2930 -1.0255
 3065TIP3   OH230609   3.644   2.887   1.709  0.1113 -0.5699 -0.0611
 3065TIP3    H130610   3.654   2.793   1.694 -1.0633 -0.6124 -0.7492
 3065TIP3    H230611   3.722   2.912   1.758  0.9145 -1.7120 -0.7109
 3066TIP3   OH230612   5.753   5.575   1.834 -0.0028 -0.0600 -0.0672
 3066TIP3    H130613   5.732   5.483   1.820  2.2383 -0.5359 -0.6242
 3066TIP3    H230614   5.822   5.575   1.901 -2.4670  1.5018  2.7400
 3067TIP3   OH230615   4.461   0.654  12.683 -0.4785 -0.2014  0.1575
 3067TIP3    H130616   4.456   0.690  12.772  0.6342 -0.0988  0.1891
 3067TIP3    H230617   4.420   0.721  12.628  0.1641  0.4249  0.4158
 3068TIP3   OH230618   1.861   2.926  11.121 -0.5633 -0.1751 -0.5993
 3068TIP3    H130619   1.874   2.833  11.139  1.0664 -0.0541 -0.9823
 3068TIP3    H230620   1.930   2.969  11.170 -0.9463  0.7945 -0.8941
 3069TIP3   OH230621   1.583   0.525  16.424  0.5721 -0.1339 -0.5755
 3069TIP3    H130622   1.538   0.458  16.476  2.6976 -2.1813 -1.1907
 3069TIP3    H230623   1.625   0.581  16.489  0.2944 -0.5250 -0.0487
 3070TIP3   OH230624   1.812   4.678  17.053 -0.0402 -0.1679 -0.1071
 3070TIP3    H130625   1.829   4.756  17.001 -0.9253  0.1092 -0.0003
 3070TIP3    H230626   1.716   4.670  17.054 -0.1021  0.2958  2.1245
 3071TIP3   OH230627   3.795   0.176   4.240  0.6637  0.2562  0.0281
 3071TIP3    H130628   3.862   0.133   4.187 -1.1157 -1.1284 -1.2388
 3071TIP3    H230629   3.817   0.269   4.237  0.2745  0.3703 -3.8442
 3072TIP3   OH230630   0.904   6.085   5.090  0.6508  0.4017 -0.1690
 3072TIP3    H130631   0.960   6.088   5.012 -0.5511 -1.0102 -1.1410
 3072TIP3    H230632   0.956   6.127   5.158  2.5863 -0.1684 -1.2108
 3073TIP3   OH230633   4.494   1.499   5.214 -0.2552  0.3147 -0.1042
 3073TIP3    H130634   4.497   1.569   5.149  1.6842 -2.0057 -2.7994
 3073TIP3    H230635   4.540   1.534   5.290 -1.2440  2.6124 -0.4806
 3074TIP3   OH230636   1.486   1.801  15.295  0.3656  0.0126 -0.8570
 3074TIP3    H130637   1.448   1.716  15.274  1.6101 -1.0028  0.8114
 3074TIP3    H230638   1.572   1.781  15.331 -0.3407  1.7860  2.1129
 3075TIP3   OH230639   0.844   6.444   5.912  0.4027  0.0840  0.3513
 3075TIP3    H130640   0.782   6.397   5.968  0.0794  1.2547  1.0169
 3075TIP3    H230641   0.926   6.395   5.920  0.1879 -0.1346  1.3475
 3076TIP3   OH230642   0.066   1.853   0.371 -0.1574  0.1413 -0.2574
 3076TIP3    H130643   0.002   1.811   0.314  1.5259 -0.5339 -1.7726
 3076TIP3    H230644   0.136   1.789   0.380  1.8019  1.9832 -1.3766
 3077TIP3   OH230645   5.297   5.339   2.265 -0.0677  0.0286 -0.4183
 3077TIP3    H130646   5.305   5.391   2.345 -0.7720  0.7527 -0.8047
 3077TIP3    H230647   5.261   5.255   2.295  0.7127 -0.1159  0.1561
 3078TIP3   OH230648   0.989   0.791  16.678 -0.7386 -0.0645 -0.2745
 3078TIP3    H130649   1.078   0.786  16.713 -0.7225  0.6192 -0.1921
 3078TIP3    H230650   0.995   0.856  16.608 -1.5770  1.5732  1.0891
 3079TIP3   OH230651   4.606   3.390  10.898 -0.0070 -0.0419 -0.3640
 3079TIP3    H130652   4.586   3.300  10.874  1.0630 -0.0320 -1.3432
 3079TIP3    H230653   4.556   3.443  10.837 -1.0328  0.0595  0.5314
 3080TIP3   OH230654   2.376   3.112   1.033 -0.1201  0.6629  0.5670
 3080TIP3    H130655   2.414   3.154   0.956  1.0153 -1.2361  0.0202
 3080TIP3    H230656   2.289   3.152   1.042 -0.0938  1.2685 -1.4254
 3081TIP3   OH230657   2.340   2.471  12.792  1.0270  0.2992  0.0440
 3081TIP3    H130658   2.345   2.382  12.758 -0.3520  0.1139  0.2612
 3081TIP3    H230659   2.406   2.474  12.861  1.9290 -0.1685 -0.7832
 3082TIP3   OH230660   3.964   0.780   2.375 -0.7342 -0.4094 -0.3564
 3082TIP3    H130661   3.994   0.752   2.462 -3.0685 -0.6225  0.4816
 3082TIP3    H230662   4.034   0.755   2.316  0.7093 -0.7555  1.3971
 3083TIP3   OH230663   2.469   5.548  16.411 -0.1074 -0.8307  0.2341
 3083TIP3    H130664   2.377   5.576  16.411 -0.0676 -0.3741  3.5676
 3083TIP3    H230665   2.519   5.626  16.431  0.9943 -1.2463 -0.7457
 3084TIP3   OH230666   5.266   2.523  11.896 -0.1732 -0.1467  0.2593
 3084TIP3    H130667   5.179   2.487  11.878  0.4474 -0.2859 -3.1454
 3084TIP3    H230668   5.326   2.465  11.848  1.7577  0.3587  1.9385
 3085TIP3   OH230669   0.241   0.700   5.697  0.4032 -0.3574 -0.5186
 3085TIP3    H130670   0.226   0.764   5.767  1.1270 -0.8158  0.0744
 3085TIP3    H230671   0.323   0.728   5.657 -0.2339  0.1605 -1.4926
 3086TIP3   OH230672   0.542   5.458  16.252  0.0534 -0.3565 -0.1253
 3086TIP3    H130673   0.553   5.553  16.257 -0.1878 -0.2950 -0.6501
 3086TIP3    H230674   0.614   5.429  16.195 -0.2271 -0.4183 -0.4452
 3087TIP3   OH230675   3.623   4.461  13.893  0.4647  0.0810 -0.0919
 3087TIP3    H130676   3.674   4.460  13.812  0.2811  1.2380 -0.2360
 3087TIP3    H230677   3.609   4.369  13.914  0.0760 -0.2351 -1.6448
 3088TIP3   OH230678   6.200   3.929   4.652  0.6833 -0.3023 -0.4435
 3088TIP3    H130679   6.222   3.836   4.656 -0.9652 -0.6764  2.0007
 3088TIP3    H230680   6.153   3.939   4.570  0.7872 -1.6371 -0.6836
 3089TIP3   OH230681   5.719   1.840  15.245 -0.2770 -0.1184 -0.3056
 3089TIP3    H130682   5.738   1.874  15.157 -1.7185  0.4070 -0.4318
 3089TIP3    H230683   5.794   1.783  15.265  0.3447  0.1928 -1.6389
 3090TIP3   OH230684   0.183   1.460  13.706 -0.3235  0.5370  0.1668
 3090TIP3    H130685   0.183   1.483  13.799  0.3438 -0.4388  0.4207
 3090TIP3    H230686   0.265   1.413  13.693 -2.0095 -2.6474 -0.0591
 3091TIP3   OH230687   6.096   4.379   2.316  0.3281 -0.8437  0.4261
 3091TIP3    H130688   6.090   4.448   2.250 -0.4285 -1.0165  0.3047
 3091TIP3    H230689   6.092   4.426   2.400  0.1647 -0.7070  0.3439
 3092TIP3   OH230690   3.031   4.489  16.336  0.1870  0.4944  0.1494
 3092TIP3    H130691   3.013   4.438  16.257 -0.1323  0.5120  0.2070
 3092TIP3    H230692   2.968   4.456  16.400 -2.1212  2.9565 -0.6584
 3093TIP3   OH230693   5.631   4.616   3.008  0.0285 -0.1012 -0.2417
 3093TIP3    H130694   5.608   4.551   2.941 -0.1832  1.0392 -1.3155
 3093TIP3    H230695   5.570   4.600   3.079  0.8273 -1.9232  0.0884
 3094TIP3   OH230696   3.138   5.571  11.496  0.0698  0.2258 -0.5094
 3094TIP3    H130697   3.098   5.501  11.445 -0.0234  0.6926 -1.0853
 3094TIP3    H230698   3.100   5.562  11.583 -0.2587 -0.1744 -0.6911
 3095TIP3   OH230699   1.208   2.068   5.071  0.3157 -0.5175 -0.1685
 3095TIP3    H130700   1.181   2.075   5.162 -0.7117  1.1928 -0.5556
 3095TIP3    H230701   1.180   1.981   5.043 -0.2210 -0.6888  0.8745
 3096TIP3   OH230702   3.175   4.571   2.819  0.1700 -0.7130  0.0727
 3096TIP3    H130703   3.085   4.590   2.790  0.3035  0.5300  0.4160
 3096TIP3    H230704   3.196   4.487   2.778 -0.0097  0.4534 -2.6527
 3097TIP3   OH230705   0.845   5.188   0.908 -0.9001  0.3250 -0.2468
 3097TIP3    H130706   0.926   5.146   0.938 -0.2936  2.1518  0.8505
 3097TIP3    H230707   0.775   5.142   0.953 -0.3701 -0.3947 -0.1474
 3098TIP3   OH230708   0.914   3.068  16.487  0.2258 -0.2612 -0.0666
 3098TIP3    H130709   0.896   2.984  16.528  3.1006 -1.3834 -0.8879
 3098TIP3    H230710   0.829   3.097  16.453 -1.3197 -1.5667  2.4045
 3099TIP3   OH230711   4.289   0.933  12.215 -0.4977 -0.1047 -0.6462
 3099TIP3    H130712   4.364   0.898  12.168  0.4360  1.3995 -0.3491
 3099TIP3    H230713   4.216   0.877  12.190  0.7331 -1.6382 -0.8948
 3100TIP3   OH230714   5.759   4.663  13.584  0.4835  0.5080  0.0042
 3100TIP3    H130715   5.725   4.632  13.499  0.4244  1.1552 -0.2121
 3100TIP3    H230716   5.725   4.600  13.647  1.1510 -0.4274 -0.5397
 3101TIP3   OH230717   1.412   1.604   1.281  0.1503  0.0489 -0.1057
 3101TIP3    H130718   1.350   1.535   1.257  1.7257 -1.0549 -1.1533
 3101TIP3    H230719   1.428   1.590   1.374 -1.8773  1.0055  0.4733
 3102TIP3   OH230720   3.815   1.757  12.574  0.1927  0.1345 -0.8351
 3102TIP3    H130721   3.906   1.728  12.572  0.3856  0.7148 -0.8366
 3102TIP3    H230722   3.774   1.714  12.499  0.4358 -0.2345 -0.7541
 3103TIP3   OH230723   4.362   3.276   6.173  0.3965 -0.5683 -0.7033
 3103TIP3    H130724   4.361   3.181   6.161 -1.0872 -0.3975 -2.1569
 3103TIP3    H230725   4.282   3.295   6.222  1.2515 -0.1486  0.5866
 3104TIP3   OH230726   4.005   3.661   2.760 -0.2960  0.0878  0.1800
 3104TIP3    H130727   3.929   3.608   2.736 -0.2239 -0.3366  0.8542
 3104TIP3    H230728   3.972   3.723   2.825 -0.6021  1.5707 -1.3252
 3105TIP3   OH230729   4.012   2.043   2.724  0.3316 -0.2786  0.0160
 3105TIP3    H130730   4.032   2.087   2.641  0.8370 -1.4035 -0.4805
 3105TIP3    H230731   4.085   1.982   2.737 -0.6231 -1.3904  0.3595
 3106TIP3   OH230732   4.924   0.646  15.835 -0.4368 -0.3481 -0.0397
 3106TIP3    H130733   4.986   0.669  15.766 -0.8343 -1.8653 -0.9358
 3106TIP3    H230734   4.909   0.729  15.882  1.6836  0.2152 -0.2403
 3107TIP3   OH230735   6.716   1.194  16.554  0.2464 -0.0645  0.2484
 3107TIP3    H130736   6.641   1.247  16.524  0.2579  0.0920  0.4937
 3107TIP3    H230737   6.735   1.137  16.480 -0.0068  0.0145  0.1172
 3108TIP3   OH230738   0.485   6.612  11.643  0.0545 -0.2156 -0.3462
 3108TIP3    H130739   0.559   6.659  11.605  0.3009 -0.2047  0.1442
 3108TIP3    H230740   0.518   6.523  11.658  0.1725 -0.0455  0.4573
 3109TIP3   OH230741   0.282   6.329  10.754  0.3718  0.2198  0.2835
 3109TIP3    H130742   0.208   6.363  10.703  1.1860 -0.6210 -1.5717
 3109TIP3    H230743   0.345   6.301  10.688  1.4708 -1.0143  1.7858
 3110TIP3   OH230744   5.368   3.865   2.439  0.4331  0.0589 -0.1765
 3110TIP3    H130745   5.332   3.953   2.449  1.3777  0.4535 -0.1619
 3110TIP3    H230746   5.460   3.873   2.465  0.6590 -0.8175 -0.6556
 3111TIP3   OH230747   4.375   0.153  17.011 -0.7696  0.0371  0.2962
 3111TIP3    H130748   4.414   0.240  17.016 -1.5689  0.4705 -0.7094
 3111TIP3    H230749   4.439   0.102  16.961 -1.2150  0.5983 -0.8689
 3112TIP3   OH230750   4.424   6.743   5.064  0.0337  0.1859 -0.5786
 3112TIP3    H130751   4.420   6.768   5.156  2.6302 -0.5623 -0.1625
 3112TIP3    H230752   4.390   6.653   5.062  1.2479 -0.3130 -0.0511
 3113TIP3   OH230753   5.507   3.482  12.776 -0.3525  0.2526 -0.0676
 3113TIP3    H130754   5.586   3.518  12.737 -0.1247 -0.2165 -0.0563
 3113TIP3    H230755   5.538   3.403  12.822 -0.4357  1.2996  1.8941
 3114TIP3   OH230756   6.240   1.147  11.622  0.6178 -0.0448 -0.1851
 3114TIP3    H130757   6.288   1.227  11.645  0.9507  0.1112 -1.3614
 3114TIP3    H230758   6.229   1.153  11.527 -0.9246 -0.5323 -0.0551
 3115TIP3   OH230759   5.198   5.864  16.470 -0.3343 -0.3353 -0.1996
 3115TIP3    H130760   5.221   5.815  16.391  0.0488  0.5816 -0.6772
 3115TIP3    H230761   5.156   5.800  16.527  2.4145 -1.8543  0.2718
 3116TIP3   OH230762   3.465   6.222   0.224  0.1190 -0.8136  0.1277
 3116TIP3    H130763   3.486   6.295   0.166 -0.5770 -0.9443 -0.2997
 3116TIP3    H230764   3.397   6.256   0.283  1.1610 -0.5309  1.2092
 3117TIP3   OH230765   5.237   3.410  16.301 -0.2960 -0.9283 -0.3987
 3117TIP3    H130766   5.299   3.423  16.373 -0.1896  0.2403 -0.6815
 3117TIP3    H230767   5.268   3.469  16.232 -0.7755 -1.5526 -1.1583
 3118TIP3   OH230768   2.133   6.080  11.244  0.0961  0.0742 -0.3615
 3118TIP3    H130769   2.143   6.051  11.153 -0.4486  0.2714 -0.4856
 3118TIP3    H230770   2.040   6.068  11.262  0.6929 -3.3608  1.3194
 3119TIP3   OH230771   2.202   3.314  12.157 -0.2566 -0.2318  0.0208
 3119TIP3    H130772   2.272   3.253  12.177 -0.4375 -0.2977  0.4475
 3119TIP3    H230773   2.234   3.362  12.080  0.0093 -0.6540 -0.1344
 3120TIP3   OH230774   4.875   2.725  12.031  0.2193 -0.1143 -0.0016
 3120TIP3    H130775   4.837   2.652  11.982  0.0864  0.5466 -0.8911
 3120TIP3    H230776   4.811   2.741  12.101 -0.3649 -0.0514 -0.5396
 3121TIP3   OH230777   3.093   6.106   0.064 -0.0084  0.3329 -0.4212
 3121TIP3    H130778   3.078   6.055  -0.015 -0.1878 -0.3748  0.0568
 3121TIP3    H230779   3.034   6.181   0.057  0.2184  0.4510 -1.1039
 3122TIP3   OH230780   1.532   2.546  10.815 -0.0988  0.0181 -0.4907
 3122TIP3    H130781   1.583   2.581  10.888 -0.1531  1.3769 -1.0688
 3122TIP3    H230782   1.583   2.568  10.737 -0.6166 -0.3580 -0.9493
 3123TIP3   OH230783   4.006   3.044   5.569 -0.0030  0.1445  0.2659
 3123TIP3    H130784   4.005   3.095   5.651  1.8360  1.0809 -0.2394
 3123TIP3    H230785   3.936   3.083   5.516 -0.1552  0.6076  0.7922
 3124TIP3   OH230786   5.967   4.616  14.884 -0.5467  0.0262 -0.3163
 3124TIP3    H130787   5.987   4.524  14.871  2.2230  0.5127 -0.0336
 3124TIP3    H230788   6.046   4.653  14.924 -1.8522  2.3760  0.3151
 3125TIP3   OH230789   4.170   3.968  11.366 -0.1994  0.2778 -0.1760
 3125TIP3    H130790   4.079   3.987  11.343  0.2457  0.5607 -1.8556
 3125TIP3    H230791   4.201   4.048  11.407 -0.7307  0.1465  0.4987
 3126TIP3   OH230792   5.129   0.365   3.870  0.4901 -0.5279  0.3853
 3126TIP3    H130793   5.075   0.287   3.883  0.2633 -0.7098 -1.3301
 3126TIP3    H230794   5.145   0.367   3.776  0.4742  1.5105  0.3675
 3127TIP3   OH230795   1.765   2.410  14.497  0.3301  0.3442  0.6847
 3127TIP3    H130796   1.830   2.480  14.494  0.7867 -0.0492  1.2326
 3127TIP3    H230797   1.689   2.446  14.451  0.3956  1.3714  1.3316
 3128TIP3   OH230798   2.517   5.372  11.862  0.1354  0.1554 -0.5407
 3128TIP3    H130799   2.478   5.348  11.947 -0.0195  0.4858 -0.5196
 3128TIP3    H230800   2.514   5.290  11.812 -1.6141  0.4181 -0.9282
 3129TIP3   OH230801   0.439   5.398   1.763  0.6099  0.3031  0.7642
 3129TIP3    H130802   0.490   5.320   1.743  2.9525  1.5013  1.5384
 3129TIP3    H230803   0.417   5.389   1.856 -1.0924 -0.4409  0.3108
 3130TIP3   OH230804   5.717   6.270  14.858 -0.4091  0.1916 -0.3012
 3130TIP3    H130805   5.801   6.289  14.817  0.3213  0.2490  1.1386
 3130TIP3    H230806   5.663   6.346  14.839 -0.5113 -0.2830 -2.1066
 3131TIP3   OH230807   3.855   3.732  13.730  0.5076 -0.4106 -0.1655
 3131TIP3    H130808   3.830   3.789  13.657  1.7592 -0.3409 -0.5539
 3131TIP3    H230809   3.782   3.670  13.737 -0.6250  0.8770 -0.0812
 3132TIP3   OH230810   0.037   2.909  16.659 -0.3805 -0.1926  0.2221
 3132TIP3    H130811   0.088   2.838  16.699 -0.0572 -0.6580 -0.9772
 3132TIP3    H230812  -0.054   2.883  16.670 -0.2702 -0.6781 -0.0008
 3133TIP3   OH230813   3.221   3.275   0.291 -0.1346  0.4829  0.4293
 3133TIP3    H130814   3.312   3.251   0.277 -0.3248 -0.0048 -0.0328
 3133TIP3    H230815   3.198   3.233   0.374 -0.7362 -1.8575 -0.8250
 3134TIP3   OH230816   4.781   2.562  16.886  0.0853  0.3218 -0.1473
 3134TIP3    H130817   4.802   2.653  16.867 -0.3420  0.3155 -0.6340
 3134TIP3    H230818   4.718   2.566  16.958 -0.8266  0.4544 -0.9403
 3135TIP3   OH230819   5.265   6.526   1.072 -0.2225  0.6198  0.0128
 3135TIP3    H130820   5.219   6.443   1.084  0.6721  0.0757 -0.2327
 3135TIP3    H230821   5.206   6.592   1.109 -0.8051 -0.1594  0.4927
 3136TIP3   OH230822   5.893   2.558  16.216  0.1988 -0.4434  0.0090
 3136TIP3    H130823   5.930   2.589  16.298  1.5898 -0.8523 -0.4491
 3136TIP3    H230824   5.843   2.633  16.183  0.4420  0.0483  0.7455
 3137TIP3   OH230825   1.858   6.679   0.347 -0.2871  0.3563  0.0578
 3137TIP3    H130826   1.782   6.620   0.352  0.2951 -0.5219 -0.9395
 3137TIP3    H230827   1.926   6.626   0.307  0.5744  1.4307  0.0583
 3138TIP3   OH230828   0.318   1.251   0.631 -0.1156  0.4971  0.0702
 3138TIP3    H130829   0.319   1.197   0.552  0.1858 -0.0063  0.4151
 3138TIP3    H230830   0.288   1.191   0.701  0.5643  0.6771  0.5233
 3139TIP3   OH230831   3.153   5.971  17.022 -0.6126 -0.3788 -0.3859
 3139TIP3    H130832   3.167   5.882  16.989 -1.0457 -1.1207  1.3088
 3139TIP3    H230833   3.231   6.019  16.996  0.4041 -1.7159  0.1115
 3140TIP3   OH230834   4.465   6.386  15.636 -0.0467 -0.2960 -0.3171
 3140TIP3    H130835   4.502   6.348  15.715  0.7245 -1.3104 -1.1225
 3140TIP3    H230836   4.381   6.424  15.663 -0.5304 -1.9727  0.6977
 3141TIP3   OH230837   5.394   0.814  16.397  0.2023 -0.0666  0.1148
 3141TIP3    H130838   5.444   0.829  16.317  1.0976 -1.5184  0.3853
 3141TIP3    H230839   5.311   0.859  16.381  1.0180  1.1481 -0.9192
 3142TIP3   OH230840   0.345   0.119   1.998 -0.2263 -0.0159  0.2107
 3142TIP3    H130841   0.420   0.075   1.957  1.5266  1.4464  1.6704
 3142TIP3    H230842   0.271   0.063   1.977  1.5647 -2.6160  0.3079
 3143TIP3   OH230843   3.543   1.587  11.066  0.1276 -0.1583  0.1310
 3143TIP3    H130844   3.530   1.536  11.146 -0.0827 -1.4718 -0.7007
 3143TIP3    H230845   3.552   1.677  11.096 -0.4919 -0.5504  1.5863
 3144TIP3   OH230846   5.356   5.416   2.802  0.5535 -0.5641 -0.5679
 3144TIP3    H130847   5.308   5.365   2.867 -0.2549 -0.5194 -1.1131
 3144TIP3    H230848   5.346   5.507   2.830 -0.0071 -0.5253 -0.8889
 3145TIP3   OH230849   0.698   1.584   0.207  0.2998  0.2924  0.3280
 3145TIP3    H130850   0.651   1.519   0.155  1.3796  0.1226 -0.4905
 3145TIP3    H230851   0.763   1.533   0.256 -0.0333  0.5667  1.0589
 3146TIP3   OH230852   4.478   5.510   4.434 -0.0118 -0.8096  0.1535
 3146TIP3    H130853   4.387   5.482   4.448 -0.2271 -1.4449 -2.1589
 3146TIP3    H230854   4.528   5.429   4.430  0.1169 -0.6836 -1.7717
 3147TIP3   OH230855   5.374   3.066   1.378  0.2556 -0.6568  0.0585
 3147TIP3    H130856   5.339   3.102   1.459  0.3848 -1.0783  0.3012
 3147TIP3    H230857   5.343   3.127   1.310  0.2872 -0.2117  0.4373
 3148TIP3   OH230858   3.271   1.263   0.591 -0.2698 -0.9602  0.0052
 3148TIP3    H130859   3.290   1.170   0.583  1.9990 -0.5976  0.3921
 3148TIP3    H230860   3.330   1.294   0.660 -1.6304  0.5980  0.5372
 3149TIP3   OH230861   3.609   0.073  12.178  0.7734  0.5784  0.1436
 3149TIP3    H130862   3.643   0.049  12.265 -0.0341  0.6204  0.4782
 3149TIP3    H230863   3.685   0.067  12.120  0.8840 -1.6926  0.4255
 3150TIP3   OH230864   1.436   4.129   0.437 -0.2188  0.1959  0.1475
 3150TIP3    H130865   1.360   4.077   0.410  1.1856 -0.2012 -3.6030
 3150TIP3    H230866   1.440   4.200   0.374  2.3645  0.3560  0.3843
 3151TIP3   OH230867   0.825   6.565   3.921 -0.0649  0.5963 -0.6637
 3151TIP3    H130868   0.794   6.625   3.989 -0.8901 -0.1217 -0.3848
 3151TIP3    H230869   0.920   6.569   3.927 -0.0781 -0.7213  1.7095
 3152TIP3   OH230870   5.195   3.071  11.676  0.0495  0.0777  0.0114
 3152TIP3    H130871   5.158   3.006  11.616  1.2415 -1.4250  0.8308
 3152TIP3    H230872   5.286   3.080  11.649  0.4279 -0.1289  1.1346
 3153TIP3   OH230873   4.851   6.127   4.793  0.4354  0.0797 -0.2336
 3153TIP3    H130874   4.883   6.175   4.717  1.7725 -0.2860  0.0714
 3153TIP3    H230875   4.915   6.147   4.862  0.5262 -1.3977  0.1475
 3154TIP3   OH230876   4.528   1.922   6.337  0.3666  0.0970  0.2395
 3154TIP3    H130877   4.464   1.980   6.377 -0.7964 -1.9785  1.6103
 3154TIP3    H230878   4.606   1.976   6.325 -0.8675  2.0851  0.7261
 3155TIP3   OH230879   1.638   3.467   4.983  0.0840  0.8246  0.2843
 3155TIP3    H130880   1.724   3.442   4.949 -0.0002 -1.1482  1.3648
 3155TIP3    H230881   1.651   3.476   5.077 -1.2517 -1.4358  0.7412
 3156TIP3   OH230882   0.585   0.745  13.640  0.1487 -0.0840  0.1478
 3156TIP3    H130883   0.534   0.816  13.601 -0.2240 -0.1079  0.5825
 3156TIP3    H230884   0.521   0.675  13.655  0.7360 -1.0543 -1.5184
 3157TIP3   OH230885   0.375   3.750  11.673  0.2318 -1.3016 -0.6928
 3157TIP3    H130886   0.405   3.832  11.712  1.6151 -1.3866 -1.4993
 3157TIP3    H230887   0.327   3.706  11.742 -1.3388  0.5773 -0.5010
 3158TIP3   OH230888   0.718   3.426  13.893 -0.4609  0.0349 -0.0118
 3158TIP3    H130889   0.690   3.518  13.892  0.2690  0.3015  1.4255
 3158TIP3    H230890   0.637   3.377  13.878 -0.8138  0.9123 -1.0952
 3159TIP3   OH230891   4.925   4.612  15.954 -0.3498 -0.0054 -0.5688
 3159TIP3    H130892   4.956   4.528  15.921  0.4653 -1.6326  3.7557
 3159TIP3    H230893   4.831   4.600  15.966 -0.5630  0.4189 -1.7031
 3160TIP3   OH230894   3.750   1.197  13.998  0.4690  0.2234 -0.4521
 3160TIP3    H130895   3.740   1.284  14.038 -0.0344 -0.2728  0.5393
 3160TIP3    H230896   3.840   1.197  13.964  0.8320  0.7859  0.4510
 3161TIP3   OH230897   1.625   0.685  10.433 -0.5374  0.3720 -0.2108
 3161TIP3    H130898   1.533   0.676  10.407 -0.3861 -0.2096 -0.5739
 3161TIP3    H230899   1.647   0.600  10.472  0.0725  0.2211 -0.8696
 3162TIP3   OH230900   6.370   4.193   3.169  0.0063  0.1431 -0.5418
 3162TIP3    H130901   6.294   4.247   3.191  0.7318  0.8762  0.2929
 3162TIP3    H230902   6.389   4.144   3.249  0.0140 -0.5387 -0.9550
 3163TIP3   OH230903   1.510   0.441  14.550 -0.2160  0.2471  0.2876
 3163TIP3    H130904   1.574   0.372  14.566  0.2037  0.7874  0.9827
 3163TIP3    H230905   1.490   0.475  14.637  0.2752  1.6230 -0.1238
 3164TIP3   OH230906   1.099   6.677   4.700  0.1283 -0.4437 -0.3176
 3164TIP3    H130907   1.007   6.702   4.706  0.4363  0.8755 -0.6177
 3164TIP3    H230908   1.127   6.711   4.614  1.0634 -0.1844  0.0799
 3165TIP3   OH230909   4.056   5.582  14.451 -0.4646 -0.7666  0.1529
 3165TIP3    H130910   4.084   5.544  14.367  2.8488  2.3898 -0.4192
 3165TIP3    H230911   4.123   5.554  14.513 -0.9176 -0.1904  0.9111
 3166TIP3   OH230912   4.282   1.918   2.783 -0.4519 -0.4109  0.0226
 3166TIP3    H130913   4.330   1.970   2.719 -0.2623  0.5891  0.9410
 3166TIP3    H230914   4.294   1.965   2.866 -1.5552 -1.0922  0.5993
 3167TIP3   OH230915   0.540   3.423   0.672 -0.0113 -0.3325  0.2982
 3167TIP3    H130916   0.631   3.402   0.689 -0.5107 -1.9731  1.1636
 3167TIP3    H230917   0.517   3.490   0.737  1.0694  1.6055 -1.2109
 3168TIP3   OH230918   2.698   5.484  14.439 -0.1533  0.5917 -0.0278
 3168TIP3    H130919   2.646   5.565  14.441 -3.0163 -1.1173 -0.1431
 3168TIP3    H230920   2.789   5.514  14.437 -1.0748  3.7821  0.6612
 3169TIP3   OH230921   5.078   4.380  16.776 -0.1446 -0.4595  0.1053
 3169TIP3    H130922   5.168   4.383  16.810 -0.5208 -0.3594  1.1173
 3169TIP3    H230923   5.052   4.289  16.787  0.1316 -0.6863 -1.0152
 3170TIP3   OH230924   3.982   1.355   1.413 -0.3515  0.0543  0.8376
 3170TIP3    H130925   4.043   1.411   1.367 -3.5640  0.8001 -3.0193
 3170TIP3    H230926   4.020   1.267   1.405  1.0295  0.6839  0.1216
 3171TIP3   OH230927   4.526   5.948  14.518  0.0860  0.9279 -0.2134
 3171TIP3    H130928   4.614   5.964  14.482  0.2695 -0.5133 -0.4751
 3171TIP3    H230929   4.507   6.026  14.570  1.8398  0.9489  0.4687
 3172TIP3   OH230930   3.568   5.444   5.663 -0.1647  0.6836  0.3197
 3172TIP3    H130931   3.590   5.482   5.748  2.7011 -0.8535  0.3835
 3172TIP3    H230932   3.524   5.362   5.683  1.9359 -0.4803  0.4636
 3173TIP3   OH230933   0.230   1.977  12.712  0.0589  0.3228  0.0864
 3173TIP3    H130934   0.236   2.034  12.789 -0.1438  1.8077 -0.9666
 3173TIP3    H230935   0.321   1.966  12.683  0.1060  0.0227  0.3415
 3174TIP3   OH230936   4.709   3.191  15.572 -0.9414  0.0790 -0.0203
 3174TIP3    H130937   4.749   3.142  15.643  2.2152  1.3524 -0.7846
 3174TIP3    H230938   4.663   3.263  15.615 -1.0184 -0.4641  0.8204
 3175TIP3   OH230939   4.305   2.831   5.665 -0.3822  0.2413  0.5219
 3175TIP3    H130940   4.295   2.896   5.735  2.6773  2.3144 -0.7409
 3175TIP3    H230941   4.386   2.785   5.687 -0.0180  0.1121 -1.0218
 3176TIP3   OH230942   1.815   4.164   4.710  0.4580  0.6520  0.0200
 3176TIP3    H130943   1.867   4.206   4.779 -2.2258  1.5793  1.6183
 3176TIP3    H230944   1.743   4.121   4.756 -0.3150 -0.4510 -2.0803
 3177TIP3   OH230945   2.796   3.729  13.672 -0.4260 -0.0828  0.2877
 3177TIP3    H130946   2.836   3.750  13.587 -1.7559 -1.7906 -0.8415
 3177TIP3    H230947   2.789   3.814  13.716 -2.0912  1.3657 -2.4257
 3178TIP3   OH230948   4.879   6.439  12.345 -0.0877 -0.1266 -0.4115
 3178TIP3    H130949   4.844   6.527  12.356 -0.5925 -0.5205  1.7008
 3178TIP3    H230950   4.803   6.385  12.325  0.3367  0.0039 -2.5387
 3179TIP3   OH230951   4.497   0.405  17.017  0.0804  0.6141  0.6737
 3179TIP3    H130952   4.416   0.456  17.015  0.6953  1.6718  1.6621
 3179TIP3    H230953   4.566   0.470  17.022  0.9966 -0.2843  0.0228
 3180TIP3   OH230954   5.288   4.865  14.161 -0.3660  0.0423 -0.0333
 3180TIP3    H130955   5.358   4.801  14.162  0.1213  0.5396  2.0820
 3180TIP3    H230956   5.212   4.817  14.128  0.5382 -0.9642 -0.7211
 3181TIP3   OH230957   5.726   6.122  15.272  0.2391 -0.0934  0.7509
 3181TIP3    H130958   5.806   6.114  15.220 -0.7510 -0.7774 -0.7462
 3181TIP3    H230959   5.726   6.046  15.329  0.2572 -0.5430  0.1592
 3182TIP3   OH230960   1.365   5.456   1.789  0.1060  0.1103  0.3271
 3182TIP3    H130961   1.403   5.394   1.727  0.5722 -0.4312  1.1372
 3182TIP3    H230962   1.292   5.408   1.828  1.2680 -0.4583  1.9203
 3183TIP3   OH230963   0.656   1.074  12.065  0.5677 -0.4583  0.3799
 3183TIP3    H130964   0.718   1.130  12.111 -0.0818  2.0042 -1.5387
 3183TIP3    H230965   0.634   1.005  12.128  1.7829  1.1603  2.7022
 3184TIP3   OH230966   6.234   2.584   3.274  0.1103 -0.1800  0.0170
 3184TIP3    H130967   6.288   2.556   3.200 -0.9104  0.1651 -0.8860
 3184TIP3    H230968   6.279   2.661   3.309  0.2553  0.0614 -0.6824
 3185TIP3   OH230969   4.243   1.867   5.240  0.4354 -0.3469 -0.2690
 3185TIP3    H130970   4.284   1.817   5.311 -0.6549 -1.6575 -0.5156
 3185TIP3    H230971   4.193   1.802   5.190  0.9996  0.5665 -2.1386
 3186TIP3   OH230972   2.962   5.617   6.167 -0.0181 -0.6537 -0.2553
 3186TIP3    H130973   2.968   5.681   6.238 -3.9755 -1.8192  1.4141
 3186TIP3    H230974   3.047   5.573   6.167  1.2426  1.5601  1.5366
 3187TIP3   OH230975   2.804   2.355   2.560  0.2475 -0.0256 -0.7019
 3187TIP3    H130976   2.787   2.431   2.504 -0.2942  0.3397 -0.0616
 3187TIP3    H230977   2.897   2.336   2.548  0.0902 -0.1186 -1.9175
 3188TIP3   OH230978   2.562   4.762  14.694 -0.3215 -0.4549 -0.5127
 3188TIP3    H130979   2.500   4.702  14.736 -0.1827 -0.6032 -0.5159
 3188TIP3    H230980   2.618   4.705  14.641 -1.5685 -0.1098 -2.2691
 3189TIP3   OH230981   4.933   2.719  13.794 -0.6075 -0.0982  0.2009
 3189TIP3    H130982   4.896   2.669  13.867  1.3934  0.8445  1.9741
 3189TIP3    H230983   4.984   2.655  13.744 -1.2355 -0.5700  0.1540
 3190TIP3   OH230984   2.885   6.729  12.348  0.1141  0.4113 -0.3646
 3190TIP3    H130985   2.887   6.818  12.315 -0.4518  0.6020  0.0993
 3190TIP3    H230986   2.904   6.674  12.272  1.9164  0.9770 -0.3900
 3191TIP3   OH230987   3.576   2.353   3.262 -0.0084 -0.2595  0.6210
 3191TIP3    H130988   3.505   2.353   3.326 -0.7595  0.1762 -0.1852
 3191TIP3    H230989   3.594   2.260   3.246  0.5801 -0.3708  1.8724
 3192TIP3   OH230990   6.725   4.372  11.844 -0.3886  0.7327  0.0912
 3192TIP3    H130991   6.813   4.351  11.876  0.4849  1.9437 -1.3950
 3192TIP3    H230992   6.693   4.438  11.906  1.5230  3.4942 -1.6265
 3193TIP3   OH230993   5.117   4.409  10.760  0.4228  0.2211 -0.4749
 3193TIP3    H130994   5.074   4.474  10.704  0.1243  2.0305  1.7198
 3193TIP3    H230995   5.047   4.348  10.783  0.1549  0.4243 -0.7347
 3194TIP3   OH230996   5.924   1.900   2.770  0.0604  0.0269  0.2466
 3194TIP3    H130997   5.840   1.868   2.803  0.1272  1.1608  1.5761
 3194TIP3    H230998   5.902   1.974   2.715  0.2189  0.7760  1.1739
 3195TIP3   OH230999   6.239   4.762   0.112 -0.1574 -0.8633 -0.2663
 3195TIP3    H131000   6.238   4.710   0.032 -1.6519 -1.3521  0.0413
 3195TIP3    H231001   6.202   4.846   0.088 -1.3807 -1.2914  0.0717
 3196TIP3   OH231002   6.218   6.296   3.365 -0.0110 -0.1102  0.5571
 3196TIP3    H131003   6.234   6.388   3.384  3.0129 -0.3647 -0.2694
 3196TIP3    H231004   6.272   6.249   3.429 -0.5480 -1.2874  0.1703
 3197TIP3   OH231005   0.678   4.351  12.957  0.3342 -0.4605  0.2305
 3197TIP3    H131006   0.728   4.429  12.931  0.3391 -0.0771  1.3470
 3197TIP3    H231007   0.709   4.282  12.898 -0.2035  0.5296 -1.2916
 3198TIP3   OH231008   2.415   2.566  10.779  0.3888  0.3716  0.1907
 3198TIP3    H131009   2.359   2.554  10.702 -1.2116 -2.3090  1.6160
 3198TIP3    H231010   2.409   2.660  10.799  0.0895  0.9620 -2.3454
 3199TIP3   OH231011   2.327   0.269   3.629  0.0977 -0.4063  0.1550
 3199TIP3    H131012   2.405   0.262   3.574  0.7812  0.2471  1.0054
 3199TIP3    H231013   2.348   0.219   3.708  0.3010  1.0420  1.0689
 3200TIP3   OH231014   6.033   2.348  14.344  0.0117  0.4342  0.7079
 3200TIP3    H131015   6.045   2.435  14.382  0.1931  0.1425  1.3458
 3200TIP3    H231016   5.946   2.351  14.304 -0.3892  0.6210  1.5680
 3201TIP3   OH231017   0.394   5.232   4.822  0.2422  0.0571  0.1489
 3201TIP3    H131018   0.439   5.157   4.783  0.7601  0.5182 -0.1446
 3201TIP3    H231019   0.302   5.208   4.820  0.2761 -0.0305 -1.1349
 3202TIP3   OH231020   1.866   1.503  17.139  0.1685 -0.4555  0.2043
 3202TIP3    H131021   1.817   1.420  17.143  0.3671 -0.6645 -1.2881
 3202TIP3    H231022   1.801   1.567  17.110  0.2553 -0.2704  0.4133
 3203TIP3   OH231023   0.975   0.236  14.844  0.4702 -0.4287 -0.0108
 3203TIP3    H131024   0.917   0.193  14.782 -0.0312 -0.7718  0.6767
 3203TIP3    H231025   1.039   0.169  14.869 -0.6809 -1.0202  1.5312
 3204TIP3   OH231026   0.164   5.207   1.495 -0.4430 -0.1014 -0.3790
 3204TIP3    H131027   0.191   5.174   1.580  2.0743  2.7168  0.0677
 3204TIP3    H231028   0.240   5.194   1.439 -1.7181 -1.0141 -1.9988
 3205TIP3   OH231029   2.101   4.307  12.436 -0.3352  0.2587  0.1085
 3205TIP3    H131030   2.152   4.266  12.367  2.2586 -0.1384  2.1153
 3205TIP3    H231031   2.142   4.393  12.448  0.2353 -0.2470  2.0792
 3206TIP3   OH231032   5.041   5.028  10.727  0.1979  0.0142  0.7792
 3206TIP3    H131033   5.128   5.039  10.766  0.2225  0.5195  0.5987
 3206TIP3    H231034   5.024   5.112  10.684  0.2394 -0.5681 -0.4146
 3207TIP3   OH231035   1.621   2.296   4.880  0.3279  0.4210  0.3756
 3207TIP3    H131036   1.697   2.331   4.926 -0.4840  1.1178  1.2215
 3207TIP3    H231037   1.571   2.373   4.854 -0.2332 -0.0362  0.0778
 3208TIP3   OH231038   0.507   6.067   0.699 -0.0986 -0.1281  0.7962
 3208TIP3    H131039   0.545   6.144   0.740 -0.7894 -0.3684  1.9401
 3208TIP3    H231040   0.430   6.100   0.653  0.1696  0.0057  0.4380
 3209TIP3   OH231041   3.350   4.183   0.888  0.2070 -0.4633  0.0388
 3209TIP3    H131042   3.270   4.141   0.918  0.4486  0.8045  2.7749
 3209TIP3    H231043   3.320   4.255   0.832 -0.4201 -1.1451 -0.5264
 3210TIP3   OH231044   2.665   1.143   0.795 -0.5259  0.0664  0.2080
 3210TIP3    H131045   2.621   1.146   0.880 -0.9360 -0.4516  0.0161
 3210TIP3    H231046   2.608   1.090   0.740 -0.5130  0.8128 -0.5415
 3211TIP3   OH231047   5.314   0.943   0.001  0.3920  0.2924  0.0143
 3211TIP3    H131048   5.389   0.993  -0.029  1.3819 -0.3424  1.3338
 3211TIP3    H231049   5.302   0.969   0.093 -2.7476  2.4354 -0.8462
 3212TIP3   OH231050   1.465   1.433   4.588 -0.0624 -0.0993  0.4679
 3212TIP3    H131051   1.477   1.346   4.550 -2.2558 -0.0839 -0.4110
 3212TIP3    H231052   1.416   1.418   4.669 -1.1062  0.3268 -0.0618
 3213TIP3   OH231053   0.911   1.829   0.487  0.3791 -0.0833  0.3125
 3213TIP3    H131054   0.991   1.880   0.477  0.0686  0.1300 -1.5911
 3213TIP3    H231055   0.845   1.878   0.437 -0.7963 -0.5682  1.3189
 3214TIP3   OH231056   2.466   3.784   0.893 -0.5002  0.2261  0.4687
 3214TIP3    H131057   2.461   3.785   0.988 -1.1390 -0.1003  0.4481
 3214TIP3    H231058   2.442   3.873   0.866 -1.7953 -0.0766  0.5660
 3215TIP3   OH231059   2.048   1.369   2.804 -0.3451 -0.0794  0.2372
 3215TIP3    H131060   2.129   1.392   2.849  0.0264  0.3996 -0.6592
 3215TIP3    H231061   2.074   1.355   2.713 -1.6497  2.6585 -0.6527
 3216TIP3   OH231062   1.011   4.533  15.817  0.5763  0.0650 -0.1463
 3216TIP3    H131063   1.023   4.507  15.726  2.4061 -0.4601  0.1889
 3216TIP3    H231064   0.967   4.618  15.813 -5.0399 -2.5002 -1.3050
 3217TIP3   OH231065   1.886   5.911   0.092  0.5035  0.1314 -0.1832
 3217TIP3    H131066   1.957   5.905   0.156 -1.6543  1.1229  2.5140
 3217TIP3    H231067   1.868   5.821   0.066  0.4699 -0.4763  1.8202
 3218TIP3   OH231068   4.680   1.128   4.461 -0.3037  0.1352  0.0971
 3218TIP3    H131069   4.723   1.214   4.464  0.0548 -0.0775  1.4423
 3218TIP3    H231070   4.607   1.141   4.399 -0.4294  1.4863  0.4831
 3219TIP3   OH231071   3.654   6.475   4.061  0.2006 -0.6543 -0.1509
 3219TIP3    H131072   3.739   6.434   4.051  0.8492  0.0315  2.0276
 3219TIP3    H231073   3.591   6.405   4.047  1.2102 -1.8097  0.8495
 3220TIP3   OH231074   5.419   5.600   3.835 -0.2292  0.2267  0.0380
 3220TIP3    H131075   5.337   5.637   3.802  0.2405 -0.3811 -1.8997
 3220TIP3    H231076   5.428   5.517   3.788  0.6456 -0.5551  1.5128
 3221TIP3   OH231077   5.582   4.508   1.925  0.2907  0.5811  1.0775
 3221TIP3    H131078   5.650   4.471   1.980 -0.0040 -0.1261  0.9827
 3221TIP3    H231079   5.593   4.464   1.840  0.2894  1.1285  0.7894
 3222TIP3   OH231080   5.127   2.744   4.054  0.3403  0.2191 -0.1084
 3222TIP3    H131081   5.119   2.692   3.974 -0.8858  0.4906 -0.1876
 3222TIP3    H231082   5.208   2.714   4.095  0.5086 -0.5636 -0.9982
 3223TIP3   OH231083   1.854   1.585   4.185 -0.9185  0.1914 -0.4555
 3223TIP3    H131084   1.903   1.524   4.129 -0.4640 -0.3744  0.5304
 3223TIP3    H231085   1.802   1.528   4.242  0.9389  0.6113  1.7879
 3224TIP3   OH231086   2.659   3.959  11.770 -0.6809  0.6106 -0.0123
 3224TIP3    H131087   2.607   4.037  11.791 -2.1256 -0.0246 -1.0372
 3224TIP3    H231088   2.667   3.961  11.674 -0.8152 -0.5385 -0.0600
 3225TIP3   OH231089   0.169   2.258  12.011  0.6006 -0.1245 -0.2513
 3225TIP3    H131090   0.159   2.347  11.979  1.8259  0.4696  0.9426
 3225TIP3    H231091   0.251   2.259  12.061 -0.7415 -1.2114  2.1420
 3226TIP3   OH231092   0.996   6.067   3.275 -0.3139  0.0008 -0.1415
 3226TIP3    H131093   1.061   6.119   3.322 -0.5756 -1.8657  2.5229
 3226TIP3    H231094   0.967   6.124   3.203  1.4414  2.3554  0.8789
 3227TIP3   OH231095   0.850   5.233  11.540  0.2049 -0.2112  0.2598
 3227TIP3    H131096   0.917   5.287  11.498 -0.7783  0.6787 -0.2286
 3227TIP3    H231097   0.864   5.246  11.633 -1.6143  3.1110  0.2202
 3228TIP3   OH231098   1.819   0.110   4.372 -0.8487 -0.2768 -0.3081
 3228TIP3    H131099   1.912   0.132   4.376 -0.9107 -0.1704  1.3232
 3228TIP3    H231100   1.776   0.193   4.349 -0.6266 -0.0725  0.0135
 3229TIP3   OH231101   4.166   2.154   3.921  0.4792 -0.2952  0.6277
 3229TIP3    H131102   4.077   2.142   3.888 -0.0186  0.3839  1.6483
 3229TIP3    H231103   4.189   2.243   3.894  1.2972 -0.8531 -0.5887
 3230TIP3   OH231104   2.802   6.083   4.828  0.4902  0.4950  0.2507
 3230TIP3    H131105   2.845   5.998   4.819  0.5661  0.5176  0.4030
 3230TIP3    H231106   2.855   6.130   4.892  0.7505  0.8513 -0.2139
 3231TIP3   OH231107   4.201   6.210  13.168 -0.1311 -0.7938  0.1350
 3231TIP3    H131108   4.226   6.283  13.223 -2.0888  0.5448 -0.6362
 3231TIP3    H231109   4.124   6.172  13.211 -0.6482 -0.7892 -0.7548
 3232TIP3   OH231110   2.721   2.559   0.328 -0.0847  0.2680 -0.0478
 3232TIP3    H131111   2.685   2.629   0.274 -1.3875 -0.5479 -0.3126
 3232TIP3    H231112   2.658   2.550   0.400  0.2457 -0.3823  0.1696
 3233TIP3   OH231113   5.621   4.149  13.169  0.0860 -0.1360  0.2869
 3233TIP3    H131114   5.555   4.197  13.219  0.1078  2.4639 -1.9186
 3233TIP3    H231115   5.576   4.070  13.140 -1.1561  0.2318  1.1261
 3234TIP3   OH231116   2.876   3.408   5.490 -0.2736  0.1387  0.1607
 3234TIP3    H131117   2.898   3.491   5.447  0.7751  0.6436  1.6066
 3234TIP3    H231118   2.895   3.342   5.424 -0.4827  0.9909 -0.7879
 3235TIP3   OH231119   6.244   5.258  14.846 -0.6535  0.2500 -0.3729
 3235TIP3    H131120   6.162   5.225  14.808  0.2108 -1.0573 -1.1858
 3235TIP3    H231121   6.312   5.211  14.799  0.5837  1.3851  0.2364
 3236TIP3   OH231122   5.032   6.436  16.718  0.1536 -0.2207  0.1046
 3236TIP3    H131123   5.059   6.348  16.745  0.1344 -0.6574 -1.2498
 3236TIP3    H231124   4.971   6.464  16.787  1.5053 -0.5261  1.4899
 3237TIP3   OH231125   2.532   5.192   0.146  0.5361 -0.0955 -0.2436
 3237TIP3    H131126   2.536   5.097   0.131 -1.7324 -0.0189 -1.8103
 3237TIP3    H231127   2.606   5.210   0.204  0.7048 -2.9057  0.5774
 3238TIP3   OH231128   6.561   0.380  10.697 -0.9588 -0.3945 -0.2256
 3238TIP3    H131129   6.561   0.332  10.615 -0.4111 -1.0406  0.1412
 3238TIP3    H231130   6.626   0.335  10.751 -0.5517  0.6665  0.1849
 3239TIP3   OH231131   6.667   0.134   3.751 -0.0853 -0.3690 -0.3404
 3239TIP3    H131132   6.719   0.098   3.824  0.4131  1.5499  0.3147
 3239TIP3    H231133   6.586   0.163   3.792 -0.4524 -0.7024 -0.8359
 3240TIP3   OH231134   3.064   0.693  10.132 -0.0796  0.2736  0.0630
 3240TIP3    H131135   3.137   0.753  10.144  0.6021 -0.5240 -0.0595
 3240TIP3    H231136   3.095   0.609  10.168 -0.8888 -0.0991 -0.0838
 3241TIP3   OH231137   4.478   5.398  10.197 -0.3123 -0.1946  0.5714
 3241TIP3    H131138   4.569   5.401  10.227 -0.1686 -0.0773  0.1344
 3241TIP3    H231139   4.426   5.423  10.274  0.0347 -0.0835  0.7725
 3242TIP3   OH231140   2.153   4.432  11.350 -0.4087 -0.0730  0.1361
 3242TIP3    H131141   2.171   4.509  11.403 -1.2102 -0.4327  0.9622
 3242TIP3    H231142   2.078   4.458  11.296 -1.0294 -0.4419  0.8081
 3243TIP3   OH231143   5.568   4.279   6.289 -0.0097 -0.2367  0.4759
 3243TIP3    H131144   5.484   4.324   6.291  1.2666  2.4782 -1.0537
 3243TIP3    H231145   5.561   4.212   6.357 -3.2264  0.1389  0.6520
 3244TIP3   OH231146   6.093   3.490   6.126  0.3352  0.4583 -0.2651
 3244TIP3    H131147   6.008   3.455   6.102  0.3467  0.3014 -0.0827
 3244TIP3    H231148   6.155   3.419   6.108  0.3571  0.3767  0.1224
 3245TIP3   OH231149   2.743   1.879  13.415 -0.1249 -0.0127 -0.6237
 3245TIP3    H131150   2.744   1.914  13.326 -2.6426 -0.8745 -1.0815
 3245TIP3    H231151   2.831   1.842  13.427  0.2848  0.1318 -2.7389
 3246TIP3   OH231152   2.334   3.806  11.712 -0.6917 -0.3446  0.0596
 3246TIP3    H131153   2.328   3.860  11.791 -1.0542  1.7697 -1.3426
 3246TIP3    H231154   2.252   3.823  11.665 -0.2736 -1.1712 -1.0203
 3247TIP3   OH231155   4.728   5.178   2.915  0.0171 -0.0490  0.4497
 3247TIP3    H131156   4.704   5.182   3.007  1.2917  0.8308  0.7640
 3247TIP3    H231157   4.655   5.221   2.870  0.2418  1.2020  1.2307
 3248TIP3   OH231158   3.861   5.385  14.500 -0.9628  0.4772 -0.3416
 3248TIP3    H131159   3.797   5.419  14.563 -1.1703  0.6552 -0.6434
 3248TIP3    H231160   3.934   5.446  14.506  1.3618 -2.2689  3.5030
 3249TIP3   OH231161   2.958   1.500  16.913  0.4531  0.0626 -0.7087
 3249TIP3    H131162   2.914   1.446  16.978  1.6823 -0.1751 -0.0559
 3249TIP3    H231163   2.967   1.444  16.836  2.0827 -0.8436  0.0972
 3250TIP3   OH231164   1.294   5.190  16.689  0.5416  0.0663 -0.0494
 3250TIP3    H131165   1.278   5.202  16.782  0.1376 -0.4865 -0.0403
 3250TIP3    H231166   1.266   5.272  16.649  0.5699  0.2482  0.2983
 3251TIP3   OH231167   1.405   2.784   3.304 -0.3284  0.1232 -0.1520
 3251TIP3    H131168   1.456   2.798   3.224 -1.0078  1.1081 -0.4391
 3251TIP3    H231169   1.314   2.789   3.275 -0.5878 -0.1799  0.5840
 3252TIP3   OH231170   4.453   5.824   5.160 -0.3816  0.1183  0.1151
 3252TIP3    H131171   4.357   5.820   5.159 -0.4528  0.8733  1.5752
 3252TIP3    H231172   4.480   5.747   5.209 -0.4183  1.3436  2.1955
 3253TIP3   OH231173   2.528   5.240  15.731 -0.1613 -0.4791  0.1719
 3253TIP3    H131174   2.561   5.322  15.694  0.7230 -1.8136 -2.1883
 3253TIP3    H231175   2.546   5.248  15.825 -1.5232  2.6406  0.3082
 3254TIP3   OH231176   5.687   2.158   1.563  0.0120  0.1189  0.4722
 3254TIP3    H131177   5.624   2.166   1.492  1.1668  3.4464 -0.3947
 3254TIP3    H231178   5.642   2.195   1.639 -0.1601 -0.4778  0.6593
 3255TIP3   OH231179   3.035   5.336   1.717  0.5054 -0.1403 -0.3720
 3255TIP3    H131180   3.011   5.246   1.693 -1.2896  0.4156 -0.8773
 3255TIP3    H231181   3.118   5.327   1.763  0.3603 -2.0635 -0.3715
 3256TIP3   OH231182   0.325   1.457   0.868 -0.3125  0.1986  0.0348
 3256TIP3    H131183   0.369   1.384   0.825 -1.5441  0.2343 -1.3309
 3256TIP3    H231184   0.396   1.503   0.914  1.3745  0.9508 -3.0056
 3257TIP3   OH231185   0.950   0.669  16.110 -0.5652  0.1734 -0.0151
 3257TIP3    H131186   0.971   0.673  16.017 -0.9457  0.5511 -0.0889
 3257TIP3    H231187   1.020   0.718  16.153 -0.2423 -0.2297 -0.0759
 3258TIP3   OH231188   1.840   2.233   3.794 -0.8673 -0.0391  0.8192
 3258TIP3    H131189   1.922   2.270   3.761 -1.1263 -0.5884 -0.4793
 3258TIP3    H231190   1.834   2.265   3.885  0.9657 -0.3061  1.0621
 3259TIP3   OH231191   3.810   0.654  15.790 -0.3849  0.4622  0.0310
 3259TIP3    H131192   3.719   0.681  15.798 -0.6398 -0.2753 -0.3071
 3259TIP3    H231193   3.817   0.618  15.702  1.1979  4.0751 -1.5011
 3260TIP3   OH231194   4.867   2.269  15.427 -0.5829 -0.2135  0.3381
 3260TIP3    H131195   4.902   2.182  15.409 -0.1893  0.0889 -0.4065
 3260TIP3    H231196   4.945   2.325  15.435 -0.8355  0.0899  0.7307
 3261TIP3   OH231197   1.591   0.900   1.832 -0.3402 -0.3914 -0.1340
 3261TIP3    H131198   1.556   0.863   1.750 -0.4787 -1.4029  0.3662
 3261TIP3    H231199   1.671   0.945   1.806  0.1961 -1.6204 -0.6815
 3262TIP3   OH231200   2.858   3.444  12.110 -0.0324 -0.4590 -0.2263
 3262TIP3    H131201   2.871   3.509  12.178 -0.0717  0.3539 -0.9801
 3262TIP3    H231202   2.928   3.460  12.046 -1.4562  0.4902 -1.6409
 3263TIP3   OH231203   3.240   1.887   3.504 -0.0353  0.1680  0.2114
 3263TIP3    H131204   3.177   1.860   3.571  1.4436 -0.0663  1.5931
 3263TIP3    H231205   3.225   1.981   3.494 -1.6071 -0.1423 -0.6398
 3264TIP3   OH231206   4.904   3.022  12.942  0.4036  0.5439  0.0944
 3264TIP3    H131207   4.909   3.108  12.902  3.4896  0.6309  0.4532
 3264TIP3    H231208   4.890   3.040  13.035  0.2517  0.6133  0.0590
 3265TIP3   OH231209   4.255   6.583   1.045 -0.0864 -0.2320 -0.1098
 3265TIP3    H131210   4.326   6.633   1.005  0.5963 -0.6192  0.5834
 3265TIP3    H231211   4.244   6.507   0.988  0.1533 -0.2419 -0.1439
 3266TIP3   OH231212   1.660   6.287   3.182  0.3697  0.0248  0.1512
 3266TIP3    H131213   1.706   6.370   3.174  1.0864 -0.4863 -1.6727
 3266TIP3    H231214   1.596   6.288   3.112 -0.1752 -0.6334  0.6256
 3267TIP3   OH231215   0.788   6.286  16.755 -0.6649 -0.7263 -0.1305
 3267TIP3    H131216   0.765   6.224  16.686  0.0697 -0.2035 -0.8639
 3267TIP3    H231217   0.752   6.370  16.726 -2.4957 -0.9465  1.3101
 3268TIP3   OH231218   6.432   2.801  12.242  0.2481 -0.2437 -0.4754
 3268TIP3    H131219   6.400   2.876  12.291  1.6196 -0.0890  0.2133
 3268TIP3    H231220   6.443   2.834  12.153 -1.9660 -0.4535 -0.9076
 3269TIP3   OH231221   1.581   0.816   3.816  0.6631  0.0848 -0.1921
 3269TIP3    H131222   1.526   0.890   3.843  0.1516  0.8375 -3.0354
 3269TIP3    H231223   1.530   0.771   3.749  2.6654 -0.3985 -1.4663
 3270TIP3   OH231224   5.917   6.652  11.162 -0.5058  0.0229  0.1946
 3270TIP3    H131225   5.929   6.740  11.125 -1.5978 -0.5194 -1.6035
 3270TIP3    H231226   5.962   6.655  11.246 -2.3105  2.9614  1.2086
 3271TIP3   OH231227   2.951   6.719   3.572  0.2183 -0.1269 -0.4475
 3271TIP3    H131228   3.044   6.699   3.584 -0.1702 -2.0122 -0.1426
 3271TIP3    H231229   2.918   6.645   3.520 -1.7332 -1.2914  2.1941
 3272TIP3   OH231230   6.248   4.638  12.126 -0.4458  0.0426  0.4076
 3272TIP3    H131231   6.199   4.720  12.130  0.8303  0.8248  0.5835
 3272TIP3    H231232   6.195   4.580  12.072 -0.7434  1.4268 -0.8346
 3273TIP3   OH231233   2.208   6.529   0.430  0.2003 -0.2913 -0.2526
 3273TIP3    H131234   2.184   6.468   0.360  0.7615  0.6027 -1.2560
 3273TIP3    H231235   2.224   6.612   0.385  0.6999  0.2780  0.9299
 3274TIP3   OH231236   3.059   0.151  14.372 -0.4372  0.4553 -0.3396
 3274TIP3    H131237   3.045   0.246  14.376 -0.0434  0.4886  0.6538
 3274TIP3    H231238   2.985   0.114  14.419 -1.0587  0.2021 -1.4808
 3275TIP3   OH231239   4.151   2.125   1.486 -0.1698  0.1301  0.2231
 3275TIP3    H131240   4.191   2.199   1.533  0.6050  0.7276 -1.3141
 3275TIP3    H231241   4.166   2.145   1.394  0.5702 -2.2457 -0.2324
 3276TIP3   OH231242   1.490   6.452   2.022 -0.1598 -0.1883 -0.3475
 3276TIP3    H131243   1.429   6.436   2.093 -0.8533 -0.0284 -0.8992
 3276TIP3    H231244   1.460   6.395   1.951  0.8572 -0.7668 -0.3323
 3277TIP3   OH231245   4.776   1.563  10.584  0.4659 -0.9048 -0.1187
 3277TIP3    H131246   4.841   1.545  10.517 -0.7499 -0.9935 -1.3113
 3277TIP3    H231247   4.694   1.529  10.549 -0.2859 -0.5968  1.2427
 3278TIP3   OH231248   4.897   0.467   5.072 -0.0827  0.4970 -0.5272
 3278TIP3    H131249   4.834   0.531   5.039 -0.0459  0.2389 -1.1200
 3278TIP3    H231250   4.964   0.519   5.116  1.4999  1.1957 -3.4828
 3279TIP3   OH231251   4.918   0.412  11.776 -0.3985 -0.1465 -0.4585
 3279TIP3    H131252   4.867   0.484  11.741  1.0128  0.2729 -1.7637
 3279TIP3    H231253   4.898   0.338  11.719 -0.8364 -0.4423  0.0711
 3280TIP3   OH231254   6.431   6.544  12.547 -0.3341 -0.2474  0.0397
 3280TIP3    H131255   6.344   6.573  12.574 -0.6590  0.0371 -1.2539
 3280TIP3    H231256   6.418   6.454  12.517 -0.7062  0.5605 -2.4352
 3281TIP3   OH231257   4.737   3.417   1.541 -1.0434  0.3310  0.3432
 3281TIP3    H131258   4.687   3.496   1.521  1.6405  2.1505  0.2368
 3281TIP3    H231259   4.739   3.414   1.637 -1.8251 -0.1008  0.3527
 3282TIP3   OH231260   2.137   5.107   2.729 -0.3082 -0.5121 -0.2904
 3282TIP3    H131261   2.042   5.111   2.722 -0.3282  1.4154  0.4715
 3282TIP3    H231262   2.154   5.050   2.804 -0.8776 -0.8071 -0.3907
 3283TIP3   OH231263   2.838   1.397  11.635  0.1359 -0.4833 -0.4081
 3283TIP3    H131264   2.893   1.322  11.659  0.5189 -0.8321 -2.1800
 3283TIP3    H231265   2.749   1.370  11.659  0.6542  0.0956  2.5179
 3284TIP3   OH231266   0.770   4.658  16.272 -0.3006  0.5458  0.1549
 3284TIP3    H131267   0.747   4.722  16.339 -1.1202 -0.1564  0.5768
 3284TIP3    H231268   0.707   4.672  16.201  1.9545  2.8000 -1.5582
 3285TIP3   OH231269   4.043   1.671   5.282 -0.0116 -0.5590  0.1150
 3285TIP3    H131270   3.977   1.740   5.284  0.0357 -0.5237  0.7245
 3285TIP3    H231271   4.014   1.611   5.213 -0.1290 -0.0063 -0.3154
 3286TIP3   OH231272   2.981   2.834   3.285 -0.2133  0.1934  0.0015
 3286TIP3    H131273   2.953   2.834   3.376 -0.4560 -1.3095 -0.0539
 3286TIP3    H231274   2.900   2.844   3.235 -0.2514 -0.4340 -0.0713
 3287TIP3   OH231275   1.317   6.125   4.208  0.2482  0.7301  0.2468
 3287TIP3    H131276   1.353   6.143   4.295 -1.9112  1.4559  1.0426
 3287TIP3    H231277   1.270   6.204   4.184 -0.7427 -0.1354 -0.7770
 3288TIP3   OH231278   4.268   2.747  11.921  0.0023 -1.1031 -0.6922
 3288TIP3    H131279   4.316   2.797  11.988  0.5763 -1.3654 -0.9038
 3288TIP3    H231280   4.304   2.659  11.927  0.5127 -0.9790 -1.7863
 3289TIP3   OH231281   3.058   5.167  11.570 -0.0487  0.4829  0.4101
 3289TIP3    H131282   3.132   5.190  11.513  0.3795  0.2535  0.8626
 3289TIP3    H231283   3.021   5.252  11.594  1.8359  0.8243  2.4720
 3290TIP3   OH231284   0.309   0.960   3.996  0.3765 -0.3598  0.0642
 3290TIP3    H131285   0.336   0.880   3.951  0.3583 -0.2112 -0.2061
 3290TIP3    H231286   0.352   1.031   3.949 -0.0208 -0.1692 -0.0095
 3291TIP3   OH231287   4.991   4.038  12.872 -0.2989  0.2743 -0.1779
 3291TIP3    H131288   4.928   3.971  12.899 -0.5330  0.4200 -0.3638
 3291TIP3    H231289   5.042   4.056  12.951  0.1928 -0.5864 -0.2827
 3292TIP3   OH231290   0.872   3.425  13.005  0.1265  0.0486 -0.1470
 3292TIP3    H131291   0.884   3.345  12.954 -0.4313 -0.4411  0.4677
 3292TIP3    H231292   0.780   3.448  12.994 -0.0537 -0.1741  0.7620
 3293TIP3   OH231293   0.180   5.049   4.854  0.0679  0.2866  0.2597
 3293TIP3    H131294   0.167   4.955   4.839  0.9760  0.2828 -0.5894
 3293TIP3    H231295   0.094   5.081   4.882 -0.3707 -0.7039  0.0796
 3294TIP3   OH231296   1.981   5.800   1.723  0.7732  0.0208  0.7377
 3294TIP3    H131297   1.970   5.825   1.631  1.2983 -0.4637  0.5363
 3294TIP3    H231298   1.892   5.784   1.755  0.4418  1.6420  0.7445
 3295TIP3   OH231299   0.217   0.271  14.824 -0.0944  0.2929 -0.0534
 3295TIP3    H131300   0.181   0.190  14.787 -0.6092  0.8792 -0.8740
 3295TIP3    H231301   0.211   0.259  14.919 -0.9328 -0.3029 -0.1708
 3296TIP3   OH231302   3.492   5.907   4.235  0.4480 -0.0864  0.2438
 3296TIP3    H131303   3.524   5.972   4.296 -0.5353  0.0621  0.6240
 3296TIP3    H231304   3.499   5.824   4.282  0.6475 -0.1042  0.1811
 3297TIP3   OH231305   1.615   5.555   0.024  0.1195  0.0934  0.5267
 3297TIP3    H131306   1.565   5.571   0.104 -1.9088 -1.9751 -0.2183
 3297TIP3    H231307   1.574   5.612  -0.041 -1.1897 -1.3946 -0.0158
 3298TIP3   OH231308   3.163   1.679   0.487 -0.3986 -0.6748 -0.7751
 3298TIP3    H131309   3.198   1.690   0.398 -0.3545 -0.9498 -0.7909
 3298TIP3    H231310   3.108   1.756   0.500 -1.6109 -1.3682 -1.6007
 3299TIP3   OH231311   0.304   2.174  14.470  0.1953 -0.2338  0.1073
 3299TIP3    H131312   0.278   2.093  14.426 -2.0376  0.8210 -0.6729
 3299TIP3    H231313   0.399   2.176  14.463  0.0732 -0.4822 -4.1939
 3300TIP3   OH231314   2.234   1.514  13.989 -0.1133 -0.0709 -0.4631
 3300TIP3    H131315   2.205   1.487  13.903 -0.6203 -0.1668 -0.2626
 3300TIP3    H231316   2.329   1.527  13.980 -0.2591  0.5295 -1.1917
 3301TIP3   OH231317   0.546   0.679  10.803  0.1239 -0.6039  0.0662
 3301TIP3    H131318   0.587   0.676  10.890 -0.4494 -0.1997  0.3510
 3301TIP3    H231319   0.590   0.751  10.759 -1.0971  0.6418  0.8034
 3302TIP3   OH231320   3.429   4.837  16.348  0.3481  0.6608  0.2658
 3302TIP3    H131321   3.440   4.785  16.269  0.4295 -1.3531  1.5228
 3302TIP3    H231322   3.501   4.900  16.346  2.9365 -2.0581  0.7025
 3303TIP3   OH231323   6.308   3.106  11.177  0.3965  0.2677  0.1703
 3303TIP3    H131324   6.307   3.013  11.201  1.1188 -0.0811 -1.1013
 3303TIP3    H231325   6.279   3.108  11.086  0.7369  1.2628  0.0697
 3304TIP3   OH231326   3.637   4.667   4.352  0.5858  0.3012  0.1435
 3304TIP3    H131327   3.621   4.573   4.364  0.7441 -0.1223 -2.4344
 3304TIP3    H231328   3.667   4.697   4.438  1.6628 -2.2307  0.7536
 3305TIP3   OH231329   0.751   1.777  15.272 -0.2298 -0.0458 -0.1555
 3305TIP3    H131330   0.754   1.685  15.297  1.1150 -0.3633 -1.3578
 3305TIP3    H231331   0.820   1.818  15.324 -0.9053  0.3242  0.4681
 3306TIP3   OH231332   0.907   1.338   1.354 -0.0159 -0.2284  0.1896
 3306TIP3    H131333   0.826   1.353   1.305  1.0122  0.5780 -1.3281
 3306TIP3    H231334   0.895   1.387   1.435 -1.8250 -1.7415  0.9071
 3307TIP3   OH231335   2.658   3.940  16.459 -0.0176 -0.0431  0.6781
 3307TIP3    H131336   2.678   3.877  16.528  0.7196  0.8207  1.2878
 3307TIP3    H231337   2.730   3.931  16.397 -0.9438 -1.1845 -0.2874
 3308TIP3   OH231338   4.393   5.904  10.784 -0.5698 -0.5073 -0.0937
 3308TIP3    H131339   4.442   5.843  10.839 -2.2657 -0.5715  1.4562
 3308TIP3    H231340   4.308   5.861  10.770 -0.8093  0.3054 -1.2732
 3309TIP3   OH231341   2.364   5.081   5.576 -0.0080  0.0954  0.1448
 3309TIP3    H131342   2.350   4.996   5.536 -0.2621 -0.0019  0.4357
 3309TIP3    H231343   2.362   5.143   5.503 -1.4175  0.0254  0.1014
 3310TIP3   OH231344   6.338   2.805   4.503 -0.1520 -0.2385 -0.6800
 3310TIP3    H131345   6.422   2.817   4.545 -0.4818  3.0793 -0.7335
 3310TIP3    H231346   6.338   2.867   4.430 -2.2703 -0.8078 -1.2498
 3311TIP3   OH231347   5.014   2.263   3.747  0.4701 -0.3675  0.0571
 3311TIP3    H131348   5.082   2.223   3.801  1.0071 -0.7569 -0.8931
 3311TIP3    H231349   4.935   2.214   3.767  0.2873  0.4914  1.6479
 3312TIP3   OH231350   4.969   0.200   5.314 -0.7235  0.2083  0.0363
 3312TIP3    H131351   4.997   0.275   5.367 -1.5566  0.4221  0.1946
 3312TIP3    H231352   5.031   0.198   5.241 -0.6012  0.9722  0.1055
 3313TIP3   OH231353   5.821   0.386   0.719 -0.7718 -0.2154  0.2268
 3313TIP3    H131354   5.830   0.477   0.747 -1.7164 -0.0598  0.0605
 3313TIP3    H231355   5.805   0.392   0.625  0.1913 -0.6179  0.0264
 3314TIP3   OH231356   1.036   3.767   0.487  0.0890  0.6493  0.0342
 3314TIP3    H131357   1.021   3.707   0.414 -0.2243 -0.5973  1.0909
 3314TIP3    H231358   1.130   3.783   0.485  0.2361 -0.1636 -0.0678
 3315TIP3   OH231359   6.268   2.544  15.124  0.0836 -0.0930  0.6057
 3315TIP3    H131360   6.339   2.599  15.089  1.3464 -1.8923  0.1710
 3315TIP3    H231361   6.221   2.601  15.185  1.0137  1.5917 -0.1850
 3316TIP3   OH231362   2.439   0.622   1.729 -0.4816 -0.0380  0.0073
 3316TIP3    H131363   2.492   0.559   1.778 -0.6835  0.7209  1.2433
 3316TIP3    H231364   2.348   0.596   1.745 -0.5489  0.1498 -0.0594
 3317TIP3   OH231365   6.039   5.827   1.236 -0.4424  0.4434 -0.4591
 3317TIP3    H131366   6.066   5.803   1.324 -0.4297  1.5131 -0.1524
 3317TIP3    H231367   6.117   5.868   1.198 -0.7662  0.9742 -0.5695
 3318TIP3   OH231368   3.164   2.522  14.744 -0.7903 -0.0114 -0.3035
 3318TIP3    H131369   3.178   2.525  14.839  0.2405 -0.3642 -0.4349
 3318TIP3    H231370   3.100   2.452  14.731 -1.6299  0.6321  0.1872
 3319TIP3   OH231371   3.864   3.793   1.886 -0.2772 -0.1346  0.1156
 3319TIP3    H131372   3.806   3.726   1.922 -0.5265 -1.0854 -1.8954
 3319TIP3    H231373   3.811   3.839   1.821  0.4904  0.6808  0.0442
 3320TIP3   OH231374   3.618   4.234   0.588  0.1062  0.1172  0.6442
 3320TIP3    H131375   3.682   4.291   0.632 -1.0197  0.5792  1.7407
 3320TIP3    H231376   3.602   4.164   0.652 -2.2950  1.3197  1.4805
 3321TIP3   OH231377   3.447   5.494  14.576 -0.1576  0.3134 -0.2142
 3321TIP3    H131378   3.531   5.510  14.619 -1.2696  1.8773  1.5515
 3321TIP3    H231379   3.383   5.496  14.647 -1.6732 -1.2119 -1.4565
 3322TIP3   OH231380   4.052   3.705   1.135 -0.6739  0.8566  0.4054
 3322TIP3    H131381   4.104   3.784   1.119 -1.0944  1.4040  1.6233
 3322TIP3    H231382   4.117   3.635   1.144 -0.2639  1.1730 -0.0302
 3323TIP3   OH231383   2.017   6.231  12.410  0.2734 -0.2614 -0.2634
 3323TIP3    H131384   2.099   6.219  12.458  1.3891 -1.1042 -2.2663
 3323TIP3    H231385   2.025   6.173  12.334 -1.6955  0.5201 -1.1260
 3324TIP3   OH231386   6.023   2.128   0.565  0.2821 -0.1641  0.1776
 3324TIP3    H131387   5.972   2.193   0.615 -0.6271 -1.4550  0.9798
 3324TIP3    H231388   6.091   2.099   0.626  0.3800 -0.3294 -0.0090
 3325TIP3   OH231389   6.013   5.879   0.018 -0.0086 -0.2142 -0.1474
 3325TIP3    H131390   6.068   5.816  -0.027 -2.3705 -1.7439 -1.1205
 3325TIP3    H231391   6.019   5.854   0.111  0.7289 -0.4916 -0.2649
 3326TIP3   OH231392   4.805   2.655  15.424  0.0458 -0.7547 -0.0242
 3326TIP3    H131393   4.742   2.726  15.411  1.1174  0.1799 -0.3437
 3326TIP3    H231394   4.768   2.580  15.379 -0.5065 -0.0227 -0.8167
 3327TIP3   OH231395   6.709   0.146  10.823 -0.5005  0.3677 -0.1165
 3327TIP3    H131396   6.618   0.117  10.831 -0.3296 -0.0966  0.1703
 3327TIP3    H231397   6.748   0.086  10.760 -0.4199  0.6366 -0.3249
 3328TIP3   OH231398   0.266   6.172  12.491  0.0076  0.0330  0.3977
 3328TIP3    H131399   0.287   6.265  12.476 -0.4842  0.0839 -0.0142
 3328TIP3    H231400   0.323   6.125  12.429  0.4755  0.0381  0.8184
 3329TIP3   OH231401   6.375   0.899   3.771  0.1488 -0.6064  0.3553
 3329TIP3    H131402   6.376   0.967   3.838 -0.5291 -0.0531 -0.1861
 3329TIP3    H231403   6.285   0.899   3.738  0.3370 -1.2416 -0.1896
 3330TIP3   OH231404   5.523   5.080  11.278  0.1699  0.3712  0.0158
 3330TIP3    H131405   5.506   5.044  11.365  2.5775 -0.3650  0.2557
 3330TIP3    H231406   5.607   5.124  11.286  0.5850  0.0454 -1.9852
 3331TIP3   OH231407   0.322   3.389  13.568  0.0652  0.0172  0.2348
 3331TIP3    H131408   0.324   3.386  13.473 -3.2269  1.0995  0.0013
 3331TIP3    H231409   0.401   3.437  13.593  0.1423  1.2094 -2.0517
 3332TIP3   OH231410   6.024   6.072  13.988 -0.1192 -0.5613  0.3874
 3332TIP3    H131411   5.964   6.061  13.914 -0.5676  1.9220  0.3132
 3332TIP3    H231412   5.979   6.031  14.062 -1.7536  0.8505  0.2361
 3333TIP3   OH231413   4.525   0.391   1.647  0.1119 -0.6067  0.3219
 3333TIP3    H131414   4.431   0.408   1.633  0.8671  4.1750 -0.9839
 3333TIP3    H231415   4.546   0.437   1.728  1.6444  0.5099 -0.6428
 3334TIP3   OH231416   3.668   4.847   3.779  0.5238 -0.1302  0.1286
 3334TIP3    H131417   3.717   4.872   3.857 -0.0969 -0.9007  0.7934
 3334TIP3    H231418   3.591   4.801   3.813  0.8929 -1.6301 -0.9602
 3335TIP3   OH231419   4.047   6.212  14.889 -0.6676  0.1677  0.9620
 3335TIP3    H131420   4.003   6.285  14.844 -0.8359 -0.6875 -0.2980
 3335TIP3    H231421   4.078   6.251  14.971  0.7571  2.1263 -0.3971
 3336TIP3   OH231422   2.122   6.555   5.094  0.4430  0.1311  0.7488
 3336TIP3    H131423   2.131   6.463   5.120 -0.8296 -0.3131 -0.2532
 3336TIP3    H231424   2.151   6.557   5.002  1.7180  1.0136  1.1409
 3337TIP3   OH231425   5.248   4.099  16.472 -0.3726  0.3731  0.1459
 3337TIP3    H131426   5.243   4.050  16.390 -0.8907  2.6212 -1.2613
 3337TIP3    H231427   5.338   4.131  16.476 -0.0529 -0.5631  1.0293
 3338TIP3   OH231428   3.834   3.121  15.517  0.3941  0.0771  0.2511
 3338TIP3    H131429   3.793   3.068  15.449  0.7048 -0.3487  0.3856
 3338TIP3    H231430   3.827   3.211  15.486 -0.6593  0.0186  0.2866
 3339TIP3   OH231431   0.345   0.888  10.854  0.2559  0.3257 -0.2413
 3339TIP3    H131432   0.353   0.794  10.874 -1.2002  0.1726 -0.2513
 3339TIP3    H231433   0.356   0.893  10.759  0.5446  0.1920 -0.2159
 3340TIP3   OH231434   3.967   6.750  16.273 -0.1243  0.0413 -0.4933
 3340TIP3    H131435   3.888   6.800  16.252  0.5253  1.0481 -0.6259
 3340TIP3    H231436   3.955   6.722  16.363 -0.6218  0.2215 -0.5031
 3341TIP3   OH231437   5.531   3.536   2.689 -0.3558 -0.1735 -0.2332
 3341TIP3    H131438   5.443   3.544   2.652 -0.5182 -1.2387 -0.1146
 3341TIP3    H231439   5.517   3.495   2.774  0.0879  1.4797  0.6656
 3342TIP3   OH231440   1.071   1.944   1.735  0.2721 -0.4284  0.1748
 3342TIP3    H131441   1.157   1.975   1.761  0.7627 -1.3735 -0.2885
 3342TIP3    H231442   1.062   1.970   1.644  0.8801 -1.9664 -0.3655
 3343TIP3   OH231443   4.566   2.849  16.757 -0.1082  0.5525 -0.3760
 3343TIP3    H131444   4.660   2.836  16.767  0.3562  2.0231 -2.2524
 3343TIP3    H231445   4.533   2.853  16.847  1.3345 -1.5526  0.3168
 3344TIP3   OH231446   1.313   2.397  15.545  0.6757 -0.3618  0.6963
 3344TIP3    H131447   1.266   2.401  15.628  0.5964  1.9434  0.5833
 3344TIP3    H231448   1.253   2.434  15.481  2.0565  1.3351  0.3022
 3345TIP3   OH231449   3.127   2.016   5.387  0.1445 -0.1060  0.4418
 3345TIP3    H131450   3.134   2.022   5.292 -0.1926 -3.2025  0.0973
 3345TIP3    H231451   3.212   2.044   5.420 -0.0410  1.8970 -0.6486
 3346TIP3   OH231452   4.043   5.847  13.281  0.0080 -0.0293 -0.1772
 3346TIP3    H131453   4.051   5.793  13.202 -0.3091 -2.3282  1.2715
 3346TIP3    H231454   4.127   5.893  13.287  0.4150 -0.5918 -1.2961
 3347TIP3   OH231455   4.370   4.962   5.518  0.5274  0.1264  0.1825
 3347TIP3    H131456   4.320   4.888   5.553  0.8097  0.2868  0.9462
 3347TIP3    H231457   4.335   5.038   5.564  1.3351  0.2666  0.5700
 3348TIP3   OH231458   1.795   5.196   5.319  0.4347  0.3126 -0.1154
 3348TIP3    H131459   1.765   5.119   5.271 -3.2807  0.6646  1.2900
 3348TIP3    H231460   1.793   5.169   5.411 -0.3274  1.8208  0.3542
 3349TIP3   OH231461   2.852   6.232  16.090  0.0936  0.2243  0.0148
 3349TIP3    H131462   2.846   6.318  16.130  3.4946 -0.4645  2.4141
 3349TIP3    H231463   2.791   6.178  16.140  0.6238  0.4961  0.9887
 3350TIP3   OH231464   6.601   2.044   3.522 -0.2008  0.5317 -0.0943
 3350TIP3    H131465   6.577   2.083   3.438  0.7565  0.0968 -0.5908
 3350TIP3    H231466   6.687   2.080   3.542  0.3482 -0.6607 -0.1713
 3351TIP3   OH231467   0.691   1.832   0.067  0.1821  0.2713  0.4187
 3351TIP3    H131468   0.679   1.805   0.158  1.2433 -0.1252  0.4485
 3351TIP3    H231469   0.745   1.764   0.028 -0.5865  0.2303 -0.6337
 3352TIP3   OH231470   0.033   2.541  16.217 -0.7162 -0.1130 -0.0553
 3352TIP3    H131471   0.019   2.506  16.129 -0.4424  0.4000 -0.3035
 3352TIP3    H231472  -0.005   2.474  16.275 -0.3774 -0.7300 -0.5300
 3353TIP3   OH231473   1.316   1.207  13.450  0.4528  0.0558  0.0703
 3353TIP3    H131474   1.313   1.113  13.430 -0.4146  0.2047 -0.5571
 3353TIP3    H231475   1.259   1.247  13.384  2.2901  1.2440 -0.8742
 3354TIP3   OH231476   5.612   0.453  16.749 -0.1801 -0.0474  0.0528
 3354TIP3    H131477   5.582   0.464  16.658 -0.7030 -1.4426  0.0165
 3354TIP3    H231478   5.569   0.523  16.797 -0.9662 -0.0760 -0.5714
 3355TIP3   OH231479   2.325   1.730   3.068  0.3493 -0.5071 -0.2270
 3355TIP3    H131480   2.294   1.716   2.978 -0.8968  0.4203  0.0220
 3355TIP3    H231481   2.314   1.645   3.111  1.3730 -1.0747 -1.0598
 3356TIP3   OH231482   4.601   4.522   1.610  0.5727  0.0636  0.3054
 3356TIP3    H131483   4.586   4.482   1.695  1.7985  0.7149  0.8472
 3356TIP3    H231484   4.687   4.491   1.583  1.2033  1.6504  0.3744
 3357TIP3   OH231485   5.194   5.345   1.405 -0.6378 -0.5711 -0.1550
 3357TIP3    H131486   5.249   5.415   1.370  0.8897 -1.6049  0.0296
 3357TIP3    H231487   5.212   5.270   1.349 -0.3853 -1.4491  1.0452
 3358TIP3   OH231488   4.858   5.143  11.643  0.0317  0.2833 -0.0193
 3358TIP3    H131489   4.848   5.236  11.621 -0.4683  0.4904  1.0313
 3358TIP3    H231490   4.895   5.143  11.731 -2.0312 -0.4731  0.9203
 3359TIP3   OH231491   4.507   3.048   0.440 -0.2052  0.2581  0.2308
 3359TIP3    H131492   4.483   3.119   0.380  2.7472 -0.4677 -2.0170
 3359TIP3    H231493   4.556   3.092   0.510 -0.9196  0.7492  0.4309
 3360TIP3   OH231494   5.540   2.454  11.940 -0.2256  0.2044  0.0571
 3360TIP3    H131495   5.537   2.360  11.958  0.0061  0.5213  1.8846
 3360TIP3    H231496   5.625   2.468  11.899  0.6739 -0.1071  1.7232
 3361TIP3   OH231497   4.010   5.727  16.630  0.0615  0.3946 -0.4387
 3361TIP3    H131498   3.964   5.803  16.665 -1.4058 -0.6360 -0.0229
 3361TIP3    H231499   3.946   5.656  16.634  1.3931 -0.8888 -0.7746
 3362TIP3   OH231500   2.209   5.494   0.283  0.3203 -0.3008  0.3155
 3362TIP3    H131501   2.242   5.407   0.264 -0.9265 -1.1432  1.7562
 3362TIP3    H231502   2.257   5.552   0.224 -0.2040 -2.1443 -2.0904
 3363TIP3   OH231503   5.726   3.071   2.613  0.2517  0.1636 -0.0684
 3363TIP3    H131504   5.760   3.040   2.529 -0.5512  0.3556 -0.4783
 3363TIP3    H231505   5.788   3.039   2.678  0.7757 -0.1586 -0.7176
 3364TIP3   OH231506   6.440   5.174  13.785 -0.0428 -0.9442  0.3423
 3364TIP3    H131507   6.434   5.269  13.772  0.7857 -1.1096 -1.6786
 3364TIP3    H231508   6.362   5.152  13.836  0.1969  0.9182  1.6125
 3365TIP3   OH231509   2.679   4.903  14.090 -0.0042  0.1484 -0.2948
 3365TIP3    H131510   2.710   4.825  14.136 -0.5875  0.3256  0.4120
 3365TIP3    H231511   2.609   4.937  14.145  0.4270  1.3350 -0.4512
 3366TIP3   OH231512   1.785   0.411  11.307  0.2533  0.6139 -0.3556
 3366TIP3    H131513   1.876   0.436  11.287 -0.7496  3.8560 -1.4579
 3366TIP3    H231514   1.739   0.420  11.224 -0.9579 -2.0355 -0.0562
 3367TIP3   OH231515   0.875   2.317  14.978  0.5066  0.7028 -0.0524
 3367TIP3    H131516   0.964   2.317  14.945  0.4116  0.0930 -0.3215
 3367TIP3    H231517   0.822   2.348  14.905  0.2395 -1.0882 -0.6838
 3368TIP3   OH231518   2.888   3.765   3.643 -0.0423  0.2533 -0.3470
 3368TIP3    H131519   2.952   3.727   3.704  0.4724 -0.5136 -1.3498
 3368TIP3    H231520   2.844   3.833   3.695  1.8731  1.1226  0.2487
 3369TIP3   OH231521   3.919   6.277  13.954  0.3329 -0.4550  0.4397
 3369TIP3    H131522   3.981   6.344  13.927 -0.9483  0.2515 -0.9104
 3369TIP3    H231523   3.967   6.194  13.945  1.3326  0.1269  0.2896
 3370TIP3   OH231524   3.792   3.855  17.051 -0.2383 -0.4825 -0.6264
 3370TIP3    H131525   3.752   3.807  17.124 -1.6641 -0.9731 -1.6795
 3370TIP3    H231526   3.733   3.929  17.037 -0.9982 -1.3491 -2.3687
 3371TIP3   OH231527   0.260   4.941  14.564 -0.1859 -0.7068 -0.2770
 3371TIP3    H131528   0.320   4.867  14.561 -0.4471 -0.9072 -2.2077
 3371TIP3    H231529   0.235   4.955  14.472 -1.1066  0.9839  0.1854
 3372TIP3   OH231530   6.360   2.008  11.185  0.0095  0.4312 -0.0702
 3372TIP3    H131531   6.351   1.979  11.276 -1.2980  0.6113 -0.1205
 3372TIP3    H231532   6.450   1.985  11.161  0.2789  0.1190  1.1704
 3373TIP3   OH231533   2.873   1.672  16.591 -0.3666  0.2708  0.2819
 3373TIP3    H131534   2.942   1.607  16.609  1.0808  1.7653  0.3499
 3373TIP3    H231535   2.920   1.755  16.584 -2.1077  1.2431 -0.3743
 3374TIP3   OH231536   4.305   4.533   0.286  0.2621 -0.1384 -0.5586
 3374TIP3    H131537   4.387   4.503   0.246  0.4170  0.2301 -0.5154
 3374TIP3    H231538   4.322   4.534   0.380  0.3197  0.2666 -0.5711
 3375TIP3   OH231539   1.420   1.205  12.654  0.2819  0.3188 -0.3109
 3375TIP3    H131540   1.450   1.241  12.571  2.7803 -2.7058 -0.8999
 3375TIP3    H231541   1.376   1.123  12.631  1.1000 -0.6308  1.2946
 3376TIP3   OH231542   5.892   2.585  10.854 -0.5562 -0.5518  0.4613
 3376TIP3    H131543   5.801   2.575  10.827 -0.8975  0.8262  1.0459
 3376TIP3    H231544   5.923   2.663  10.808 -0.3622  0.3104  1.9956
 3377TIP3   OH231545   6.376   2.448   1.423  0.1695 -0.4814 -0.5465
 3377TIP3    H131546   6.294   2.444   1.472 -0.7786  0.3386 -1.9888
 3377TIP3    H231547   6.351   2.428   1.333  1.7408 -1.2540 -0.8493
 3378TIP3   OH231548   5.506   3.403  16.424 -0.9104 -0.0970  0.1607
 3378TIP3    H131549   5.581   3.453  16.392 -0.5632  0.0057  1.1057
 3378TIP3    H231550   5.498   3.427  16.517 -2.4254  0.2847 -0.0351
 3379TIP3   OH231551   3.048   6.383  13.137  0.1232 -0.4080  0.0044
 3379TIP3    H131552   3.028   6.295  13.171  0.3337 -0.6298 -0.4406
 3379TIP3    H231553   2.981   6.398  13.070 -0.0576 -0.1276  0.2451
 3380TIP3   OH231554   1.939   2.880   0.931 -0.2470  0.3073 -0.1148
 3380TIP3    H131555   1.937   2.973   0.906 -1.2119  0.4312  0.3412
 3380TIP3    H231556   1.892   2.878   1.015 -1.1246 -0.7254 -0.6078
 3381TIP3   OH231557   3.706   4.548  12.991  0.1446  0.3398  0.3856
 3381TIP3    H131558   3.788   4.580  12.954  0.5804 -0.7013  0.4447
 3381TIP3    H231559   3.721   4.548  13.086 -0.4498  1.5438  0.5150
 3382TIP3   OH231560   0.149   1.411   1.538  0.1320 -0.6859  0.1411
 3382TIP3    H131561   0.153   1.414   1.442 -0.7518 -0.1330  0.1099
 3382TIP3    H231562   0.217   1.472   1.567 -0.6994  0.4123 -0.1642
 3383TIP3   OH231563   1.498   5.604   3.649  0.4140  0.0625 -0.3074
 3383TIP3    H131564   1.524   5.655   3.572  0.9766  1.5962  0.8302
 3383TIP3    H231565   1.445   5.665   3.700  0.0745 -0.9181  0.5414
 3384TIP3   OH231566   5.646   2.476  16.376  0.3681  0.0475 -0.6796
 3384TIP3    H131567   5.689   2.431  16.302 -0.1357  1.2785 -1.7479
 3384TIP3    H231568   5.639   2.567  16.348  0.4868  0.6208  1.0555
 3385TIP3   OH231569   3.897   6.595  16.850 -0.3549 -0.1570 -0.9659
 3385TIP3    H131570   3.860   6.584  16.763 -0.9135  2.4588 -1.1480
 3385TIP3    H231571   3.987   6.562  16.842 -0.4554 -0.1399 -2.4662
 3386TIP3   OH231572   3.809   0.460  16.313 -0.6105 -0.4238  0.1393
 3386TIP3    H131573   3.850   0.374  16.313  2.5339  0.9534  0.5512
 3386TIP3    H231574   3.823   0.494  16.224  0.4890  0.6169  0.6808
 3387TIP3   OH231575   5.967   1.414   3.465 -0.0152  0.7687  0.7336
 3387TIP3    H131576   6.035   1.390   3.527  1.0621 -0.3332 -0.8058
 3387TIP3    H231577   6.015   1.446   3.388 -1.2077  0.1172 -0.3258
 3388TIP3   OH231578   2.606   0.006  16.068 -0.9074 -0.0562 -0.2398
 3388TIP3    H131579   2.620   0.007  16.163  0.1912 -3.0755 -0.2719
 3388TIP3    H231580   2.518   0.043  16.057 -1.0719  0.3715  1.9355
 3389TIP3   OH231581   0.171   3.982   3.854 -0.4574 -0.3677 -0.1004
 3389TIP3    H131582   0.253   3.948   3.892 -1.9747 -4.5215 -0.0725
 3389TIP3    H231583   0.120   4.011   3.930  0.6051  1.5441 -0.0597
 3390TIP3   OH231584   3.819   5.833  15.142  0.0477 -0.0608 -0.3922
 3390TIP3    H131585   3.908   5.808  15.169  0.6075  0.6836 -1.4794
 3390TIP3    H231586   3.825   5.846  15.048 -1.2172  0.0551 -0.4759
 3391TIP3   OH231587   4.467   0.467   1.158  0.1843 -0.2920  0.4372
 3391TIP3    H131588   4.556   0.456   1.191  0.4499  0.9849  0.1816
 3391TIP3    H231589   4.477   0.470   1.062 -0.1119  0.0637  0.4166
 3392TIP3   OH231590   4.963   0.013   0.622 -0.8696 -0.4149  0.2519
 3392TIP3    H131591   4.973  -0.077   0.590  0.8030  0.8612 -3.3634
 3392TIP3    H231592   5.000   0.067   0.552 -1.0584  3.0812  2.6227
 3393TIP3   OH231593   0.265   4.037   2.887  0.0157  0.0225  0.2790
 3393TIP3    H131594   0.177   4.056   2.920 -0.0714  1.7775 -0.7927
 3393TIP3    H231595   0.281   3.946   2.910 -3.0465 -1.1174 -1.5587
 3394TIP3   OH231596   6.233   5.909   1.908 -0.5520 -0.1578  0.0790
 3394TIP3    H131597   6.313   5.931   1.956 -0.1136 -1.4178 -0.0239
 3394TIP3    H231598   6.224   5.978   1.843  0.4724 -0.0081  0.0728
 3395TIP3   OH231599   0.885   3.018  15.242  0.5786  0.1482 -0.7201
 3395TIP3    H131600   0.943   3.092  15.256 -1.3043  1.6819 -0.4938
 3395TIP3    H231601   0.910   2.954  15.308  0.6034  1.6631  0.7894
 3396TIP3   OH231602   0.904   1.412   0.313  0.5624  0.3415  1.2400
 3396TIP3    H131603   0.898   1.325   0.274 -3.9058  0.3325  1.4528
 3396TIP3    H231604   0.950   1.398   0.396  1.2738 -1.5156  0.5742
 3397TIP3   OH231605   2.268   1.648   1.504  0.6243 -0.0714 -0.9099
 3397TIP3    H131606   2.281   1.570   1.558 -1.0833 -0.5265 -1.1042
 3397TIP3    H231607   2.304   1.719   1.557 -0.3356 -0.6061  0.5378
 3398TIP3   OH231608   3.564   1.363   3.009 -0.0957  0.5955  0.2536
 3398TIP3    H131609   3.546   1.409   2.926 -0.9159  2.0759  1.2097
 3398TIP3    H231610   3.642   1.311   2.991  0.9026  2.3901 -0.9002
 3399TIP3   OH231611   3.430   1.021   1.417 -0.3184 -0.3116  0.4743
 3399TIP3    H131612   3.496   0.953   1.427 -0.0733 -0.3153 -0.8818
 3399TIP3    H231613   3.449   1.084   1.486  0.1571 -1.0568  1.0363
 3400TIP3   OH231614   2.121   6.147   2.629  0.1600  0.1322 -0.4851
 3400TIP3    H131615   2.135   6.147   2.535 -1.4545 -0.5718 -0.7550
 3400TIP3    H231616   2.073   6.066   2.646  1.4492 -0.3511  1.1205
 3401TIP3   OH231617   6.632   6.327   2.712 -0.2434 -0.1121 -0.0876
 3401TIP3    H131618   6.546   6.338   2.672 -0.3565 -4.6987 -1.6864
 3401TIP3    H231619   6.619   6.260   2.779  1.8630  0.1221  0.6416
 3402TIP3   OH231620   0.307   5.126  13.836  0.0820  0.0081  0.1115
 3402TIP3    H131621   0.379   5.064  13.850  0.7462  0.4602 -1.2029
 3402TIP3    H231622   0.231   5.071  13.817  0.1595 -0.4535  1.0409
 3403TIP3   OH231623   1.751   5.117  14.834 -0.6478 -0.2724  0.2859
 3403TIP3    H131624   1.840   5.112  14.868 -0.9367  1.8424  1.5099
 3403TIP3    H231625   1.706   5.043  14.873  0.3350 -0.8298  0.3947
 3404TIP3   OH231626   3.587   1.323  10.760 -0.6148  0.3994 -0.4450
 3404TIP3    H131627   3.496   1.295  10.756 -0.2370 -0.9586  0.0442
 3404TIP3    H231628   3.633   1.250  10.801  1.2611 -0.3747 -3.5752
 3405TIP3   OH231629   0.764   2.901  13.824  0.4244  0.5821  0.5417
 3405TIP3    H131630   0.729   2.948  13.900  1.5195 -0.6064  1.8165
 3405TIP3    H231631   0.858   2.919  13.826  0.9202 -1.8254  1.2233
 3406TIP3   OH231632   4.774   2.460  12.318 -0.1640 -0.1114 -0.1441
 3406TIP3    H131633   4.804   2.467  12.408 -0.4742  0.0737 -0.0556
 3406TIP3    H231634   4.805   2.540  12.275 -0.6622  0.1537 -0.0131
 3407TIP3   OH231635   1.636   2.764   4.467 -0.0657  0.0709 -0.3545
 3407TIP3    H131636   1.722   2.756   4.509 -0.0115  0.4958 -0.3737
 3407TIP3    H231637   1.589   2.685   4.492 -0.1477  0.4630  0.7634
 3408TIP3   OH231638   3.519   5.511   4.065  0.6065 -0.4542 -0.2215
 3408TIP3    H131639   3.585   5.507   3.996  0.2939  0.0010 -0.5431
 3408TIP3    H231640   3.547   5.444   4.128  0.4536 -1.4067 -1.1577
 3409TIP3   OH231641   0.156   6.021   1.467 -0.0693  0.6136  0.3660
 3409TIP3    H131642   0.182   5.929   1.459 -1.3563  0.2888 -0.3931
 3409TIP3    H231643   0.236   6.067   1.490  0.3717 -0.8744  2.0206
 3410TIP3   OH231644   6.201   3.832   1.117  0.6524  0.2426 -0.2882
 3410TIP3    H131645   6.227   3.766   1.053 -0.1381 -0.9598  0.5749
 3410TIP3    H231646   6.223   3.916   1.076 -0.3378 -0.4466 -2.3595
 3411TIP3   OH231647   5.418   1.248   0.510 -0.0891  0.0720 -0.1984
 3411TIP3    H131648   5.441   1.161   0.542  0.4083  0.7758  1.4795
 3411TIP3    H231649   5.324   1.245   0.493 -0.1530 -0.6667  0.2810
 3412TIP3   OH231650   4.215   1.338   2.981 -0.5183  0.0543  0.1906
 3412TIP3    H131651   4.170   1.266   3.025 -0.4140  1.4692  2.8153
 3412TIP3    H231652   4.290   1.357   3.038 -1.0696  2.7978  0.1205
 3413TIP3   OH231653   3.935   2.451  14.317 -0.0457  0.3649  0.2453
 3413TIP3    H131654   3.930   2.460  14.412 -0.3676 -1.0877  0.3798
 3413TIP3    H231655   3.876   2.378  14.296  2.7724 -1.8054 -0.6530
 3414TIP3   OH231656   6.646   4.566   4.861 -0.5332  0.3395  0.0208
 3414TIP3    H131657   6.621   4.582   4.770  3.2814 -0.1749 -1.3121
 3414TIP3    H231658   6.739   4.591   4.865 -0.8615  1.6922  4.1994
 3415TIP3   OH231659   5.509   4.888   0.433  0.2866  0.2440 -0.5918
 3415TIP3    H131660   5.593   4.844   0.421  0.2011  0.1635 -0.9061
 3415TIP3    H231661   5.517   4.969   0.383 -0.0358 -0.0434 -1.1092
 3416TIP3   OH231662   5.267   2.148  11.546  0.1028  0.0558  0.2116
 3416TIP3    H131663   5.244   2.150  11.453  0.6326  0.5761  0.0826
 3416TIP3    H231664   5.276   2.241  11.570  0.0896 -0.0779  0.7487
 3417TIP3   OH231665   3.934   1.503  16.974  0.0247 -0.1408 -0.6222
 3417TIP3    H131666   3.853   1.537  17.013  0.8633  2.7709 -1.1630
 3417TIP3    H231667   3.995   1.576  16.979  1.6485 -1.2087 -3.0680
 3418TIP3   OH231668   0.982   2.296   3.671  0.5880  0.0295  0.1990
 3418TIP3    H131669   1.012   2.256   3.589  1.3602  0.1504  0.4140
 3418TIP3    H231670   1.048   2.272   3.735 -0.0598 -0.1391  0.8153
 3419TIP3   OH231671   4.992   0.115   1.470  0.0366 -0.1482  0.1267
 3419TIP3    H131672   4.938   0.041   1.445 -1.9680  1.1135  0.4461
 3419TIP3    H231673   4.969   0.131   1.562 -0.0278  1.2001 -0.0992
 3420TIP3   OH231674   3.716   3.051   3.881 -0.2039  0.1086 -0.1873
 3420TIP3    H131675   3.803   3.029   3.847 -0.9161 -1.5922 -0.9911
 3420TIP3    H231676   3.679   3.110   3.815 -0.1570 -0.2111 -0.5016
 3421TIP3   OH231677   4.331   5.671   3.308  0.0602  0.1174  0.0437
 3421TIP3    H131678   4.285   5.728   3.369 -0.0515 -0.3459  0.4064
 3421TIP3    H231679   4.286   5.587   3.315  1.0703 -0.4066  0.5496
 3422TIP3   OH231680   5.159   2.859   4.695  0.2340 -0.0107  0.0007
 3422TIP3    H131681   5.204   2.833   4.775 -0.2972  0.6653  0.5281
 3422TIP3    H231682   5.066   2.842   4.713  0.1070  0.1783 -0.4554
 3423TIP3   OH231683   6.516   3.618  13.515 -0.2910  0.0693  0.2772
 3423TIP3    H131684   6.578   3.568  13.567 -0.8252 -0.5313  0.3473
 3423TIP3    H231685   6.539   3.598  13.424 -1.5504 -1.6894  0.2855
 3424TIP3   OH231686   0.923   2.273  14.586  0.0483  0.1562 -0.0992
 3424TIP3    H131687   0.865   2.198  14.580 -0.3239  0.3651  0.8130
 3424TIP3    H231688   0.895   2.320  14.664  2.4086 -0.5477  1.2779
 3425TIP3   OH231689   2.289   4.266  10.861  0.6636 -0.0587  0.3859
 3425TIP3    H131690   2.266   4.265  10.768  1.5883  1.0535  0.1175
 3425TIP3    H231691   2.376   4.226  10.864 -0.1421 -1.8320  1.0409
 3426TIP3   OH231692   6.672   1.377  15.060  0.4615 -0.2519 -0.1938
 3426TIP3    H131693   6.639   1.287  15.049  0.1796 -0.2677  0.6730
 3426TIP3    H231694   6.766   1.370  15.043  0.3642 -0.6104 -0.6222
 3427TIP3   OH231695   1.899   0.147   2.865  0.1359  0.2150 -0.0016
 3427TIP3    H131696   1.835   0.084   2.831 -1.1741  1.2320  0.4976
 3427TIP3    H231697   1.953   0.096   2.926 -0.1388 -0.6803 -0.4874
 3428TIP3   OH231698   0.837   5.424  11.845 -0.0953  0.5379 -0.0033
 3428TIP3    H131699   0.916   5.427  11.790 -0.4847 -2.8028 -0.9600
 3428TIP3    H231700   0.767   5.457  11.789  0.1228  0.6398 -0.2156
 3429TIP3   OH231701   0.706   0.404  16.400  0.1343 -0.0578 -0.2533
 3429TIP3    H131702   0.788   0.442  16.370  0.4336 -0.9523 -0.5716
 3429TIP3    H231703   0.657   0.479  16.436  0.9750  0.5163 -0.2828
 3430TIP3   OH231704   6.287   6.211  14.377  0.1033 -0.4637  0.0590
 3430TIP3    H131705   6.288   6.254  14.292 -0.4870 -0.0194  0.2656
 3430TIP3    H231706   6.379   6.199  14.399  0.2656 -1.4620 -1.0702
 3431TIP3   OH231707   3.609   5.210  12.018  0.7203  0.2056  0.1273
 3431TIP3    H131708   3.587   5.290  12.065  0.7080  0.4570 -0.2953
 3431TIP3    H231709   3.532   5.194  11.963  0.8923  0.1353 -0.0925
 3432TIP3   OH231710   0.626   0.068   1.017 -0.2076  0.3011 -0.3260
 3432TIP3    H131711   0.707   0.022   0.993 -0.6955 -0.8816  0.1813
 3432TIP3    H231712   0.619   0.139   0.954  0.2806 -0.6723 -1.5291
 3433TIP3   OH231713   6.148   0.131  13.624  0.8527 -0.3597  0.2070
 3433TIP3    H131714   6.055   0.136  13.648  0.6006  2.2562 -1.0035
 3433TIP3    H231715   6.150   0.075  13.546  0.2181 -0.0278 -0.0535
 3434TIP3   OH231716   4.481   0.407   4.285 -0.0615  0.4103 -0.5558
 3434TIP3    H131717   4.459   0.489   4.242 -0.6391 -0.0116 -1.0878
 3434TIP3    H231718   4.494   0.344   4.214 -1.3673 -0.3736 -0.1383
 3435TIP3   OH231719   6.356   1.931  13.708  0.1671  0.3472  0.1762
 3435TIP3    H131720   6.415   1.922  13.783 -0.8926 -1.7146  0.8680
 3435TIP3    H231721   6.308   1.848  13.706 -1.2293  1.1250 -1.6142
 3436TIP3   OH231722   4.000   4.599   4.692  0.2773  0.3165  0.6551
 3436TIP3    H131723   3.913   4.559   4.689  1.2315 -1.8385  0.2764
 3436TIP3    H231724   4.060   4.526   4.704  2.1415  1.6412 -0.1418
 3437TIP3   OH231725   0.020   4.833   4.671  0.9341 -0.4535  0.0313
 3437TIP3    H131726  -0.005   4.750   4.630  1.2092 -0.8823  0.7110
 3437TIP3    H231727  -0.063   4.878   4.686  0.8660  0.0072 -1.5699
 3438TIP3   OH231728   5.642   2.659   5.124  0.2757 -0.3997 -0.4239
 3438TIP3    H131729   5.597   2.718   5.185 -0.7749 -1.4755 -0.1250
 3438TIP3    H231730   5.667   2.716   5.051  0.4110  0.6610  0.4172
 3439TIP3   OH231731   2.205   3.447  14.425  0.1039  0.5013  0.6164
 3439TIP3    H131732   2.198   3.442  14.329 -2.6548 -0.7080  0.7667
 3439TIP3    H231733   2.232   3.359  14.451  0.1873  0.6351  0.9828
 3440TIP3   OH231734   6.105   0.986   0.258 -0.0656  0.2034  0.4495
 3440TIP3    H131735   6.163   0.933   0.204 -0.5890  0.2464 -0.1608
 3440TIP3    H231736   6.164   1.041   0.310  0.4621 -0.5197  0.6328
 3441TIP3   OH231737   6.227   4.941  13.631 -0.6924 -0.3048  0.0273
 3441TIP3    H131738   6.185   4.912  13.712  0.9259 -0.1884  0.9429
 3441TIP3    H231739   6.220   5.036  13.633 -0.4592 -0.2906  0.1324
 3442TIP3   OH231740   2.548   4.959  13.187  0.3108 -0.0829  0.5841
 3442TIP3    H131741   2.610   4.980  13.117  0.3035  1.0145  0.8870
 3442TIP3    H231742   2.474   5.019  13.172 -0.8961 -1.6395 -0.0185
 3443TIP3   OH231743   3.020   0.833   1.072 -0.1684  0.1533  0.6655
 3443TIP3    H131744   2.939   0.783   1.063 -0.2314  0.2686  0.5834
 3443TIP3    H231745   3.030   0.847   1.166 -1.5499  2.2515  0.5619
 3444TIP3   OH231746   4.928   3.798   5.077  0.0924 -0.6137  0.4892
 3444TIP3    H131747   4.949   3.729   5.140 -1.0814  1.6166  3.6067
 3444TIP3    H231748   4.833   3.805   5.079 -0.2119 -1.6588 -3.1379
 3445TIP3   OH231749   0.016   1.431   3.345  0.0900  0.0407 -0.0282
 3445TIP3    H131750   0.004   1.341   3.317 -1.2032  0.0832  0.3332
 3445TIP3    H231751  -0.073   1.467   3.351  0.6151  1.6202 -1.0846
 3446TIP3   OH231752   0.528   5.564  10.732  0.0289 -0.1768  0.1706
 3446TIP3    H131753   0.514   5.522  10.817  0.0082  0.6765  0.6002
 3446TIP3    H231754   0.608   5.523  10.698 -0.5402 -1.2802  0.1065
 3447TIP3   OH231755   0.174   4.629   5.381  0.5851  0.5415  0.0538
 3447TIP3    H131756   0.151   4.536   5.377 -1.3581  0.8499  1.8778
 3447TIP3    H231757   0.239   4.634   5.451  0.5560  0.5573  0.0801
 3448TIP3   OH231758   2.677   3.515  12.492  0.0066  0.0620  0.2190
 3448TIP3    H131759   2.727   3.502  12.573 -0.9672 -1.6367  0.5932
 3448TIP3    H231760   2.600   3.460  12.503 -0.4745  0.3202 -1.6127
 3449TIP3   OH231761   4.770   3.520   4.439 -0.2994 -0.3378 -0.1247
 3449TIP3    H131762   4.675   3.508   4.428 -0.3069 -1.0799  0.7009
 3449TIP3    H231763   4.778   3.609   4.473 -0.9576 -1.2303  2.6422
 3450TIP3   OH231764   5.085   4.693  11.964  0.2572 -0.1919 -0.2253
 3450TIP3    H131765   5.134   4.627  12.013  0.1419 -0.4267 -0.4244
 3450TIP3    H231766   5.079   4.768  12.023  0.4521 -0.3345 -0.0267
 3451TIP3   OH231767   3.833   5.863   4.580  0.3682  0.4395 -0.1216
 3451TIP3    H131768   3.895   5.932   4.558  1.8988 -0.9786 -0.4083
 3451TIP3    H231769   3.838   5.801   4.507  0.4423 -0.9181  1.0004
 3452TIP3   OH231770   2.465   3.093   2.407  0.9267 -0.1524 -0.1756
 3452TIP3    H131771   2.425   3.167   2.361  0.2146 -1.0996 -1.1077
 3452TIP3    H231772   2.558   3.117   2.414  0.6981  0.8546 -0.3994
 3453TIP3   OH231773   0.743   4.793   2.384  0.0995  0.0884  0.0132
 3453TIP3    H131774   0.660   4.745   2.392  0.1282  0.3453  2.8494
 3453TIP3    H231775   0.723   4.881   2.416  1.6032 -0.0891  1.5982
 3454TIP3   OH231776   4.479   0.693   1.518  0.4719  0.1534  0.0789
 3454TIP3    H131777   4.540   0.629   1.555  0.8182  1.0218  1.0579
 3454TIP3    H231778   4.393   0.666   1.551  0.0088 -2.0369 -2.6129
 3455TIP3   OH231779   2.347   6.643  16.392 -0.5903 -0.4972  0.3274
 3455TIP3    H131780   2.346   6.672  16.483 -0.4810 -1.7149  0.7356
 3455TIP3    H231781   2.284   6.700  16.348 -0.1675  0.5319  1.0224
 3456TIP3   OH231782   1.852   4.465  14.733 -0.3779  0.1401  0.1048
 3456TIP3    H131783   1.789   4.425  14.793  0.0936 -0.2008  0.3840
 3456TIP3    H231784   1.800   4.493  14.658 -0.9264  0.2712  0.5298
 3457TIP3   OH231785   0.801   3.919  12.099  0.0620  0.5437  0.0895
 3457TIP3    H131786   0.813   3.896  12.007 -0.5307  1.4199 -0.2191
 3457TIP3    H231787   0.829   3.842  12.147 -1.5192 -0.6888 -0.8852
 3458TIP3   OH231788   2.540   2.215   2.867  0.0661  0.6259  0.4614
 3458TIP3    H131789   2.604   2.193   2.934  0.2970 -0.3298 -0.0536
 3458TIP3    H231790   2.500   2.131   2.843  0.0224  0.9374 -0.6182
 3459TIP3   OH231791   1.769   4.382  14.300 -0.4186  0.4213 -0.0986
 3459TIP3    H131792   1.840   4.429  14.257  0.3173 -0.0978  0.5144
 3459TIP3    H231793   1.810   4.300  14.331 -0.8791  0.8129  1.6582
 3460TIP3   OH231794   4.689   4.771   0.866 -0.1146  0.2337  0.0637
 3460TIP3    H131795   4.770   4.783   0.915  0.1707  1.2294 -0.6252
 3460TIP3    H231796   4.621   4.765   0.934  0.5273 -0.6325  0.6402
 3461TIP3   OH231797   4.866   0.097  11.249 -0.0201  0.4169 -0.3161
 3461TIP3    H131798   4.794   0.035  11.257 -0.7188  1.3993  1.5173
 3461TIP3    H231799   4.851   0.141  11.165 -0.1034 -1.1140 -1.1390
 3462TIP3   OH231800   3.236   6.552   4.690  0.3222 -0.3244 -0.2267
 3462TIP3    H131801   3.252   6.511   4.605  1.6403 -0.4671  0.0608
 3462TIP3    H231802   3.324   6.567   4.726 -0.1854 -1.9411  1.9089
 3463TIP3   OH231803   4.017   0.324   5.203 -0.1444  0.2916 -0.6344
 3463TIP3    H131804   3.992   0.391   5.267 -1.4308  0.2830 -1.0866
 3463TIP3    H231805   3.966   0.247   5.229  1.3457 -0.5599 -0.0968
 3464TIP3   OH231806   4.019   3.756  15.077  0.2094 -0.4701 -0.3314
 3464TIP3    H131807   3.950   3.784  15.018  1.6856  0.3792 -1.7130
 3464TIP3    H231808   4.062   3.683  15.032  1.8228  0.6634 -0.7169
 3465TIP3   OH231809   3.806   1.494  14.092 -0.1206  0.3867  0.9064
 3465TIP3    H131810   3.850   1.558  14.149 -0.9227  1.7738  0.0165
 3465TIP3    H231811   3.768   1.547  14.022 -0.6113 -1.1117  0.0083
 3466TIP3   OH231812   5.403   5.380   4.288 -0.2109 -0.5036 -0.0602
 3466TIP3    H131813   5.374   5.291   4.270  0.7527 -1.3058  2.0487
 3466TIP3    H231814   5.460   5.402   4.213 -2.3571 -0.6642 -1.8344
 3467TIP3   OH231815   5.721   4.826  11.055 -0.1994 -0.2793  0.3545
 3467TIP3    H131816   5.728   4.860  10.966 -1.1024  0.0420  0.3957
 3467TIP3    H231817   5.811   4.823  11.087  0.1831 -0.8089 -0.7153
 3468TIP3   OH231818   5.985   5.574   3.173 -0.1407 -0.1456 -0.5777
 3468TIP3    H131819   5.921   5.636   3.138  1.0406  0.8373 -1.0933
 3468TIP3    H231820   5.933   5.501   3.206 -1.6377  1.4578  0.7911
 3469TIP3   OH231821   6.137   5.752   2.687  0.2978  0.1667 -0.2846
 3469TIP3    H131822   6.099   5.692   2.751  2.7979 -0.3224  0.8523
 3469TIP3    H231823   6.223   5.715   2.665  0.2702  1.2423 -2.6373
 3470TIP3   OH231824   1.624   1.241  12.367  0.5710 -0.4581 -0.4141
 3470TIP3    H131825   1.535   1.250  12.336 -0.5885  1.2738  2.9269
 3470TIP3    H231826   1.638   1.146  12.374 -1.4753 -0.7597  0.0777
 3471TIP3   OH231827   5.805   0.783   4.831  0.3925 -0.7881 -0.1668
 3471TIP3    H131828   5.810   0.702   4.881 -2.1410 -0.3267  0.9929
 3471TIP3    H231829   5.870   0.840   4.871 -0.3474 -1.0458  1.4956
 3472TIP3   OH231830   3.777   3.711   3.837 -0.0860 -0.0595 -0.2162
 3472TIP3    H131831   3.790   3.778   3.768  0.3445  0.7443  0.6202
 3472TIP3    H231832   3.686   3.685   3.828 -0.0923  0.1833 -0.9605
 3473TIP3   OH231833   4.520   1.536   5.668 -0.2881 -0.3214 -0.0074
 3473TIP3    H131834   4.609   1.534   5.634 -0.2191 -0.0165  0.1587
 3473TIP3    H231835   4.529   1.534   5.763 -0.4932 -1.5668  0.0019
 3474TIP3   OH231836   4.929   0.184   3.411 -0.6783 -0.5426 -0.2880
 3474TIP3    H131837   4.898   0.193   3.502 -0.5300  0.4060 -0.3194
 3474TIP3    H231838   5.023   0.197   3.417 -0.8929  1.5576 -0.8102
 3475TIP3   OH231839   6.561   4.089   0.928  0.2814 -0.8204  0.1054
 3475TIP3    H131840   6.591   4.170   0.885  1.2550 -0.1887  1.8917
 3475TIP3    H231841   6.634   4.028   0.918  0.3395 -0.8145  0.5039
 3476TIP3   OH231842   2.885   0.942   3.277  0.0614  0.2324  0.0717
 3476TIP3    H131843   2.919   0.853   3.271  0.6631  0.2703  2.1684
 3476TIP3    H231844   2.791   0.934   3.257  0.5473 -0.4169 -2.2714
 3477TIP3   OH231845   0.284   3.969  11.013  0.1797 -0.4579 -0.5816
 3477TIP3    H131846   0.242   4.055  11.016  4.2551  1.8160 -0.6283
 3477TIP3    H231847   0.303   3.949  11.105  1.5003  0.0282 -0.7273
 3478TIP3   OH231848   0.481   1.491  14.062  0.6066  0.2154 -0.6280
 3478TIP3    H131849   0.482   1.521  14.153 -0.3325 -1.2367 -0.1137
 3478TIP3    H231850   0.533   1.557  14.015  0.1383  1.6344  0.7434
 3479TIP3   OH231851   3.789   6.353  12.579  0.2555 -0.2267 -0.1421
 3479TIP3    H131852   3.697   6.331  12.568  0.3130 -0.0843 -1.0007
 3479TIP3    H231853   3.789   6.441  12.617  0.0402 -0.6896  0.9642
 3480TIP3   OH231854   1.880   2.218  13.867 -0.0603  0.7697  0.2147
 3480TIP3    H131855   1.917   2.149  13.811 -3.4964 -0.5723 -0.6875
 3480TIP3    H231856   1.956   2.257  13.911  2.1667 -3.4896  0.7172
 3481TIP3   OH231857   2.086   6.110   3.515  0.3751 -0.0230  0.0262
 3481TIP3    H131858   2.023   6.161   3.464 -0.6402 -0.4975  0.7665
 3481TIP3    H231859   2.170   6.127   3.474 -0.2733  0.4322 -1.1442
 3482TIP3   OH231860   0.537   0.880  13.999 -0.1322  0.4666  0.0642
 3482TIP3    H131861   0.537   0.951  14.063 -0.4795  0.0849  0.4971
 3482TIP3    H231862   0.623   0.884  13.958  0.3133  0.3608  0.9653
 3483TIP3   OH231863   5.880   5.439   2.732  0.3972 -0.0136 -0.2849
 3483TIP3    H131864   5.812   5.413   2.794  0.9492  1.1253  0.8198
 3483TIP3    H231865   5.844   5.412   2.646 -0.4318 -1.4689  0.4673
 3484TIP3   OH231866   2.792   1.722  15.111  0.1721  0.6189 -0.1270
 3484TIP3    H131867   2.856   1.663  15.070  0.3655 -1.2045  2.5618
 3484TIP3    H231868   2.709   1.676  15.103  0.2656  0.0613  1.6856
 3485TIP3   OH231869   3.876   5.336  11.628 -0.0371 -0.0319 -0.2336
 3485TIP3    H131870   3.851   5.361  11.717 -1.4918  1.3528 -0.9751
 3485TIP3    H231871   3.971   5.331  11.630  0.1221  2.2977  0.8470
 3486TIP3   OH231872   1.153   0.807  12.331  0.5068  0.1003  0.3295
 3486TIP3    H131873   1.193   0.746  12.394 -0.7760  0.2234  1.3078
 3486TIP3    H231874   1.140   0.755  12.252  2.7060  0.1036 -0.1028
 3487TIP3   OH231875   2.145   4.757   3.511 -0.1354 -0.0418  0.0602
 3487TIP3    H131876   2.184   4.672   3.531  1.6803  0.5375 -0.8614
 3487TIP3    H231877   2.149   4.805   3.594 -0.9442 -0.7330  0.5213
 3488TIP3   OH231878   0.612   4.016  16.623 -0.1320 -0.4496 -0.3806
 3488TIP3    H131879   0.641   3.945  16.681  0.1826 -0.3881 -0.4567
 3488TIP3    H231880   0.587   3.972  16.542  1.2468 -0.3776 -0.8727
 3489TIP3   OH231881   4.853   5.921  11.374  0.1370  1.0605 -0.1324
 3489TIP3    H131882   4.822   5.935  11.284  0.4491  0.2044 -0.3914
 3489TIP3    H231883   4.909   5.843  11.367  1.8473  2.1721  0.4261
 3490TIP3   OH231884   3.418   0.559  14.609 -0.2419 -0.1076  0.1741
 3490TIP3    H131885   3.485   0.609  14.657 -2.1077  1.8754  0.8858
 3490TIP3    H231886   3.421   0.595  14.520  1.1740 -1.6992 -0.4889
 3491TIP3   OH231887   1.923   4.712  14.391  0.0694 -0.3121 -0.2136
 3491TIP3    H131888   1.982   4.746  14.457  0.6442 -0.3021 -0.7287
 3491TIP3    H231889   1.972   4.642  14.348  0.2630  0.6258 -1.6059
 3492TIP3   OH231890   0.692   6.722   4.476  0.0351  0.2127 -0.3363
 3492TIP3    H131891   0.700   6.777   4.398  0.0242  0.6505 -0.0324
 3492TIP3    H231892   0.768   6.746   4.529  0.2604 -0.3722 -0.3917
 3493TIP3   OH231893   5.510   4.746  15.466 -0.2860 -0.2588  0.2461
 3493TIP3    H131894   5.533   4.800  15.390  0.1477  0.0635  0.6094
 3493TIP3    H231895   5.472   4.807  15.529  0.2528 -0.3604  0.6781
 3494TIP3   OH231896   6.662   3.507  13.847 -0.4073 -0.0408  0.3217
 3494TIP3    H131897   6.628   3.439  13.906 -2.3238  0.2702 -0.3425
 3494TIP3    H231898   6.685   3.460  13.767  0.8490 -0.2535  0.7768
 3495TIP3   OH231899   1.343   1.102  14.663  0.3676 -0.1712  0.2389
 3495TIP3    H131900   1.407   1.081  14.595  0.1012 -0.4291  0.0645
 3495TIP3    H231901   1.393   1.149  14.730  0.6908 -0.1731  0.0001
 3496TIP3   OH231902   0.043   2.784   1.662 -0.1697  0.1213 -0.2155
 3496TIP3    H131903   0.119   2.799   1.719 -0.9533 -0.4066  1.0025
 3496TIP3    H231904   0.081   2.759   1.578  1.0143 -0.4630  0.4630
 3497TIP3   OH231905   3.034   4.207   1.134  0.3441  0.3960 -0.2331
 3497TIP3    H131906   3.095   4.138   1.161  1.8493  1.1356 -1.5684
 3497TIP3    H231907   3.018   4.190   1.041  1.2725  2.1570 -0.7607
 3498TIP3   OH231908   6.026   5.975   5.517  0.4505 -1.5658 -0.1755
 3498TIP3    H131909   6.045   6.027   5.595  0.2479 -1.0385 -0.4692
 3498TIP3    H231910   5.988   6.038   5.456  1.0063 -1.8843 -0.8578
 3499TIP3   OH231911   4.239   3.991  16.809  0.4610  0.0355  0.5559
 3499TIP3    H131912   4.172   4.018  16.872  0.5647  0.2602  0.5724
 3499TIP3    H231913   4.194   3.990  16.725  0.6693  1.1237  0.4232
 3500TIP3   OH231914   6.226   1.640   0.211 -0.8128 -0.0044 -0.0076
 3500TIP3    H131915   6.244   1.576   0.142  0.7056 -1.6830  1.8099
 3500TIP3    H231916   6.131   1.637   0.223 -1.1899  0.7427 -2.3069
 3501TIP3   OH231917   5.776   0.800   2.748  0.0177  0.4886  0.1136
 3501TIP3    H131918   5.870   0.815   2.762  0.8714 -2.5530 -1.2982
 3501TIP3    H231919   5.770   0.773   2.656 -2.3714  1.2748 -0.0240
 3502TIP3   OH231920   5.928   2.264   3.918 -0.4150 -0.1655  0.4859
 3502TIP3    H131921   5.977   2.245   3.998  0.3691  0.6228  0.2035
 3502TIP3    H231922   5.995   2.273   3.850 -1.0699 -0.8730 -0.2827
 3503TIP3   OH231923   5.016   3.077   2.425  0.0495 -0.1167 -0.2263
 3503TIP3    H131924   5.001   3.054   2.333 -1.6854  0.1957 -0.0520
 3503TIP3    H231925   4.997   2.997   2.473 -0.2524  0.0568 -0.0540
 3504TIP3   OH231926   0.346   1.795   1.182  0.0824  0.7282 -0.4315
 3504TIP3    H131927   0.254   1.769   1.180  0.0436  0.8201  0.1578
 3504TIP3    H231928   0.363   1.828   1.093 -0.5575  1.0694 -0.4359
 3505TIP3   OH231929   3.565   4.524   1.564 -0.0641  0.1044 -0.5737
 3505TIP3    H131930   3.586   4.485   1.649 -0.8178 -0.8008 -0.7809
 3505TIP3    H231931   3.546   4.616   1.583 -0.2234 -0.0881  0.2350
 3506TIP3   OH231932   2.721   1.585  10.535 -0.1249 -0.5200 -0.2187
 3506TIP3    H131933   2.756   1.496  10.530  1.4164  0.0576 -0.4944
 3506TIP3    H231934   2.799   1.641  10.540 -1.0423  0.8492 -0.5814
 3507TIP3   OH231935   5.696   0.433   4.432  0.4145 -0.0571  0.1944
 3507TIP3    H131936   5.703   0.524   4.460 -0.0312  0.3063 -0.8209
 3507TIP3    H231937   5.784   0.411   4.401 -0.1623  1.1132 -2.6108
 3508TIP3   OH231938   6.502   6.607  10.875 -0.0597 -0.2104  0.8061
 3508TIP3    H131939   6.572   6.546  10.850 -0.2924  0.2014 -0.9791
 3508TIP3    H231940   6.429   6.550  10.899 -0.7500 -0.7597 -2.2009
 3509TIP3   OH231941   2.770   5.538  14.807  0.0257  0.3170  0.0032
 3509TIP3    H131942   2.777   5.460  14.753 -1.6818 -0.0539  0.2581
 3509TIP3    H231943   2.790   5.508  14.896 -1.3359 -0.0220  0.2167
 3510TIP3   OH231944   2.280   5.877  11.098 -0.0628  0.2773 -0.2828
 3510TIP3    H131945   2.207   5.814  11.105 -2.1921  2.5511 -0.4660
 3510TIP3    H231946   2.282   5.921  11.184  0.2958  1.0431 -0.6726
 3511TIP3   OH231947   0.342   4.674  10.979  0.0703 -0.5263 -0.3133
 3511TIP3    H131948   0.286   4.648  10.905  1.5592 -1.2415 -1.2518
 3511TIP3    H231949   0.428   4.687  10.939  0.7296 -0.1178  1.1929
 3512TIP3   OH231950   0.215   3.005  11.796 -0.5621 -0.5900 -0.2781
 3512TIP3    H131951   0.170   2.980  11.715  0.7552 -0.9052 -0.9519
 3512TIP3    H231952   0.306   3.019  11.769  0.2462 -2.1709  1.4098
 3513TIP3   OH231953   1.215   4.097  13.029  0.2679 -0.4180  0.6035
 3513TIP3    H131954   1.281   4.039  12.991 -1.2564 -0.6163 -2.0496
 3513TIP3    H231955   1.257   4.183  13.034  0.9441 -0.6752 -0.4256
 3514TIP3   OH231956   2.029   0.866  11.011  0.1612  0.2733  0.1962
 3514TIP3    H131957   1.972   0.807  11.060 -0.4626 -0.2901 -1.1613
 3514TIP3    H231958   2.117   0.842  11.039 -0.0532 -1.5213 -0.4982
 3515TIP3   OH231959   5.467   2.344  15.018 -0.3411 -0.7151  0.0969
 3515TIP3    H131960   5.387   2.370  15.064 -0.4206 -2.4501  1.0188
 3515TIP3    H231961   5.437   2.321  14.930 -0.8066 -1.0537  0.3412
 3516TIP3   OH231962   3.662   0.836   2.116 -0.4686  1.0253  0.0932
 3516TIP3    H131963   3.699   0.843   2.028 -1.6070  1.8646 -0.3444
 3516TIP3    H231964   3.580   0.886   2.112 -0.9601  0.3794  1.4017
 3517TIP3   OH231965   5.578   2.695   3.144  0.1061  0.1562  0.1117
 3517TIP3    H131966   5.637   2.749   3.091  0.2561  1.5524  1.6291
 3517TIP3    H231967   5.514   2.757   3.178  0.9093 -0.3675  2.7872
 3518TIP3   OH231968   0.251   4.601   0.183 -0.7337  0.8552 -0.1911
 3518TIP3    H131969   0.175   4.552   0.152 -1.1327  0.9685  0.5806
 3518TIP3    H231970   0.243   4.686   0.141 -0.6715  0.6527 -0.6244
 3519TIP3   OH231971   6.658   4.335   4.360 -0.0237  0.0987  0.0585
 3519TIP3    H131972   6.568   4.303   4.366 -0.1713  0.5251  0.0984
 3519TIP3    H231973   6.661   4.411   4.418  0.4877 -0.1912  0.4237
 3520TIP3   OH231974   6.047   3.802  14.388  0.0599  0.1971  0.2851
 3520TIP3    H131975   6.058   3.712  14.418 -0.7546  0.2226  0.6974
 3520TIP3    H231976   5.960   3.828  14.421  0.3583  1.1890  0.3294
 3521TIP3   OH231977   3.493   3.037  14.507 -0.1510  0.5798  0.1395
 3521TIP3    H131978   3.523   2.966  14.564 -3.4523 -0.4362  0.8201
 3521TIP3    H231979   3.461   2.993  14.429 -0.6316  1.4941 -0.1904
 3522TIP3   OH231980   3.581   4.178   5.744 -0.4662  0.1796  0.0736
 3522TIP3    H131981   3.650   4.229   5.786  0.2827 -0.8858  0.1995
 3522TIP3    H231982   3.618   4.090   5.737 -2.3784 -0.8127  1.5177
 3523TIP3   OH231983   3.865   6.138   1.313 -0.7795  0.3659  0.3157
 3523TIP3    H131984   3.880   6.209   1.376 -1.3842 -0.1761  1.0896
 3523TIP3    H231985   3.815   6.073   1.362 -2.2443  0.4086 -1.0349
 3524TIP3   OH231986   2.756   2.225  12.462 -0.2721 -0.4915  0.3866
 3524TIP3    H131987   2.797   2.303  12.423  1.8875 -1.0197  1.4239
 3524TIP3    H231988   2.665   2.228  12.432  0.6927  0.2643 -2.9177
 3525TIP3   OH231989   1.587   6.167   1.774  0.4315  0.3366 -0.1526
 3525TIP3    H131990   1.639   6.111   1.716 -1.7471 -2.9997  0.7784
 3525TIP3    H231991   1.650   6.209   1.832  2.2333 -1.7096 -0.5230
 3526TIP3   OH231992   6.227   6.730   5.813 -0.3433  0.1149 -0.3205
 3526TIP3    H131993   6.239   6.754   5.905  0.0332  0.6753 -0.5143
 3526TIP3    H231994   6.153   6.784   5.784 -0.3397  0.0763 -0.4010
 3527TIP3   OH231995   5.810   2.054   5.055 -0.3294  0.2142 -0.6255
 3527TIP3    H131996   5.887   2.086   5.102 -0.4181 -0.3621 -0.0659
 3527TIP3    H231997   5.837   2.049   4.964 -0.3075  1.8282 -0.7335
 3528TIP3   OH231998   2.484   4.500  13.085 -0.2307 -0.0639  0.0743
 3528TIP3    H131999   2.529   4.416  13.095  2.1964  1.0478 -0.8354
 3528TIP3    H232000   2.481   4.536  13.173 -0.9528 -0.8996  0.4104
 3529TIP3   OH232001   3.902   3.393   1.928  0.1192 -0.1362  0.4749
 3529TIP3    H132002   3.829   3.389   1.867 -1.4939  0.2367  2.2831
 3529TIP3    H232003   3.861   3.395   2.015  2.2573  0.4816  1.5517
 3530TIP3   OH232004   5.954   3.382  15.071 -0.0887  0.2326 -0.4393
 3530TIP3    H132005   5.881   3.386  15.009 -1.6960  1.0168  1.3880
 3530TIP3    H232006   5.944   3.298  15.114  1.5153 -0.6764 -1.7351
 3531TIP3   OH232007   5.549   1.423  13.744 -0.7841 -0.5393 -0.2496
 3531TIP3    H132008   5.607   1.398  13.672  0.8450 -0.7224  1.0717
 3531TIP3    H232009   5.608   1.458  13.811 -2.5556  3.6942 -0.5820
 3532TIP3   OH232010   2.814   3.774  16.966  0.7387 -0.1820  0.2413
 3532TIP3    H132011   2.802   3.802  17.057 -0.2116  1.8339 -0.4315
 3532TIP3    H232012   2.728   3.788  16.926  1.1585 -0.9735 -0.9833
 3533TIP3   OH232013   6.623   5.561   0.294  0.2191  0.2484  0.2503
 3533TIP3    H132014   6.656   5.593   0.378 -0.9938  0.3074  0.7357
 3533TIP3    H232015   6.668   5.614   0.228  3.3375 -1.6889  0.6491
 3534TIP3   OH232016   1.590   2.620   3.510 -0.1755 -0.1576  0.5112
 3534TIP3    H132017   1.572   2.708   3.476  0.3920  0.2039  1.1120
 3534TIP3    H232018   1.678   2.627   3.548  0.6038 -1.4526 -0.9704
 3535TIP3   OH232019   5.749   6.273   4.913  0.3062  0.0808  0.0637
 3535TIP3    H132020   5.726   6.360   4.944  1.2294  0.7816 -1.1106
 3535TIP3    H232021   5.667   6.223   4.915 -0.0022  0.6157  1.8260
 3536TIP3   OH232022   1.985   4.401  16.020 -0.5816  0.5556  0.5308
 3536TIP3    H132023   1.892   4.415  16.039 -0.9625  2.2723 -2.0174
 3536TIP3    H232024   1.986   4.336  15.951  0.1731  0.1828  0.8830
 3537TIP3   OH232025   2.720   6.008   4.308 -0.0657 -0.0114 -1.1601
 3537TIP3    H132026   2.635   5.998   4.266 -1.2493 -2.0162  1.4412
 3537TIP3    H232027   2.707   6.077   4.374  0.7417  0.6246 -1.6464
 3538TIP3   OH232028   0.946   2.574  10.559  0.6598  0.3156  0.0836
 3538TIP3    H132029   1.015   2.631  10.592  1.7779  0.3198 -2.0760
 3538TIP3    H232030   0.971   2.486  10.588  0.9355  0.4599  0.2858
 3539TIP3   OH232031   1.231   1.034   0.806 -0.3930  0.4038  0.0127
 3539TIP3    H132032   1.240   1.122   0.843  0.7502 -0.0707  0.9213
 3539TIP3    H232033   1.187   0.984   0.875 -0.5755  0.1322 -0.2989
 3540TIP3   OH232034   2.407   1.906   0.901  0.3113  0.1716  0.1691
 3540TIP3    H132035   2.313   1.893   0.916  0.2367  0.7305  0.2120
 3540TIP3    H232036   2.411   1.980   0.840  0.6927 -0.4846 -0.6283
 3541TIP3   OH232037   5.672   4.948  17.123 -0.1044 -0.3271 -0.0981
 3541TIP3    H132038   5.710   4.960  17.210 -2.1069  3.0907  0.4718
 3541TIP3    H232039   5.604   4.882  17.136 -0.1390 -0.1248  0.8501
 3542TIP3   OH232040   2.769   1.247   1.088 -0.7875  0.5353 -0.0938
 3542TIP3    H132041   2.832   1.177   1.105 -2.5958 -1.6320 -1.8477
 3542TIP3    H232042   2.768   1.297   1.170  1.9071 -0.3344  0.5834
 3543TIP3   OH232043   6.535   6.260   2.380 -0.1247 -0.4821 -1.0325
 3543TIP3    H132044   6.475   6.228   2.314 -0.1909 -0.4227 -1.0007
 3543TIP3    H232045   6.490   6.247   2.463  0.5224 -1.8881 -0.8700
 3544TIP3   OH232046   0.786   2.641  12.771 -0.3343 -0.2044 -0.1434
 3544TIP3    H132047   0.752   2.715  12.720 -0.3062  1.0706  1.6185
 3544TIP3    H232048   0.715   2.618  12.831 -0.2369 -1.4477 -0.4869
 3545TIP3   OH232049   5.438   5.189   3.872  0.2429 -0.1275  0.0208
 3545TIP3    H132050   5.423   5.198   3.966 -2.4854  2.7118 -0.5413
 3545TIP3    H232051   5.352   5.170   3.835  1.0092  0.0589 -2.0175
 3546TIP3   OH232052   4.171   4.450   1.658 -0.1489  0.4045 -0.2526
 3546TIP3    H132053   4.192   4.357   1.654 -0.2992  0.3785 -0.4366
 3546TIP3    H232054   4.254   4.493   1.680 -0.3261  0.1216  1.0674
 3547TIP3   OH232055   5.436   5.504  16.229 -0.2573  0.4032  0.4887
 3547TIP3    H132056   5.462   5.460  16.148 -1.4054  1.0655 -0.2615
 3547TIP3    H232057   5.461   5.444  16.299  1.9433  0.3744 -0.2559
 3548TIP3   OH232058   5.983   2.734   3.721 -0.1824  0.4184 -0.0873
 3548TIP3    H132059   5.912   2.755   3.781  0.5144 -1.3632  1.4790
 3548TIP3    H232060   6.052   2.797   3.742 -0.0290 -0.0494  0.8520
 3549TIP3   OH232061   0.628   0.060   3.608 -0.4513 -0.4412 -0.2937
 3549TIP3    H132062   0.686   0.003   3.659  1.6267  0.8047 -1.0998
 3549TIP3    H232063   0.617   0.013   3.525  0.2388 -0.2545 -0.4991
 3550TIP3   OH232064   3.970   0.716  16.291  0.2711 -0.2520  0.1064
 3550TIP3    H132065   3.879   0.736  16.267 -0.5585 -1.1166  2.2415
 3550TIP3    H232066   3.984   0.627  16.261 -0.2476 -0.7815  1.3636
 3551TIP3   OH232067   5.687   2.277  16.185 -0.4327 -0.5345  0.6020
 3551TIP3    H132068   5.759   2.214  16.197 -0.1200 -0.2988  0.0471
 3551TIP3    H232069   5.705   2.317  16.100 -2.3954 -2.0181 -0.6027
 3552TIP3   OH232070   1.550   4.390   6.176 -0.2854  0.1583  0.2446
 3552TIP3    H132071   1.563   4.338   6.097 -1.1095 -1.9515  1.4186
 3552TIP3    H232072   1.466   4.435   6.162 -0.7002 -0.6364  0.1257
 3553TIP3   OH232073   1.837   1.684   0.252 -0.3702  0.1523  0.0781
 3553TIP3    H132074   1.826   1.639   0.335 -1.2304 -0.3603 -0.2987
 3553TIP3    H232075   1.924   1.723   0.257 -0.2950 -0.1155  1.0950
 3554TIP3   OH232076   5.133   5.123  10.241  0.3136  0.2804  0.1492
 3554TIP3    H132077   5.196   5.186  10.207  0.0212 -0.4199 -1.8151
 3554TIP3    H232078   5.185   5.065  10.297  0.8274  1.4256  0.8956
 3555TIP3   OH232079   2.934   1.319   2.767  0.4549 -0.0039 -0.2332
 3555TIP3    H132080   2.899   1.231   2.749  0.4140  0.2949 -1.7948
 3555TIP3    H232081   2.887   1.376   2.705  2.8071  0.5997 -1.5849
 3556TIP3   OH232082   0.372   2.217  13.571  0.0419 -0.2629 -0.2811
 3556TIP3    H132083   0.287   2.211  13.527 -1.9162  1.6831  2.8218
 3556TIP3    H232084   0.350   2.221  13.665  3.6578 -0.7119  0.7327
 3557TIP3   OH232085   3.139   2.792  11.218 -0.2452  0.1567  0.3404
 3557TIP3    H132086   3.181   2.710  11.243 -1.4307 -0.4127  0.5276
 3557TIP3    H232087   3.046   2.770  11.208 -0.4193  1.2319 -0.6818
 3558TIP3   OH232088   6.060   6.430  13.254 -0.2739  0.5733 -0.7501
 3558TIP3    H132089   6.043   6.387  13.338  1.9244 -0.9584 -1.0332
 3558TIP3    H232090   5.987   6.491  13.244 -0.8476  0.4706  2.0425
 3559TIP3   OH232091   4.454   5.138   2.936 -0.2779  0.4532  0.0387
 3559TIP3    H132092   4.413   5.091   3.009 -0.0337  0.3544  0.1128
 3559TIP3    H232093   4.415   5.226   2.941  0.1427  0.6160  0.6358
 3560TIP3   OH232094   2.007   0.775  15.550  0.5334  0.0309  0.0827
 3560TIP3    H132095   1.915   0.762  15.524 -0.3485  2.1807  1.7523
 3560TIP3    H232096   2.006   0.768  15.645  2.4094 -1.2555  0.0547
 3561TIP3   OH232097   5.080   0.530  11.484 -0.3224  0.1233 -0.3354
 3561TIP3    H132098   5.079   0.453  11.426  1.2873 -0.9691  0.9604
 3561TIP3    H232099   4.991   0.564  11.481 -0.8277 -1.1964 -1.7513
 3562TIP3   OH232100   5.067   1.196   4.547 -0.5693  0.2419 -0.0273
 3562TIP3    H132101   5.053   1.290   4.560  0.0606  0.5238 -1.2095
 3562TIP3    H232102   5.075   1.160   4.636  0.7653  1.5653  0.4192
 3563TIP3   OH232103   5.034   0.985   2.609  0.0348  0.2184  0.6713
 3563TIP3    H132104   5.049   0.993   2.515 -1.0347 -0.5475  0.4175
 3563TIP3    H232105   5.114   1.019   2.649  2.4084 -3.3983 -0.5448
 3564TIP3   OH232106   2.824   5.156  14.314  0.1400 -0.0803 -0.6609
 3564TIP3    H132107   2.891   5.150  14.246 -0.8162  0.4615 -1.6829
 3564TIP3    H232108   2.870   5.194  14.389  1.1807 -0.5446 -1.0389
 3565TIP3   OH232109   1.856   3.400  12.821  0.6408 -0.3144  0.3585
 3565TIP3    H132110   1.867   3.434  12.910  3.0559 -0.4779  0.1984
 3565TIP3    H232111   1.877   3.307  12.828  1.9485 -0.1192 -0.5161
 3566TIP3   OH232112   1.376   5.340   4.324 -0.1026 -0.0018  0.0901
 3566TIP3    H132113   1.400   5.333   4.416 -1.2350 -1.8043  0.2992
 3566TIP3    H232114   1.453   5.309   4.276 -0.0468 -0.5382  0.5140
 3567TIP3   OH232115   2.303   2.794  16.292 -0.4432 -0.3241  0.1045
 3567TIP3    H132116   2.298   2.878  16.245 -0.2542  0.7151  1.8476
 3567TIP3    H232117   2.370   2.808  16.359  0.5819 -2.3444 -0.4100
 3568TIP3   OH232118   5.944   1.246  15.314  0.0030 -0.0694  0.0919
 3568TIP3    H132119   5.913   1.315  15.374 -0.7298  0.1725 -0.5358
 3568TIP3    H232120   5.968   1.294  15.235  1.5376 -0.3217  0.3773
 3569TIP3   OH232121   6.394   1.242   4.686  0.4463  0.3412 -0.1309
 3569TIP3    H132122   6.483   1.245   4.650  0.5116 -0.0467 -0.0075
 3569TIP3    H232123   6.405   1.263   4.779  0.4166  0.2476 -0.1058
 3570TIP3   OH232124   5.550   0.922   1.140  0.2658 -0.0877  0.2413
 3570TIP3    H132125   5.561   0.865   1.216 -3.0464 -0.0117  0.9112
 3570TIP3    H232126   5.516   0.864   1.071  1.4562  0.2131 -0.6347
 3571TIP3   OH232127   6.670   3.998  11.537  0.1150  0.2185  0.2237
 3571TIP3    H132128   6.668   4.064  11.607 -0.0220  0.1322  0.3038
 3571TIP3    H232129   6.627   4.041  11.463  0.8016  0.5252 -0.0061
 3572TIP3   OH232130   5.642   6.059  13.915  0.2787  0.1033 -0.5509
 3572TIP3    H132131   5.668   5.988  13.858  1.5897 -0.6882  0.9642
 3572TIP3    H232132   5.562   6.028  13.957 -0.3899  0.4702 -1.5176
 3573TIP3   OH232133   2.432   4.677   4.312  0.6335  0.3775 -0.3558
 3573TIP3    H132134   2.443   4.760   4.358  0.2959  0.1354  0.1674
 3573TIP3    H232135   2.366   4.630   4.362  3.0352 -1.5404  1.2739
 3574TIP3   OH232136   3.542   2.466  16.280 -0.5342 -0.2348 -0.4984
 3574TIP3    H132137   3.549   2.427  16.367 -0.0364 -1.1742 -0.9472
 3574TIP3    H232138   3.627   2.507  16.266 -1.3340  1.8512  0.3279
 3575TIP3   OH232139   5.703   4.325  14.781  0.2467 -0.2399 -0.3110
 3575TIP3    H132140   5.690   4.419  14.782 -0.7875 -0.3748 -0.2199
 3575TIP3    H232141   5.622   4.289  14.818  0.1939 -1.1998 -1.3129
 3576TIP3   OH232142   3.395   4.109  12.988  0.3709 -0.5855 -0.0324
 3576TIP3    H132143   3.456   4.180  12.967  0.9516 -0.8382  0.7065
 3576TIP3    H232144   3.413   4.090  13.081  0.3716 -1.8170 -0.2645
 3577TIP3   OH232145   5.633   6.538  11.950 -0.1876  0.0095 -0.1946
 3577TIP3    H132146   5.714   6.584  11.969 -0.4289  0.3785 -0.0398
 3577TIP3    H232147   5.621   6.546  11.855 -0.2409  0.2875 -0.1639
 3578TIP3   OH232148   5.887   4.487  17.092  0.6700  0.6684 -0.5949
 3578TIP3    H132149   5.875   4.566  17.040 -1.1059  0.8436 -0.0017
 3578TIP3    H232150   5.971   4.500  17.137  0.0343  2.6314  0.1335
 3579TIP3   OH232151   3.820   6.650   4.779  0.5117  0.0773  0.8129
 3579TIP3    H132152   3.911   6.677   4.767  0.2139  0.7373 -0.0910
 3579TIP3    H232153   3.811   6.571   4.725  1.0246 -1.0926  2.3857
 3580TIP3   OH232154   2.482   5.621   3.544  0.4944  0.8179  0.2194
 3580TIP3    H132155   2.516   5.589   3.627  1.5215 -1.5615 -1.0258
 3580TIP3    H232156   2.393   5.651   3.564 -1.0669 -3.7922  1.5246
 3581TIP3   OH232157   3.434   1.348  15.515 -0.3667  0.3102  1.2991
 3581TIP3    H132158   3.352   1.350  15.564 -1.2539 -1.4548 -0.0061
 3581TIP3    H232159   3.420   1.409  15.442 -0.6638 -0.2170  0.9050
 3582TIP3   OH232160   1.114   5.902  16.329 -0.0374  0.0416 -0.4553
 3582TIP3    H132161   1.073   5.825  16.291 -0.4056 -0.5642  1.0973
 3582TIP3    H232162   1.113   5.886  16.423  1.8091  0.9849 -0.2209
 3583TIP3   OH232163   2.909   5.172   0.958 -0.0582  0.6054 -0.3103
 3583TIP3    H132164   2.893   5.144   1.048  2.6583 -0.8210 -0.1509
 3583TIP3    H232165   2.834   5.228   0.936 -2.5867 -1.7796  1.5838
 3584TIP3   OH232166   1.919   0.908   5.965  0.0845  0.0056 -0.3739
 3584TIP3    H132167   1.903   1.003   5.968 -1.9466 -0.3035 -0.1573
 3584TIP3    H232168   1.910   0.880   6.056  2.2223 -0.2223 -0.1803
 3585TIP3   OH232169   6.590   4.812   5.881 -0.5160 -0.5177 -0.0713
 3585TIP3    H132170   6.667   4.836   5.830  0.0371 -1.7343  0.1424
 3585TIP3    H232171   6.571   4.889   5.935  2.3835 -1.1271  2.0545
 3586TIP3   OH232172   2.134   2.911  11.357 -0.1402  0.0554 -0.1322
 3586TIP3    H132173   2.176   2.827  11.376 -1.9688 -1.0047 -0.5398
 3586TIP3    H232174   2.040   2.892  11.363 -0.6053  1.7663 -1.5237
 3587TIP3   OH232175   4.070   5.594   2.880 -0.0488 -0.0058 -0.4360
 3587TIP3    H132176   4.085   5.510   2.837 -0.8831  0.1012 -0.9384
 3587TIP3    H232177   4.156   5.617   2.916  0.4388 -0.5623 -1.1989
 3588TIP3   OH232178   0.311   4.296   3.016  0.2498  1.1184 -0.1047
 3588TIP3    H132179   0.346   4.218   2.973 -0.6296  0.2098  0.7693
 3588TIP3    H232180   0.362   4.368   2.980  2.2423 -0.0182  0.2818
 3589TIP3   OH232181   1.880   5.393   6.618  0.2921  0.4976 -0.0905
 3589TIP3    H132182   1.972   5.368   6.615 -0.2351 -1.5894 -0.3381
 3589TIP3    H232183   1.875   5.474   6.567  2.0554  0.9719  0.4300
 3590TIP3   OH232184   6.517   5.101  16.177  0.5139 -0.0044 -0.3301
 3590TIP3    H132185   6.528   5.165  16.106  0.3828 -0.3280 -0.6432
 3590TIP3    H232186   6.428   5.117  16.209  0.4706 -0.0522 -0.4286
 3591TIP3   OH232187   4.557   5.526  14.553  0.0022  0.3643 -0.3202
 3591TIP3    H132188   4.540   5.465  14.481 -2.1278 -0.2912  0.6607
 3591TIP3    H232189   4.608   5.475  14.617 -1.8490 -0.4849  0.5368
 3592TIP3   OH232190   6.589   5.774   2.247  0.1174 -0.2782  0.2526
 3592TIP3    H132191   6.593   5.778   2.342 -0.6736  0.3308  0.2675
 3592TIP3    H232192   6.629   5.689   2.225  0.3813 -0.3876  1.1094
 3593TIP3   OH232193   4.563   5.400   2.876  0.1257 -0.2690  0.3102
 3593TIP3    H132194   4.510   5.469   2.916  0.7934  0.7879 -0.5559
 3593TIP3    H232195   4.625   5.447   2.820  0.8723 -1.5613  0.0093
 3594TIP3   OH232196   1.266   0.525  14.796 -0.0386  0.2743 -0.2714
 3594TIP3    H132197   1.270   0.431  14.784 -1.1784 -0.1298  2.0257
 3594TIP3    H232198   1.183   0.552  14.757 -0.9236 -0.1007  1.2998
 3595TIP3   OH232199   0.327   6.529  12.928 -0.5332  0.7846 -0.1581
 3595TIP3    H132200   0.286   6.443  12.935  0.7735 -0.0215 -1.8554
 3595TIP3    H232201   0.302   6.561  12.841  1.4253  0.7851 -0.7536
 3596TIP3   OH232202   2.813   4.157  15.577 -0.2302  0.1610  0.4683
 3596TIP3    H132203   2.820   4.064  15.598 -3.2111 -0.2841 -0.1130
 3596TIP3    H232204   2.792   4.159  15.484  0.8065  1.5103  0.2270
 3597TIP3   OH232205   3.525   2.403  14.126 -0.1925  0.7119 -0.1944
 3597TIP3    H132206   3.486   2.472  14.180  0.3610  0.8791 -0.0040
 3597TIP3    H232207   3.479   2.323  14.153  0.0185  0.8096  0.4595
 3598TIP3   OH232208   3.164   4.287  13.315  0.2365 -0.8987 -0.6569
 3598TIP3    H132209   3.144   4.198  13.285 -2.0806 -0.1372 -1.5708
 3598TIP3    H232210   3.107   4.301  13.391 -0.2403  0.1714 -1.1897
 3599TIP3   OH232211   5.802   6.113  11.901 -0.0205 -0.0600 -0.1118
 3599TIP3    H132212   5.851   6.060  11.963 -2.6880 -1.4434  0.9687
 3599TIP3    H232213   5.841   6.092  11.816  1.9307 -0.2027  0.7617
 3600TIP3   OH232214   5.019   0.783  12.685 -0.2096  0.4394 -0.2510
 3600TIP3    H132215   4.939   0.732  12.676 -1.7452  2.7481 -0.4267
 3600TIP3    H232216   5.090   0.719  12.673 -1.9958 -1.6543 -0.1238
 3601TIP3   OH232217   0.422   4.004   2.645  0.2874 -0.4330  0.2194
 3601TIP3    H132218   0.395   4.021   2.735  1.3687 -0.3141  0.5362
 3601TIP3    H232219   0.397   4.083   2.597 -0.8399 -0.7418  0.2825
 3602TIP3   OH232220   0.447   3.038  14.427  0.5961  0.3803  0.4572
 3602TIP3    H132221   0.471   2.964  14.371 -0.6748 -0.2206  0.6797
 3602TIP3    H232222   0.390   3.092  14.373 -1.8647 -0.9635  1.5517
 3603TIP3   OH232223   3.607   0.081   0.986 -0.3974 -0.1384 -0.1887
 3603TIP3    H132224   3.542   0.040   0.929 -1.6654  1.3264  0.1302
 3603TIP3    H232225   3.640   0.010   1.041 -0.9284 -1.1148 -1.0936
 3604TIP3   OH232226   3.055   2.830   0.593  0.2764  0.4708 -0.4988
 3604TIP3    H132227   3.068   2.780   0.513  0.2732  1.6069 -1.2217
 3604TIP3    H232228   3.135   2.815   0.644  0.5979  0.3359 -1.0364
 3605TIP3   OH232229   0.370   6.650   2.844  0.2080  0.0925  0.9953
 3605TIP3    H132230   0.373   6.745   2.831  0.4644 -0.0397  0.0324
 3605TIP3    H232231   0.347   6.639   2.936 -1.3985  1.0928  0.7442
 3606TIP3   OH232232   1.638   0.277   4.604 -0.2399  0.7653  0.3261
 3606TIP3    H132233   1.592   0.244   4.527  0.8991  0.5107 -0.2732
 3606TIP3    H232234   1.672   0.198   4.646 -0.1617  0.9632  0.6359
 3607TIP3   OH232235   0.036   3.877   3.551 -0.1000 -0.2205  0.1399
 3607TIP3    H132236   0.044   3.843   3.640 -0.3559  1.8900  1.0271
 3607TIP3    H232237  -0.059   3.878   3.535 -0.1381  0.6903  0.3915
 3608TIP3   OH232238   3.891   4.501   3.222  0.0908 -0.1644  0.0890
 3608TIP3    H132239   3.922   4.491   3.312  1.0385 -3.4664 -0.4772
 3608TIP3    H232240   3.812   4.555   3.230  0.5724  0.3054  2.7603
 3609TIP3   OH232241   1.323   1.002   5.989 -0.0663  0.1662  0.4396
 3609TIP3    H132242   1.393   1.017   6.053  1.0936 -2.3728 -0.1046
 3609TIP3    H232243   1.244   0.989   6.041  0.5162 -0.1422  1.2631
 3610TIP3   OH232244   4.299   5.930  12.498 -0.3268 -0.3059  0.8186
 3610TIP3    H132245   4.292   6.020  12.529 -1.5428  0.1671 -0.7223
 3610TIP3    H232246   4.392   5.909  12.505 -0.0121  1.1110  1.0895
 3611TIP3   OH232247   5.176   6.446   3.355 -0.8165  0.2875  0.3734
 3611TIP3    H132248   5.245   6.411   3.412  0.0806 -0.2564 -0.9875
 3611TIP3    H232249   5.163   6.535   3.386  2.6280  1.4889 -1.0811
 3612TIP3   OH232250   5.811   3.554   6.307  0.7382  0.6001  0.3985
 3612TIP3    H132251   5.747   3.625   6.313  1.3332  1.2153 -0.2737
 3612TIP3    H232252   5.800   3.520   6.218  0.0527 -0.5568  0.9101
 3613TIP3   OH232253   2.673   3.534  17.043  0.8592 -0.0789 -0.1756
 3613TIP3    H132254   2.748   3.475  17.038  0.6412 -0.4233  0.4837
 3613TIP3    H232255   2.708   3.619  17.016  1.3054 -0.3899 -0.5963
 3614TIP3   OH232256   3.597   2.615   1.717 -0.4043 -0.4102  0.1409
 3614TIP3    H132257   3.563   2.597   1.805  0.0166  1.3705  0.7214
 3614TIP3    H232258   3.520   2.609   1.660 -1.9724  3.6881  1.4290
 3615TIP3   OH232259   0.821   5.825  15.665 -0.0099  0.1263 -0.3639
 3615TIP3    H132260   0.816   5.813  15.570  1.4388  1.0666 -0.5857
 3615TIP3    H232261   0.907   5.790  15.689 -0.5080 -0.4438  0.6829
 3616TIP3   OH232262   6.161   1.209  11.348  0.3078 -0.2729 -0.1257
 3616TIP3    H132263   6.211   1.251  11.278  2.0312 -1.0071  0.6158
 3616TIP3    H232264   6.117   1.281  11.392  2.2167  0.6674  0.3460
 3617TIP3   OH232265   1.649   2.067   3.165 -0.6611 -0.1924 -0.0396
 3617TIP3    H132266   1.670   1.975   3.183  3.1301  0.7196  1.2002
 3617TIP3    H232267   1.659   2.075   3.070 -0.3989 -0.9309 -0.0853
 3618TIP3   OH232268   6.378   6.620   1.528  0.0898  0.0275 -0.0361
 3618TIP3    H132269   6.285   6.620   1.550  0.2852  0.2971  0.8362
 3618TIP3    H232270   6.401   6.713   1.522  0.3787 -0.0344  0.1038
 3619TIP3   OH232271   6.423   6.757  11.306  0.1103  0.2977 -0.4215
 3619TIP3    H132272   6.418   6.834  11.249 -2.2385  0.2487 -0.4041
 3619TIP3    H232273   6.470   6.692  11.254 -0.3398  0.8563 -1.5903
 3620TIP3   OH232274   0.825   4.097  16.787 -0.3976  0.4029 -0.2363
 3620TIP3    H132275   0.752   4.074  16.729  0.3065 -0.5035 -0.8001
 3620TIP3    H232276   0.891   4.134  16.729  1.1263 -2.3546 -0.4220
 3621TIP3   OH232277   1.849   6.394  12.201 -0.3515 -0.5174 -0.0971
 3621TIP3    H132278   1.897   6.443  12.267  1.4323 -0.1200 -1.5986
 3621TIP3    H232279   1.781   6.347  12.250  0.0291  0.8018  1.8029
 3622TIP3   OH232280   0.313   6.524   4.778 -0.5112  0.3175 -0.2709
 3622TIP3    H132281   0.263   6.531   4.696 -0.6674  0.4150 -0.1679
 3622TIP3    H232282   0.373   6.451   4.764 -0.7068  0.1808 -0.3815
 3623TIP3   OH232283   0.601   0.580  10.081 -0.5534 -0.1433  0.2737
 3623TIP3    H132284   0.572   0.499  10.122 -0.7258 -0.5197 -0.5835
 3623TIP3    H232285   0.687   0.560  10.046 -0.8176 -0.1198 -0.4041
 3624TIP3   OH232286   2.534   2.889   0.658  0.0237 -0.5057 -0.0392
 3624TIP3    H132287   2.615   2.838   0.650 -0.5096 -1.3868  0.0919
 3624TIP3    H232288   2.468   2.836   0.613 -0.7996 -0.5046  1.1428
 3625TIP3   OH232289   3.139   4.812   4.500 -0.2291 -0.3487  0.2703
 3625TIP3    H132290   3.197   4.796   4.574 -0.7777 -0.5836  0.6561
 3625TIP3    H232291   3.198   4.830   4.427  0.4705  5.2866  1.8020
 3626TIP3   OH232292   5.165   2.307  15.163 -0.0289  0.0538 -0.1068
 3626TIP3    H132293   5.176   2.267  15.077  1.9051  0.4761 -0.0947
 3626TIP3    H232294   5.208   2.247  15.224  0.5371  0.8166  0.2655
 3627TIP3   OH232295   3.909   1.912   1.200 -0.0137  0.1874  0.2171
 3627TIP3    H132296   3.968   1.844   1.231 -0.8659 -1.2148 -1.1211
 3627TIP3    H232297   3.851   1.868   1.138 -0.2103  2.2435 -1.1733
 3628TIP3   OH232298   3.597   1.444  16.574 -0.1090 -0.2965  0.1719
 3628TIP3    H132299   3.613   1.350  16.582  0.6435 -0.3520 -1.5030
 3628TIP3    H232300   3.557   1.469  16.657  0.2285 -1.9771  0.8788
 3629TIP3   OH232301   6.710   2.681  14.203 -0.2383  0.6557 -0.1144
 3629TIP3    H132302   6.770   2.698  14.130 -0.4224 -1.2450 -0.7634
 3629TIP3    H232303   6.756   2.617  14.257 -0.9243  0.5571  0.3605
 3630TIP3   OH232304   1.743   0.700  15.150 -0.5905  0.0981  0.0010
 3630TIP3    H132305   1.804   0.711  15.077 -0.6578  0.9059  0.0640
 3630TIP3    H232306   1.751   0.781  15.200 -0.9026 -0.2528  0.6241
 3631TIP3   OH232307   5.365   3.390  11.725 -0.0412 -0.4176  0.2853
 3631TIP3    H132308   5.310   3.457  11.686  0.1611 -0.3105  0.1818
 3631TIP3    H232309   5.353   3.313  11.670 -0.0935 -0.3961  0.2671
 3632TIP3   OH232310   6.278   0.762  13.882  0.4103  0.2168 -0.4848
 3632TIP3    H132311   6.264   0.717  13.799 -0.4037  2.0101 -1.3715
 3632TIP3    H232312   6.229   0.844  13.874  1.5707  1.1404  1.1781
 3633TIP3   OH232313   3.283   4.805   4.740  0.6057  0.0176  0.3055
 3633TIP3    H132314   3.287   4.867   4.812  0.0245 -0.3183  0.6280
 3633TIP3    H232315   3.285   4.718   4.781 -0.4058 -0.1795 -0.0239
 3634TIP3   OH232316   1.655   5.117   1.859 -0.2040 -0.3864 -0.2635
 3634TIP3    H132317   1.699   5.032   1.864  2.0721  0.6575 -1.0332
 3634TIP3    H232318   1.576   5.101   1.808 -0.7788 -2.3609  1.1427
 3635TIP3   OH232319   4.343   0.946  11.317  0.2367  0.1143 -0.7177
 3635TIP3    H132320   4.382   0.870  11.274  2.3465 -0.3467  1.7716
 3635TIP3    H232321   4.371   1.020  11.263  1.8477 -0.5269 -0.8123
 3636TIP3   OH232322   3.763   6.475  15.851 -0.6592  0.3949  0.2517
 3636TIP3    H132323   3.765   6.433  15.936 -0.8062  0.5446  0.3299
 3636TIP3    H232324   3.722   6.411  15.793  0.5766 -0.2058  0.0126
 3637TIP3   OH232325   5.715   2.283   0.991  0.3764 -0.2397 -0.7798
 3637TIP3    H132326   5.630   2.250   0.962 -0.9088  2.3396 -0.2742
 3637TIP3    H232327   5.699   2.314   1.080  2.1758 -0.6999 -0.2545
 3638TIP3   OH232328   0.212   1.417  13.398 -0.7305  0.1436  0.6916
 3638TIP3    H132329   0.123   1.446  13.419 -0.1666  0.9646  2.0205
 3638TIP3    H232330   0.269   1.488  13.428  0.5509 -1.4115  2.1151
 3639TIP3   OH232331   1.904   2.246  12.057 -0.0717 -0.0601  0.0969
 3639TIP3    H132332   1.849   2.170  12.076  0.2840 -0.0376  1.2991
 3639TIP3    H232333   1.857   2.319  12.096 -1.3612  0.7137 -2.6331
 3640TIP3   OH232334   6.056   4.527   4.787 -0.3936  0.0228  0.2303
 3640TIP3    H132335   6.021   4.615   4.788 -1.4945 -0.4027  0.4924
 3640TIP3    H232336   6.151   4.539   4.788 -0.5216  1.1952 -0.1001
 3641TIP3   OH232337   4.528   3.883   5.489 -0.0576  0.3575  0.3187
 3641TIP3    H132338   4.475   3.908   5.565  2.1752 -2.0946  2.9383
 3641TIP3    H232339   4.615   3.919   5.508  0.4309  0.1235 -1.3516
 3642TIP3   OH232340   5.832   2.448  12.423 -0.0415  0.3354 -0.8569
 3642TIP3    H132341   5.761   2.473  12.364 -0.3506 -0.2843 -0.7571
 3642TIP3    H232342   5.907   2.432  12.366  0.6868  3.1030 -0.8166
 3643TIP3   OH232343   5.485   2.385  14.697 -0.4512 -0.0017  0.2154
 3643TIP3    H132344   5.497   2.426  14.612  1.6347  1.3494  1.0833
 3643TIP3    H232345   5.573   2.383  14.735 -0.9802 -2.3996  1.5546
 3644TIP3   OH232346   5.197   6.586   0.736  0.2973  0.0287  0.2419
 3644TIP3    H132347   5.116   6.543   0.763 -0.3787  2.4799  2.6330
 3644TIP3    H232348   5.267   6.524   0.758 -0.7483 -1.0193  0.6883
 3645TIP3   OH232349   0.484   5.657   2.106 -0.1267 -0.0493 -0.0119
 3645TIP3    H132350   0.455   5.724   2.043  0.9075  0.5502  0.1188
 3645TIP3    H232351   0.419   5.587   2.098 -0.7778  0.6114 -0.7524
 3646TIP3   OH232352   2.087   1.929  16.904 -0.4461 -0.4538 -0.1340
 3646TIP3    H132353   2.148   1.991  16.863  0.6900 -0.9372  0.7917
 3646TIP3    H232354   2.040   1.982  16.969  0.7052 -0.5740  0.8383
 3647TIP3   OH232355   2.434   1.803  15.020  0.8606 -0.6923 -0.1507
 3647TIP3    H132356   2.375   1.730  15.035  0.2199  0.0112  0.7904
 3647TIP3    H232357   2.429   1.856  15.099  2.2722 -0.2766 -0.3024
 3648TIP3   OH232358   2.171   6.628   0.697  0.0939  0.3275 -0.2401
 3648TIP3    H132359   2.228   6.682   0.752  0.7650  0.1977 -0.7963
 3648TIP3    H232360   2.222   6.612   0.618 -0.6671  0.0903 -0.6931
 3649TIP3   OH232361   4.172   5.854  16.444 -0.2768 -0.5402 -0.1817
 3649TIP3    H132362   4.112   5.805  16.501  0.8717 -0.6231  0.9973
 3649TIP3    H232363   4.257   5.846  16.487  0.2977  0.8608 -1.0147
 3650TIP3   OH232364   0.505   0.756  16.326 -0.2563  0.2265 -0.9842
 3650TIP3    H132365   0.499   0.729  16.234 -3.2133 -0.1457 -0.7630
 3650TIP3    H232366   0.416   0.782  16.349  0.1195 -0.8923  2.1467
 3651TIP3   OH232367   4.228   0.958   5.287  0.1678  0.3358 -0.1086
 3651TIP3    H132368   4.144   0.933   5.249  1.1671 -0.4268 -1.9303
 3651TIP3    H232369   4.218   0.942   5.381 -1.2908 -0.9587 -0.4600
 3652TIP3   OH232370   6.473   1.784  12.973 -0.5616 -0.2059  0.4214
 3652TIP3    H132371   6.462   1.744  12.887  1.7602  0.3623 -0.2130
 3652TIP3    H232372   6.456   1.714  13.035 -1.3312 -0.8772 -0.5230
 3653TIP3   OH232373   5.292   5.850   4.573  0.1097  0.7155 -0.3765
 3653TIP3    H132374   5.257   5.924   4.622  1.3385  0.0943  1.5686
 3653TIP3    H232375   5.377   5.880   4.541 -0.7567  1.1810 -2.4271
 3654TIP3   OH232376   5.623   1.218  16.441 -0.6848 -0.0598  0.1615
 3654TIP3    H132377   5.542   1.175  16.412 -0.0930 -2.3210  1.6887
 3654TIP3    H232378   5.600   1.259  16.524 -0.4257 -0.1076  0.2562
 3655TIP3   OH232379   0.887   0.126  12.680 -0.6583  0.0276 -0.3925
 3655TIP3    H132380   0.912   0.196  12.739  0.2155 -1.6367  1.3203
 3655TIP3    H232381   0.830   0.168  12.615 -1.6231  1.9548  1.5748
 3656TIP3   OH232382   1.229   5.481   3.780  0.1599 -0.3340 -0.2218
 3656TIP3    H132383   1.211   5.449   3.869 -2.9886  0.3261 -0.4898
 3656TIP3    H232384   1.274   5.565   3.794 -0.5449 -0.1018  0.8094
 3657TIP3   OH232385   5.289   5.825  12.570  0.3110 -0.2544 -0.6465
 3657TIP3    H132386   5.355   5.843  12.503  0.0780 -1.3086 -1.1899
 3657TIP3    H232387   5.301   5.732  12.591  0.7464  0.1755  1.2021
 3658TIP3   OH232388   1.403   5.157   4.683 -0.8341 -0.3343 -0.0442
 3658TIP3    H132389   1.373   5.105   4.609  0.7112  1.2175 -1.8549
 3658TIP3    H232390   1.453   5.229   4.644 -0.5767  0.9760  2.4751
 3659TIP3   OH232391   1.935   4.873  15.727 -0.0294  0.3457 -0.1873
 3659TIP3    H132392   1.974   4.883  15.640 -0.9453 -1.3664 -0.8431
 3659TIP3    H232393   1.924   4.963  15.759 -1.0218  1.1165 -2.4726
 3660TIP3   OH232394   4.863   5.521  10.019 -0.8652 -0.4119 -0.0036
 3660TIP3    H132395   4.851   5.616  10.018 -2.3006 -0.5438  1.4050
 3660TIP3    H232396   4.782   5.486   9.982 -0.7764 -1.1175  0.4499
 3661TIP3   OH232397   3.089   3.686   2.189 -0.1726  0.1411  0.9782
 3661TIP3    H132398   3.129   3.601   2.208  0.0681  0.4655  2.0142
 3661TIP3    H232399   3.162   3.748   2.191 -0.7043  0.7784  3.1548
 3662TIP3   OH232400   2.202   1.643   1.040  0.4315 -0.0045 -0.4380
 3662TIP3    H132401   2.183   1.728   1.001  0.3557  0.2888  0.2318
 3662TIP3    H232402   2.208   1.583   0.965 -0.3192  0.4305 -0.8596
 3663TIP3   OH232403   2.368   1.140   4.785 -0.2878  0.5373  0.5655
 3663TIP3    H132404   2.331   1.163   4.700  1.4682 -0.3501 -0.4974
 3663TIP3    H232405   2.321   1.061   4.812 -0.7249  0.7213  0.3559
 3664TIP3   OH232406   1.084   2.253   1.994 -0.7249 -0.3867 -0.0963
 3664TIP3    H132407   1.098   2.193   2.068 -2.9410 -1.7247 -0.6809
 3664TIP3    H232408   1.004   2.223   1.953  0.0159  0.8061 -2.6382
 3665TIP3   OH232409   1.453   5.555   0.273  0.0423 -0.1743  0.3473
 3665TIP3    H132410   1.428   5.591   0.359 -1.1902 -0.6820  0.2171
 3665TIP3    H232411   1.516   5.486   0.294  0.4764  0.3373  0.7686
 3666TIP3   OH232412   0.985   5.053   2.889  0.3037  0.2374  0.0386
 3666TIP3    H132413   0.986   4.968   2.933  0.9032 -0.7985 -1.8625
 3666TIP3    H232414   0.908   5.097   2.925  0.6362 -0.5874  1.9291
 3667TIP3   OH232415   6.477   2.206   1.609  0.3173 -0.9831  0.2754
 3667TIP3    H132416   6.552   2.147   1.612  1.1368  0.0426  0.4399
 3667TIP3    H232417   6.502   2.273   1.546 -0.0557 -0.0917  1.0514
 3668TIP3   OH232418   6.565   5.017  15.186  0.1554  0.4947 -0.2025
 3668TIP3    H132419   6.651   4.976  15.180  0.2197  0.7884 -1.6524
 3668TIP3    H232420   6.584   5.111  15.187 -0.0679  0.5619  1.6035
 3669TIP3   OH232421   2.413   1.586  12.003  0.1235  0.2539  0.4940
 3669TIP3    H132422   2.417   1.516  11.938 -2.0202  1.5531 -1.1938
 3669TIP3    H232423   2.342   1.560  12.061 -0.7213  1.0032 -0.1755
 3670TIP3   OH232424   6.346   3.221  14.382 -0.4650  0.2092 -0.0205
 3670TIP3    H132425   6.259   3.254  14.406  0.1218  1.0380  1.0339
 3670TIP3    H232426   6.401   3.240  14.458  0.3251 -1.6177 -0.0752
 3671TIP3   OH232427   2.806   5.715   2.516 -0.9678 -0.1097  0.3642
 3671TIP3    H132428   2.851   5.642   2.558 -0.6942 -0.1645 -0.0175
 3671TIP3    H232429   2.824   5.704   2.423 -0.3245  0.8511  0.3604
 3672TIP3   OH232430   5.699   1.458   0.276 -0.1957  0.4973  0.0961
 3672TIP3    H132431   5.675   1.441   0.367  1.1287 -2.2582  0.0247
 3672TIP3    H232432   5.788   1.493   0.281 -0.7898  2.1360 -0.1070
 3673TIP3   OH232433   5.563   5.536   0.621  0.2636 -0.5670  0.5871
 3673TIP3    H132434   5.478   5.581   0.622 -0.1846 -1.3835  0.2291
 3673TIP3    H232435   5.627   5.607   0.622 -0.4253  0.1132 -0.5393
 3674TIP3   OH232436   1.905   6.540  12.889  0.2457 -0.3987 -0.0742
 3674TIP3    H132437   1.855   6.586  12.821  0.0043 -1.7310 -0.8345
 3674TIP3    H232438   1.910   6.603  12.962  0.0739  0.8699 -1.1183
 3675TIP3   OH232439   4.678   3.134   4.957  0.1082 -0.4071 -0.4360
 3675TIP3    H132440   4.651   3.126   5.048  0.7577  0.9059 -0.0947
 3675TIP3    H232441   4.760   3.184   4.961  0.9033 -1.5429 -1.6408
 3676TIP3   OH232442   5.186   1.524   5.246  0.3669 -0.3299  0.0584
 3676TIP3    H132443   5.204   1.503   5.338 -0.1645  1.1224  0.5224
 3676TIP3    H232444   5.110   1.471   5.224  0.3485 -0.5055  0.5266
 3677TIP3   OH232445   3.400   3.117  11.861  0.1521 -0.4539 -1.0587
 3677TIP3    H132446   3.329   3.076  11.912  1.3145  0.6213  1.6419
 3677TIP3    H232447   3.420   3.198  11.909  1.5862  0.5145 -3.1300
 3678TIP3   OH232448   4.578   0.181   3.914 -0.3605  0.4743 -0.2740
 3678TIP3    H132449   4.648   0.188   3.980 -1.1621  0.9238  0.5486
 3678TIP3    H232450   4.501   0.218   3.957 -0.9547  0.5802 -1.4029
 3679TIP3   OH232451   5.902   2.930  13.417 -0.3412  0.6600  0.6630
 3679TIP3    H132452   5.927   2.840  13.397  0.4277  0.3574  2.7290
 3679TIP3    H232453   5.963   2.984  13.367 -1.4710  0.1080 -1.4086
 3680TIP3   OH232454   2.536   5.993   5.678  0.1083 -0.2315 -0.3439
 3680TIP3    H132455   2.487   5.974   5.758  1.2461 -0.3535  0.3482
 3680TIP3    H232456   2.606   6.052   5.706  1.0537 -0.9734 -1.0801
 3681TIP3   OH232457   5.149   2.420   2.756 -0.9475 -0.6206  0.3574
 3681TIP3    H132458   5.142   2.490   2.690 -0.4825  0.1397  1.0981
 3681TIP3    H232459   5.210   2.357   2.717  2.1796  1.5028  1.4207
 3682TIP3   OH232460   3.711   6.397   5.514 -0.1937 -0.3257  0.1729
 3682TIP3    H132461   3.653   6.452   5.567 -0.1777 -1.2080  1.1347
 3682TIP3    H232462   3.793   6.393   5.563  0.5713  0.6189 -1.0076
 3683TIP3   OH232463   6.319   0.470   4.734 -0.7713 -0.5469  0.2603
 3683TIP3    H132464   6.411   0.466   4.707 -1.3206 -1.8077 -1.6134
 3683TIP3    H232465   6.322   0.473   4.830  1.2186  0.0310  0.2213
 3684TIP3   OH232466   5.559   3.282  11.202  0.2130 -0.2999 -0.0176
 3684TIP3    H132467   5.490   3.311  11.142 -2.5471 -2.4966  1.7866
 3684TIP3    H232468   5.577   3.192  11.177 -1.0437 -1.2939  2.3123
 3685TIP3   OH232469   0.090   2.236  14.080 -0.1226 -0.0269  0.0411
 3685TIP3    H132470   0.077   2.165  14.017 -1.4246  1.2448 -1.2163
 3685TIP3    H232471   0.171   2.279  14.052  1.1676 -1.4780  1.3454
 3686TIP3   OH232472   2.431   5.754  16.824 -0.2311  0.7667 -0.1435
 3686TIP3    H132473   2.457   5.779  16.736  0.4614  0.0406 -0.1587
 3686TIP3    H232474   2.426   5.836  16.872  2.0193  0.9932 -0.1827
 3687TIP3   OH232475   6.702   2.230   2.586  0.6187  0.2112  0.1389
 3687TIP3    H132476   6.794   2.255   2.578  0.4889  0.7029  0.1437
 3687TIP3    H232477   6.680   2.194   2.500  0.6056  0.8142 -0.1155
 3688TIP3   OH232478   3.987   2.119   0.762 -0.1389  0.1438 -0.1934
 3688TIP3    H132479   4.072   2.148   0.795  0.1124 -0.0324 -0.6737
 3688TIP3    H232480   3.926   2.135   0.834  0.4415 -0.4727  0.4356
 3689TIP3   OH232481   1.649   6.126  11.982  0.1426  0.0964  0.0711
 3689TIP3    H132482   1.731   6.162  11.949  0.4158 -0.7200 -0.1401
 3689TIP3    H232483   1.627   6.181  12.058  0.8294  0.3741  0.0681
 3690TIP3   OH232484   3.201   3.390  10.704 -0.1139  0.4794  0.3652
 3690TIP3    H132485   3.234   3.339  10.630  1.2419  1.5979  0.1531
 3690TIP3    H232486   3.116   3.422  10.675 -0.5317 -0.7933  0.1158
 3691TIP3   OH232487   3.908   1.090   0.880 -0.5960 -0.0074  0.6276
 3691TIP3    H132488   3.917   1.023   0.948  0.9652  0.5599  1.0094
 3691TIP3    H232489   3.964   1.060   0.809 -0.8802  0.2813  0.2783
 3692TIP3   OH232490   3.051   6.280   2.715 -0.0214  0.2690  0.3709
 3692TIP3    H132491   2.983   6.247   2.775  0.4911 -0.9261  0.3232
 3692TIP3    H232492   3.110   6.329   2.771 -1.4856  2.2755  0.2436
 3693TIP3   OH232493   2.945   5.597  14.343  0.2973  0.0997  0.1604
 3693TIP3    H132494   3.028   5.563  14.376  1.6440  2.0624 -1.0446
 3693TIP3    H232495   2.940   5.566  14.253 -0.7647 -0.7761  0.4967
 3694TIP3   OH232496   3.389   1.720   0.908 -0.4750  0.4185  0.2935
 3694TIP3    H132497   3.344   1.800   0.879  0.4215  0.6756 -0.4271
 3694TIP3    H232498   3.374   1.657   0.838 -0.4644  0.2235  0.4652
 3695TIP3   OH232499   0.790   0.724   3.483  0.1040  0.0084 -0.2325
 3695TIP3    H132500   0.854   0.671   3.435  0.0370 -1.4011  1.1288
 3695TIP3    H232501   0.729   0.755   3.416  0.5170 -1.1359 -1.1730
 3696TIP3   OH232502   6.430   3.225  16.363  0.2371  0.0703 -0.3849
 3696TIP3    H132503   6.456   3.317  16.363  0.5168 -0.0084 -0.7354
 3696TIP3    H232504   6.439   3.197  16.272  1.6596 -0.7188 -0.0292
 3697TIP3   OH232505   2.102   0.628  17.141 -0.2316  0.2510 -0.1464
 3697TIP3    H132506   2.126   0.642  17.049  1.3692  0.3419  0.2495
 3697TIP3    H232507   2.025   0.682  17.154  0.9227  2.1627 -0.8364
 3698TIP3   OH232508   5.513   6.099  15.038 -0.1935 -0.5317 -0.0527
 3698TIP3    H132509   5.561   6.122  14.959  0.3425  0.2124  0.4731
 3698TIP3    H232510   5.511   6.179  15.090  0.3086 -1.2477  1.1159
 3699TIP3   OH232511   6.670   0.142   1.778  0.7739  0.1610 -0.0725
 3699TIP3    H132512   6.761   0.132   1.806  1.4427 -2.4649 -2.6862
 3699TIP3    H232513   6.675   0.177   1.690 -0.6099 -1.6666 -0.9397
 3700TIP3   OH232514   1.138   6.406   4.679  0.6380 -0.3177  0.1258
 3700TIP3    H132515   1.131   6.430   4.586  2.5746 -0.9806 -0.2367
 3700TIP3    H232516   1.112   6.486   4.726  0.0729  0.1747 -0.9865
 3701TIP3   OH232517   6.278   1.701   4.166  0.1465  0.2504  0.2405
 3701TIP3    H132518   6.291   1.730   4.256 -3.5651  1.7995  0.4474
 3701TIP3    H232519   6.190   1.665   4.165 -0.0442  0.5355 -2.8510
 3702TIP3   OH232520   3.330   0.005  16.530  0.4991  0.1804  0.4795
 3702TIP3    H132521   3.314  -0.036  16.615  0.9704 -1.4089 -0.1628
 3702TIP3    H232522   3.248   0.050  16.510 -0.6500 -1.7631  0.5331
 3703TIP3   OH232523   4.273   4.568  17.147 -0.3117  0.5497 -0.2558
 3703TIP3    H132524   4.239   4.483  17.118  1.3674 -0.9262  1.7538
 3703TIP3    H232525   4.247   4.574  17.239  0.4448  1.7434 -0.1009
 3704TIP3   OH232526   4.189   4.294   4.445 -0.0773  0.2189 -0.2494
 3704TIP3    H132527   4.256   4.362   4.458  1.4107 -1.2231 -0.0494
 3704TIP3    H232528   4.110   4.343   4.420  0.6105  2.0985  0.9995
 3705TIP3   OH232529   3.697   2.632  11.495 -0.1248 -0.0990  0.0714
 3705TIP3    H132530   3.779   2.583  11.501 -0.0153  0.1741  0.8876
 3705TIP3    H232531   3.723   2.723  11.512 -1.0621 -0.4084  4.1207
 3706TIP3   OH232532   1.636   1.214  13.514  0.2907  0.3400 -0.0068
 3706TIP3    H132533   1.589   1.231  13.432  1.3197  1.7775 -0.3396
 3706TIP3    H232534   1.567   1.208  13.581 -0.4010  2.7063 -0.4202
 3707TIP3   OH232535   4.608   0.667   4.736 -0.1572 -0.1583  0.0528
 3707TIP3    H132536   4.554   0.746   4.748 -0.3083 -0.4779  1.7791
 3707TIP3    H232537   4.565   0.618   4.667 -1.5079  0.0999  0.6842
 3708TIP3   OH232538   4.132   3.799  11.661 -0.5562 -0.2477  0.0473
 3708TIP3    H132539   4.114   3.757  11.577 -0.4074 -3.0542  1.2813
 3708TIP3    H232540   4.079   3.750  11.724 -1.3468  2.3318  1.5287
 3709TIP3   OH232541   2.844   6.700  13.189  0.0281  0.1408 -0.0832
 3709TIP3    H132542   2.796   6.721  13.269  0.7455  0.3168  0.3065
 3709TIP3    H232543   2.825   6.607  13.174  0.7464 -0.1717  0.8928
 3710TIP3   OH232544   1.000   3.281   1.395 -0.2508 -0.5868  0.2252
 3710TIP3    H132545   0.993   3.229   1.315 -0.2541 -0.4856  0.1593
 3710TIP3    H232546   0.909   3.300   1.419 -0.3276 -1.9962  1.1621
 3711TIP3   OH232547   5.244   4.045  13.890 -0.2043  0.0027 -0.0658
 3711TIP3    H132548   5.264   3.952  13.887 -1.1817 -0.1904 -1.1102
 3711TIP3    H232549   5.190   4.061  13.813 -1.8598  1.0158  1.2304
 3712TIP3   OH232550   3.932   4.381  14.493  0.2774  0.1759 -0.0669
 3712TIP3    H132551   3.999   4.444  14.522 -1.5725  0.8358  3.3178
 3712TIP3    H232552   3.867   4.434  14.448 -0.1889  0.3467  0.7893
 3713TIP3   OH232553   0.835   2.220  10.980  0.2903 -0.7418  0.4819
 3713TIP3    H132554   0.783   2.251  10.905  0.3204 -1.8538 -0.0189
 3713TIP3    H232555   0.781   2.241  11.056  0.4221  0.7374  0.1910
 3714TIP3   OH232556   0.728   5.080  14.608 -0.0556  0.1212  0.4704
 3714TIP3    H132557   0.812   5.036  14.599 -1.0752 -1.6775 -0.8795
 3714TIP3    H232558   0.685   5.068  14.523 -1.1035  2.3088  0.6052
 3715TIP3   OH232559   0.078   5.441  17.005  0.1929  0.9184 -0.0138
 3715TIP3    H132560   0.134   5.467  17.078 -0.4940  1.7083  0.2537
 3715TIP3    H232561   0.101   5.501  16.934  0.4147  0.5604 -0.2520
 3716TIP3   OH232562   1.212   0.038   0.591  0.0422 -0.2440 -0.0113
 3716TIP3    H132563   1.159  -0.033   0.554  2.5401 -3.5632  2.1865
 3716TIP3    H232564   1.199   0.031   0.686  3.7634 -0.8990  0.6147
 3717TIP3   OH232565   3.958   4.591   5.042 -0.3564  0.2099  0.2274
 3717TIP3    H132566   3.880   4.644   5.024 -1.3692 -0.9128  1.1679
 3717TIP3    H232567   4.015   4.649   5.091 -0.8336  0.8738  0.0222
 3718TIP3   OH232568   1.463   0.695  11.623  0.3693 -0.2334  0.2172
 3718TIP3    H132569   1.488   0.632  11.690  1.8102  0.4078  0.3237
 3718TIP3    H232570   1.521   0.677  11.550  0.2904  0.4851 -0.0342
 3719TIP3   OH232571   3.415   3.893   2.649  0.0260  0.0518 -0.5454
 3719TIP3    H132572   3.406   3.835   2.724 -0.1655  1.3651  0.4882
 3719TIP3    H232573   3.487   3.951   2.672 -0.6079  1.0446 -0.9717
 3720TIP3   OH232574   6.284   0.241  15.496 -0.1143  0.3991 -0.4762
 3720TIP3    H132575   6.196   0.205  15.507 -1.1199  2.9069  0.3127
 3720TIP3    H232576   6.287   0.267  15.404  0.5909 -1.4866 -1.0306
 3721TIP3   OH232577   0.948   0.523  11.316 -0.4824 -0.8860  0.4565
 3721TIP3    H132578   0.994   0.499  11.236  0.3184 -0.3843  0.7510
 3721TIP3    H232579   0.995   0.475  11.385 -0.5424 -0.5556  0.7307
 3722TIP3   OH232580   4.421   3.463   5.256 -0.5160 -0.0340  0.0610
 3722TIP3    H132581   4.505   3.442   5.216 -0.6939  0.5180 -0.6168
 3722TIP3    H232582   4.409   3.396   5.323  0.3421 -0.2687 -0.0089
 3723TIP3   OH232583   2.594   4.914  15.085 -0.1658  0.0954 -0.3313
 3723TIP3    H132584   2.675   4.911  15.136  0.6644  0.5049 -1.5997
 3723TIP3    H232585   2.550   4.994  15.115 -0.6885 -0.7204  1.1834
 3724TIP3   OH232586   1.173   1.014   4.365 -0.0705  0.2665  0.2472
 3724TIP3    H132587   1.104   1.048   4.308  0.6938  0.6397 -0.4753
 3724TIP3    H232588   1.135   0.935   4.404 -0.7235  0.1804 -0.5297
 3725TIP3   OH232589   5.100   1.940   2.451  0.0188 -0.6089  0.4648
 3725TIP3    H132590   5.073   2.007   2.388  0.8429 -1.3939 -0.7616
 3725TIP3    H232591   5.023   1.927   2.505 -1.5464 -1.5203 -1.8169
 3726TIP3   OH232592   2.041   4.151   2.956 -0.3706 -0.7161 -0.1009
 3726TIP3    H132593   2.026   4.113   3.042  2.6216 -0.2943  0.7186
 3726TIP3    H232594   2.044   4.246   2.972  1.9882 -0.7096 -0.2517
 3727TIP3   OH232595   2.351   5.756  10.490 -0.1007  0.4481  0.0760
 3727TIP3    H132596   2.297   5.785  10.417  2.1612  1.4655 -1.3041
 3727TIP3    H232597   2.332   5.663  10.499 -1.0896  0.5029 -1.1980
 3728TIP3   OH232598   6.167   2.119   1.331 -0.0419  0.4503  0.2969
 3728TIP3    H132599   6.236   2.161   1.280  0.3485  0.0674  0.5064
 3728TIP3    H232600   6.087   2.138   1.282  0.3620 -0.1813 -0.6487
 3729TIP3   OH232601   2.194   1.359  16.322 -0.2618  0.1694 -0.2223
 3729TIP3    H132602   2.276   1.382  16.365 -0.8310  0.2267  0.8559
 3729TIP3    H232603   2.188   1.264  16.332  0.0170  0.0650 -0.9505
 3730TIP3   OH232604   0.830   5.214   1.693  0.2491 -0.2985 -0.0741
 3730TIP3    H132605   0.888   5.149   1.734  0.4762 -0.3728 -0.5077
 3730TIP3    H232606   0.874   5.237   1.612 -0.0009  0.1498 -0.0842
 3731TIP3   OH232607   2.314   3.174  11.855  0.0361 -0.0593 -0.3240
 3731TIP3    H132608   2.401   3.170  11.815 -0.1545  1.8145 -1.0371
 3731TIP3    H232609   2.298   3.268  11.868 -2.0624 -0.3266 -0.6147
 3732TIP3   OH232610   0.072   5.334   2.647  0.0463 -0.6472  1.0035
 3732TIP3    H132611   0.111   5.405   2.698 -1.2379 -0.1952  1.3783
 3732TIP3    H232612   0.013   5.290   2.707 -1.1857 -0.3684  0.0351
 3733TIP3   OH232613   5.842   0.958  16.585  0.8078  0.5900 -0.1814
 3733TIP3    H132614   5.850   0.934  16.493  1.8755 -0.4203  0.1540
 3733TIP3    H232615   5.752   0.935  16.608  0.4879  0.9839 -0.9989
 3734TIP3   OH232616   5.342   3.641  10.891  0.3576 -0.5491 -0.2826
 3734TIP3    H132617   5.430   3.652  10.854 -0.5151 -0.1423 -2.4120
 3734TIP3    H232618   5.340   3.552  10.925  1.4545 -0.6941 -0.5726
 3735TIP3   OH232619   1.464   5.746   1.150 -0.0200 -0.1630 -0.2939
 3735TIP3    H132620   1.426   5.833   1.167  0.0091  0.0564 -1.3072
 3735TIP3    H232621   1.558   5.758   1.162 -0.0377 -0.1104 -0.2070
 3736TIP3   OH232622   5.807   2.591   0.384 -0.2244 -0.0765  0.3264
 3736TIP3    H132623   5.745   2.536   0.335 -0.6345  0.2070  0.5208
 3736TIP3    H232624   5.875   2.612   0.321 -0.4554 -0.1864  0.0350
 3737TIP3   OH232625   4.285   0.859  14.395 -0.2490  0.0962  0.1675
 3737TIP3    H132626   4.349   0.790  14.414 -0.5861 -0.0551  0.7692
 3737TIP3    H232627   4.323   0.907  14.320  1.0997  0.6897  1.1889
 3738TIP3   OH232628   1.214   6.520  15.521 -0.5200 -0.5289 -0.0000
 3738TIP3    H132629   1.223   6.499  15.428  1.2021  1.0537 -0.2537
 3738TIP3    H232630   1.172   6.443  15.559 -0.7362 -1.4537 -1.9750
 3739TIP3   OH232631   4.148   0.514   0.514 -0.5508  0.3551 -0.0059
 3739TIP3    H132632   4.106   0.572   0.578  0.1107 -0.1856  0.9447
 3739TIP3    H232633   4.080   0.497   0.449 -1.4882  0.3215  0.9535
 3740TIP3   OH232634   0.825   0.942   0.902  0.0557  0.1709  0.1291
 3740TIP3    H132635   0.905   0.939   0.850 -0.2047 -0.1033 -0.2552
 3740TIP3    H232636   0.856   0.965   0.990  0.7389 -1.4096  0.3382
 3741TIP3   OH232637   2.456   2.180  13.154 -0.0440  0.2035  0.1063
 3741TIP3    H132638   2.472   2.259  13.101  0.7963  0.7593  1.1555
 3741TIP3    H232639   2.398   2.127  13.099 -2.1381  2.3242  0.0780
 3742TIP3   OH232640   6.505   2.507   3.055 -0.2213 -0.1621 -0.4961
 3742TIP3    H132641   6.483   2.443   2.988  1.4779 -0.2675 -1.0028
 3742TIP3    H232642   6.551   2.457   3.122  0.1899  0.3351 -0.3996
 3743TIP3   OH232643   3.199   1.220  16.422  0.2263  0.1167 -0.5443
 3743TIP3    H132644   3.159   1.165  16.489  1.4383 -1.6739 -1.2164
 3743TIP3    H232645   3.143   1.208  16.345  0.0421  0.4950 -0.4761
 3744TIP3   OH232646   5.243   6.479   0.128  0.0382 -0.6322 -0.6381
 3744TIP3    H132647   5.304   6.446   0.193 -1.0993  1.0608  1.4236
 3744TIP3    H232648   5.175   6.412   0.122  0.3093 -0.9416 -0.3150
 3745TIP3   OH232649   2.063   1.408  11.006 -0.4167 -0.8031  0.3533
 3745TIP3    H132650   2.116   1.379  10.931 -2.7663 -0.9896 -1.3682
 3745TIP3    H232651   2.011   1.332  11.029 -1.7868  0.0749  0.2648
 3746TIP3   OH232652   2.638   4.350   1.091  0.1959  0.9502 -0.0896
 3746TIP3    H132653   2.547   4.380   1.094 -0.3755 -0.6331 -0.8419
 3746TIP3    H232654   2.671   4.383   1.007 -0.6756 -1.0542 -1.2962
 3747TIP3   OH232655   3.863   4.065  11.537  0.1060  0.2218 -0.0102
 3747TIP3    H132656   3.856   3.975  11.570 -1.1576 -0.0190 -0.8892
 3747TIP3    H232657   3.847   4.120  11.613 -1.1052 -0.3168  0.1342
 3748TIP3   OH232658   3.374   6.204   2.793  0.0272  0.4415 -0.6337
 3748TIP3    H132659   3.466   6.180   2.779 -0.0342  0.6210 -1.4177
 3748TIP3    H232660   3.369   6.229   2.885  0.7534  0.3731 -0.5699
 3749TIP3   OH232661   4.962   2.025  15.409 -0.0754 -0.5879  0.7347
 3749TIP3    H132662   4.945   1.942  15.366 -0.4295  0.1160 -0.5404
 3749TIP3    H232663   5.051   2.049  15.381  0.4473 -1.0305  1.9538
 3750TIP3   OH232664   0.219   6.663   2.306 -0.4512 -0.0406  0.1093
 3750TIP3    H132665   0.147   6.627   2.254 -0.6826 -1.6907  1.4803
 3750TIP3    H232666   0.296   6.654   2.249 -1.2405  1.6577 -1.3306
 3751TIP3   OH232667   1.169   1.351   5.461  0.1733 -0.0407  0.0660
 3751TIP3    H132668   1.100   1.298   5.500 -3.7490  1.3292 -4.1930
 3751TIP3    H232669   1.215   1.291   5.402 -0.0037 -0.1235  0.0108
 3752TIP3   OH232670   1.082   6.756  15.938 -0.0330 -0.6240  0.0094
 3752TIP3    H132671   1.112   6.847  15.949  0.4074 -0.6410 -0.9314
 3752TIP3    H232672   1.080   6.743  15.843 -0.3203 -1.5289  0.1328
 3753TIP3   OH232673   5.743   4.784  11.785  0.2998  0.2583  0.3741
 3753TIP3    H132674   5.797   4.860  11.806  1.5620 -0.5245  0.0384
 3753TIP3    H232675   5.801   4.709  11.798 -0.0652 -0.5052 -1.9677
 3754TIP3   OH232676   4.944   1.627   2.623 -0.3655 -0.0728  0.3511
 3754TIP3    H132677   4.890   1.607   2.699  0.9151  2.0202  1.9318
 3754TIP3    H232678   4.973   1.717   2.638  0.6044  0.1234 -2.2374
 3755TIP3   OH232679   0.528   4.455   2.498  0.4535 -0.1680  0.7450
 3755TIP3    H132680   0.603   4.470   2.555  1.1965 -0.2486 -0.1852
 3755TIP3    H232681   0.494   4.543   2.478  1.2729 -0.0257 -0.0839
 3756TIP3   OH232682   2.365   2.253  14.320  0.0460 -0.2543  0.0316
 3756TIP3    H132683   2.454   2.227  14.342  0.4544 -0.2460 -1.5301
 3756TIP3    H232684   2.349   2.332  14.373  0.2431 -1.2977  1.7451
 3757TIP3   OH232685   5.036   2.350  11.474  0.1406  0.0576 -0.0984
 3757TIP3    H132686   5.108   2.391  11.426  0.0920  0.4574  0.1642
 3757TIP3    H232687   4.976   2.319  11.406  1.9695 -3.0575 -0.5217
 3758TIP3   OH232688   3.059   6.698   4.339 -0.0985  0.6033 -0.1669
 3758TIP3    H132689   3.088   6.760   4.405  0.2659 -0.6865  0.9388
 3758TIP3    H232690   3.133   6.688   4.280 -0.3126  1.5217 -0.6052
 3759TIP3   OH232691   5.243   4.452   5.504  0.2779  0.1338  0.7237
 3759TIP3    H132692   5.158   4.409   5.511 -0.5938  1.0238 -2.6488
 3759TIP3    H232693   5.230   4.520   5.438  4.1200 -1.1351 -1.6817
 3760TIP3   OH232694   4.578   1.683  15.394  0.1111  0.1238 -0.4855
 3760TIP3    H132695   4.599   1.616  15.330  0.5176  0.4675 -0.7176
 3760TIP3    H232696   4.483   1.693  15.388 -0.0576 -0.9554  0.0833
 3761TIP3   OH232697   2.992   0.738   0.654  0.0650  0.0692 -0.8166
 3761TIP3    H132698   3.029   0.651   0.670 -1.5251 -0.2269  1.7628
 3761TIP3    H232699   2.945   0.729   0.571  0.7989 -1.2148 -1.1178
 3762TIP3   OH232700   0.831   6.172  11.810 -0.0704  0.4396 -0.1699
 3762TIP3    H132701   0.824   6.145  11.719 -1.9397  0.8734 -0.1995
 3762TIP3    H232702   0.908   6.125  11.843 -1.6339 -2.9857 -0.9091
 3763TIP3   OH232703   1.244   4.036   4.210 -0.3790 -0.9052 -0.2849
 3763TIP3    H132704   1.255   4.039   4.306  1.7585 -1.5519 -0.4540
 3763TIP3    H232705   1.279   4.120   4.180 -0.7543 -0.8383 -0.5380
 3764TIP3   OH232706   3.276   4.733  11.616 -0.0586 -0.0820  0.2538
 3764TIP3    H132707   3.202   4.792  11.631 -1.0755 -1.3490  0.4595
 3764TIP3    H232708   3.247   4.649  11.653  0.2742 -1.4030 -2.2729
 3765TIP3   OH232709   0.507   3.867  13.379  0.1969  0.0902  0.1231
 3765TIP3    H132710   0.432   3.922  13.354  0.5369  0.3606 -0.3168
 3765TIP3    H232711   0.572   3.928  13.413 -0.7789 -0.3814  3.1200
 3766TIP3   OH232712   4.423   4.209   0.275  0.0720  0.6260 -1.1099
 3766TIP3    H132713   4.462   4.270   0.212 -1.3019  1.9924 -0.6840
 3766TIP3    H232714   4.498   4.157   0.306  1.1191  1.3906 -2.2351
 3767TIP3   OH232715   3.459   1.100  11.757 -0.3674  0.4353 -0.5329
 3767TIP3    H132716   3.402   1.169  11.790 -1.4492 -1.2164  1.2273
 3767TIP3    H232717   3.459   1.033  11.825  2.2493 -0.4698 -1.2727
 3768TIP3   OH232718   3.451   2.846  16.341  0.0528  0.0960 -0.2633
 3768TIP3    H132719   3.392   2.850  16.415  0.8158  0.6552  0.3267
 3768TIP3    H232720   3.528   2.798  16.373 -0.4459 -1.4945 -1.3012
 3769TIP3   OH232721   1.977   0.613  13.179 -0.3369  0.0476  0.2947
 3769TIP3    H132722   2.000   0.704  13.158  1.5407 -0.5480 -0.3981
 3769TIP3    H232723   2.057   0.564  13.162 -2.2005 -2.3000 -2.8367
 3770TIP3   OH232724   5.215   0.502  15.814  0.0698 -0.7094 -0.6434
 3770TIP3    H132725   5.294   0.521  15.763 -0.7892 -1.0449 -2.1477
 3770TIP3    H232726   5.151   0.566  15.784 -0.1598 -0.2103  0.8235
 3771TIP3   OH232727   1.256   5.499   3.281 -0.0958  0.0519 -0.5054
 3771TIP3    H132728   1.187   5.434   3.271 -0.5776  0.8291 -2.7169
 3771TIP3    H232729   1.235   5.566   3.216  0.9006  1.9715  1.0685
 3772TIP3   OH232730   2.953   3.218   2.107  0.3112 -0.3204 -0.1374
 3772TIP3    H132731   2.967   3.125   2.129  1.6886  0.0675  0.7319
 3772TIP3    H232732   3.027   3.263   2.147 -1.7345  1.5057  1.7996
 3773TIP3   OH232733   6.193   5.554  16.716 -0.3650 -0.2506 -0.2583
 3773TIP3    H132734   6.158   5.480  16.665  0.1736  0.0093 -1.0134
 3773TIP3    H232735   6.154   5.631  16.676 -3.5262 -0.1756  2.4881
 3774TIP3   OH232736   3.743   0.640  11.156  0.1708  0.4688 -0.5278
 3774TIP3    H132737   3.756   0.645  11.251  0.2640 -0.7980 -0.4541
 3774TIP3    H232738   3.789   0.716  11.121  2.8599 -0.7095  0.1928
 3775TIP3   OH232739   3.327   4.065   4.321 -0.7222  0.5551  0.0059
 3775TIP3    H132740   3.393   4.003   4.292 -0.5780  0.6921  0.0437
 3775TIP3    H232741   3.297   4.031   4.406 -1.2837  0.0462 -0.3839
 3776TIP3   OH232742   4.776   4.989   4.813 -0.0619 -0.4979  0.4458
 3776TIP3    H132743   4.757   4.993   4.720  0.0657 -1.4469  0.3636
 3776TIP3    H232744   4.762   5.078   4.845  1.2402  0.1667 -0.7281
 3777TIP3   OH232745   0.262   3.908   4.629  0.0563  0.4852  0.6658
 3777TIP3    H132746   0.345   3.935   4.592 -0.0230 -1.1634 -0.8114
 3777TIP3    H232747   0.283   3.881   4.719  0.9475  0.8880  0.5811
 3778TIP3   OH232748   4.643   5.400  10.636 -0.1166  0.1352  0.0249
 3778TIP3    H132749   4.655   5.306  10.650  0.8806  0.4558  1.4949
 3778TIP3    H232750   4.731   5.437  10.638 -0.3139  0.9015 -2.4214
 3779TIP3   OH232751   6.738   4.243  14.779 -0.4436 -0.2697 -0.0968
 3779TIP3    H132752   6.740   4.181  14.706  2.1515  1.3961 -1.6457
 3779TIP3    H232753   6.670   4.306  14.755  0.6236  0.4555 -1.3215
 3780TIP3   OH232754   1.344   0.738  16.410 -0.0076 -0.2779 -0.3074
 3780TIP3    H132755   1.389   0.682  16.347  0.0869  1.6490 -2.0719
 3780TIP3    H232756   1.410   0.803  16.436 -0.4291 -0.2672  0.8171
 3781TIP3   OH232757   2.299   4.096   3.296 -0.2830 -0.2170  0.4296
 3781TIP3    H132758   2.221   4.051   3.328 -0.4600  0.9648  1.7842
 3781TIP3    H232759   2.372   4.038   3.316 -0.6180 -0.4156  1.0856
 3782TIP3   OH232760   6.089   4.559   2.112  0.0065 -0.1600  0.4243
 3782TIP3    H132761   6.035   4.568   2.034 -0.0542  0.2033  0.5058
 3782TIP3    H232762   6.086   4.645   2.153  3.5279  1.0788 -1.4425
 3783TIP3   OH232763   2.177   0.259   0.836  0.5212 -0.3253  0.2344
 3783TIP3    H132764   2.121   0.184   0.856 -0.3930  0.6522  1.5725
 3783TIP3    H232765   2.153   0.325   0.902  0.9509  1.3161 -1.1663
 3784TIP3   OH232766   0.483   5.005  15.207 -0.0568 -0.0510  0.3196
 3784TIP3    H132767   0.444   5.048  15.130 -1.0006 -0.9316  0.2884
 3784TIP3    H232768   0.460   4.913  15.197 -0.3936 -0.1529  1.7734
 3785TIP3   OH232769   4.578   4.661   4.476 -0.3425 -0.1141 -0.1123
 3785TIP3    H132770   4.517   4.678   4.404  0.8967 -0.1573 -1.2231
 3785TIP3    H232771   4.579   4.743   4.526 -2.2106 -0.5214  0.6726
 3786TIP3   OH232772   4.504   5.637  16.194 -0.3213 -0.4215  0.3374
 3786TIP3    H132773   4.589   5.601  16.218  0.5703  0.1249 -1.7996
 3786TIP3    H232774   4.524   5.711  16.136 -2.2407 -0.4550 -0.4518
 3787TIP3   OH232775   4.462   2.519   5.601 -0.6511  0.1041 -0.2025
 3787TIP3    H132776   4.521   2.489   5.671 -1.7575 -0.1905  0.6219
 3787TIP3    H232777   4.516   2.579   5.550  0.6388 -0.8016  0.0142
 3788TIP3   OH232778   1.876   1.433  10.603  0.4565  0.3318 -0.1582
 3788TIP3    H132779   1.962   1.397  10.583  0.4965  1.4454 -2.2338
 3788TIP3    H232780   1.815   1.362  10.579  0.7634 -0.7346  2.0088
 3789TIP3   OH232781   6.540   1.404   3.389  0.1873  0.6225 -0.2283
 3789TIP3    H132782   6.540   1.337   3.457 -1.2314  2.0648  1.3023
 3789TIP3    H232783   6.503   1.360   3.312  0.3386 -0.6350  0.3955
 3790TIP3   OH232784   3.488   5.195   5.715  0.4272 -0.7703 -0.3028
 3790TIP3    H132785   3.423   5.130   5.691  0.9550 -0.5727 -2.4942
 3790TIP3    H232786   3.571   5.147   5.717  0.6261 -0.4452 -0.5739
 3791TIP3   OH232787   0.824   1.018  11.586  0.1114 -0.1018  0.3866
 3791TIP3    H132788   0.750   1.061  11.628 -1.2319 -0.7243 -1.2419
 3791TIP3    H232789   0.891   1.014  11.654 -1.5138  0.0338  2.0731
 3792TIP3   OH232790   1.865   4.755  12.094 -0.3147  0.2614 -0.5154
 3792TIP3    H132791   1.911   4.832  12.127 -1.5301 -0.1273  2.3354
 3792TIP3    H232792   1.779   4.789  12.068 -1.0720 -0.1500  1.3100
 3793TIP3   OH232793   6.416   5.665   2.727 -0.1647  0.6281  0.2315
 3793TIP3    H132794   6.388   5.574   2.734 -3.4893  1.4150 -0.9178
 3793TIP3    H232795   6.419   5.697   2.817 -1.3936 -0.0077  0.5178
 3794TIP3   OH232796   2.432   5.578  12.574  0.0239 -0.3157 -0.5339
 3794TIP3    H132797   2.484   5.514  12.526  1.1056  0.7237 -0.8052
 3794TIP3    H232798   2.372   5.614  12.509  0.1075 -0.3350 -0.6222
 3795TIP3   OH232799   5.464   0.429  11.359  0.3977  0.1618 -0.1856
 3795TIP3    H132800   5.530   0.422  11.428  1.6437 -0.2615 -1.3874
 3795TIP3    H232801   5.465   0.343  11.317 -0.3088  0.4366 -0.7769
 3796TIP3   OH232802   0.419   2.902  10.883 -0.2633  0.1521 -0.0891
 3796TIP3    H132803   0.492   2.963  10.888  0.9941 -1.3597  0.8649
 3796TIP3    H232804   0.386   2.910  10.794  0.1576  1.8545 -0.1220
 3797TIP3   OH232805   1.172   0.576   2.277 -0.0643  0.1830  0.0683
 3797TIP3    H132806   1.234   0.529   2.222 -0.7182 -2.1832  1.2433
 3797TIP3    H232807   1.089   0.529   2.266 -0.1774 -0.4970  3.1432
 3798TIP3   OH232808   1.709   5.521  16.616  1.1743  0.1214  0.1996
 3798TIP3    H132809   1.791   5.557  16.650  1.0227  0.3779  0.2955
 3798TIP3    H232810   1.650   5.596  16.611  1.3843  0.2310 -1.2470
 3799TIP3   OH232811   2.872   0.594   1.697  0.2298  0.9345 -0.7949
 3799TIP3    H132812   2.837   0.593   1.608  0.5936  3.0782 -1.0119
 3799TIP3    H232813   2.896   0.503   1.715 -2.2039 -0.0204 -1.9147
 3800TIP3   OH232814   1.131   2.663   4.652 -0.0181  0.3010 -0.0472
 3800TIP3    H132815   1.076   2.691   4.578 -0.1023  0.5661  0.1159
 3800TIP3    H232816   1.075   2.605   4.702  0.5572 -1.2026 -1.0692
 3801TIP3   OH232817   5.244   3.325   0.944  0.2740  0.2624  0.2206
 3801TIP3    H132818   5.153   3.301   0.958  0.5016  0.3419  2.2961
 3801TIP3    H232819   5.266   3.290   0.858 -0.7360 -2.8971  1.0973
 3802TIP3   OH232820   4.854   6.181  16.769  0.1163 -0.2305 -0.4846
 3802TIP3    H132821   4.844   6.195  16.864  2.4381  2.6487 -0.5059
 3802TIP3    H232822   4.933   6.128  16.761  0.6790  0.6411 -0.8066
 3803TIP3   OH232823   4.068   3.714   0.839 -0.2662 -0.3685 -0.2767
 3803TIP3    H132824   4.027   3.721   0.926 -0.6516  0.3950 -0.5098
 3803TIP3    H232825   4.148   3.765   0.846  0.3443 -1.3380 -0.0115
 3804TIP3   OH232826   3.618   4.862  11.227 -0.1229  0.2310 -0.0309
 3804TIP3    H132827   3.686   4.869  11.293 -0.3240  1.2642  0.0723
 3804TIP3    H232828   3.598   4.952  11.202  1.8523 -0.1004 -3.4725
 3805TIP3   OH232829   6.025   6.478  15.143 -0.0413  0.1640  0.3155
 3805TIP3    H132830   5.959   6.441  15.085 -1.5952  2.5772  0.3617
 3805TIP3    H232831   6.101   6.495  15.087 -0.6741  0.3239 -0.5090
 3806TIP3   OH232832   5.815   4.258   2.747 -0.2414  0.3827 -0.0748
 3806TIP3    H132833   5.903   4.280   2.777  0.2092 -0.4329 -0.7417
 3806TIP3    H232834   5.792   4.180   2.796 -0.2938  0.1776 -0.4223
 3807TIP3   OH232835   5.674   2.432  16.689  0.1364  0.5822 -0.1335
 3807TIP3    H132836   5.739   2.497  16.715  1.6782 -0.7244 -0.5686
 3807TIP3    H232837   5.706   2.349  16.726 -1.7680  0.0311  0.4139
 3808TIP3   OH232838   0.981   1.398   6.115  0.3819 -0.4863 -0.1024
 3808TIP3    H132839   0.913   1.392   6.048 -1.1726  1.3786  1.1896
 3808TIP3    H232840   0.955   1.334   6.181  0.8498 -0.9573 -0.3619
 3809TIP3   OH232841   6.007   1.997  11.747  0.4753 -0.1665 -0.5591
 3809TIP3    H132842   5.970   2.067  11.802 -1.0312 -0.3817 -1.2598
 3809TIP3    H232843   6.082   1.966  11.797  0.6570  1.3548  0.1866
 3810TIP3   OH232844   5.074   5.356  14.942  0.6503  0.1416  0.5112
 3810TIP3    H132845   5.108   5.429  14.995 -0.8980  1.9168 -0.8036
 3810TIP3    H232846   5.003   5.320  14.995 -0.0392  1.0669  0.2453
 3811TIP3   OH232847   0.347   6.172   3.077  0.0078 -0.1958  0.1819
 3811TIP3    H132848   0.412   6.115   3.119  0.0226  0.1954  0.7035
 3811TIP3    H232849   0.290   6.199   3.149  0.4348  1.0320  0.0899
 3812TIP3   OH232850   4.018   4.092   0.377  0.1982 -0.4457 -0.5088
 3812TIP3    H132851   3.924   4.107   0.367 -0.0095 -0.5106  1.0078
 3812TIP3    H232852   4.059   4.155   0.318 -0.7967 -0.0036 -0.7513
 3813TIP3   OH232853   2.685   5.683  12.878 -0.2990 -0.0362  0.3644
 3813TIP3    H132854   2.762   5.645  12.920  1.1536  2.0607 -0.2234
 3813TIP3    H232855   2.715   5.709  12.791 -1.8779  0.1646 -0.1514
 3814TIP3   OH232856   2.934   0.255   0.249 -0.7160  0.0500 -0.3029
 3814TIP3    H132857   2.860   0.286   0.302  0.1962  0.3595  0.8186
 3814TIP3    H232858   2.936   0.315   0.174 -3.8522 -2.1314 -2.3849
 3815TIP3   OH232859   3.029   2.205  12.419 -0.0458  0.2982 -0.1575
 3815TIP3    H132860   2.939   2.184  12.443  0.3792 -0.7199  0.6402
 3815TIP3    H232861   3.049   2.148  12.345  0.4558 -0.6954  0.7173
 3816TIP3   OH232862   5.310   2.358  16.662  0.1948 -0.1596 -0.2113
 3816TIP3    H132863   5.278   2.279  16.619 -0.7973  0.5499 -0.8238
 3816TIP3    H232864   5.244   2.378  16.729  1.3045 -0.7886  1.1212
 3817TIP3   OH232865   0.073   0.885  11.536  0.2011  0.8850  0.0021
 3817TIP3    H132866   0.032   0.798  11.538 -0.1043  0.9932 -1.1156
 3817TIP3    H232867   0.085   0.907  11.629  2.2615 -1.2555  0.3481
 3818TIP3   OH232868   1.294   4.017  11.355  0.2134  0.0363 -0.2418
 3818TIP3    H132869   1.374   4.069  11.345  0.3270 -0.2686 -0.9900
 3818TIP3    H232870   1.275   3.985  11.267 -0.3351 -0.4806  0.0555
 3819TIP3   OH232871   2.230   0.973  11.190  0.1363 -0.4985 -0.0833
 3819TIP3    H132872   2.170   1.047  11.197  0.2872 -0.4726  1.2686
 3819TIP3    H232873   2.314   1.011  11.167 -0.3140 -0.5258 -1.9048
 3820TIP3   OH232874   3.597   1.207  13.113 -0.2127  0.2117  0.4344
 3820TIP3    H132875   3.540   1.282  13.095  0.1015  0.8335  1.9186
 3820TIP3    H232876   3.633   1.225  13.200  2.6103  0.0696 -0.6125
 3821TIP3   OH232877   4.668   6.628   1.892  0.5702  0.0176 -0.0209
 3821TIP3    H132878   4.580   6.610   1.859  0.8664  0.6561 -1.2263
 3821TIP3    H232879   4.665   6.604   1.984 -0.8827  0.0926 -0.0344
 3822TIP3   OH232880   6.066   3.444   6.448 -0.1164  0.1478  0.1258
 3822TIP3    H132881   6.007   3.494   6.391 -0.9418  0.3232  1.1069
 3822TIP3    H232882   6.057   3.353   6.419  1.5454  0.5167 -1.8103
 3823TIP3   OH232883   1.622   1.052   2.565 -0.6435  0.5221 -0.2291
 3823TIP3    H132884   1.614   1.022   2.475  1.0515  0.0015 -0.2354
 3823TIP3    H232885   1.593   0.977   2.618 -0.9115  0.5635 -0.3139
 3824TIP3   OH232886   3.654   2.119  12.246 -0.3278  0.0089  0.5499
 3824TIP3    H132887   3.708   2.070  12.308  0.3943 -0.5189 -0.4665
 3824TIP3    H232888   3.714   2.179  12.203 -0.8128  0.3552  0.3430
 3825TIP3   OH232889   4.656   0.066  14.228  0.3840  0.4783  1.2450
 3825TIP3    H132890   4.643   0.032  14.140  1.0056  0.5810  1.1142
 3825TIP3    H232891   4.570   0.102  14.252  0.7552  2.4443 -0.1825
 3826TIP3   OH232892   1.003   6.729   3.015  0.4612  0.3231  0.2063
 3826TIP3    H132893   1.037   6.695   2.932  0.0108 -1.4285  0.6937
 3826TIP3    H232894   1.057   6.688   3.082 -0.9373 -0.5195  0.8798
 3827TIP3   OH232895   6.722   4.261   1.155 -0.0598 -0.0203 -0.3713
 3827TIP3    H132896   6.713   4.173   1.190  0.6334  0.0081 -0.0933
 3827TIP3    H232897   6.678   4.317   1.219  1.8078  0.1085  0.8995
 3828TIP3   OH232898   3.702   4.682   4.072 -0.0163 -0.2238  0.0766
 3828TIP3    H132899   3.676   4.705   4.161  0.7220  1.1041 -0.0142
 3828TIP3    H232900   3.620   4.669   4.025 -0.4848  1.3215  0.4104
 3829TIP3   OH232901   1.736   0.589   0.506  0.0309  0.1345 -0.3842
 3829TIP3    H132902   1.731   0.574   0.412  0.4338 -1.3607 -0.1964
 3829TIP3    H232903   1.702   0.509   0.545  0.3329  0.5330  0.7468
 3830TIP3   OH232904   1.261   3.255   2.641  0.7815  0.0231 -0.5891
 3830TIP3    H132905   1.200   3.291   2.705 -1.2138 -0.2214 -2.2545
 3830TIP3    H232906   1.297   3.176   2.683  1.1302  0.9901  0.9955
 3831TIP3   OH232907   4.417   2.880  12.105 -0.1447 -0.0686  0.2098
 3831TIP3    H132908   4.458   2.961  12.074 -1.5616  0.3628 -0.6715
 3831TIP3    H232909   4.360   2.909  12.177 -0.3366 -0.3479  0.1714
 3832TIP3   OH232910   2.921   5.851   3.464 -0.0844  0.2982  0.0184
 3832TIP3    H132911   2.855   5.902   3.417  0.4775  0.8454 -0.1792
 3832TIP3    H232912   2.904   5.760   3.438  0.6601  0.6476 -1.8072
 3833TIP3   OH232913   6.646   1.986   2.680 -0.0054  0.1021 -0.3078
 3833TIP3    H132914   6.663   2.076   2.652  0.5953  0.0603 -0.0843
 3833TIP3    H232915   6.669   1.933   2.604  0.0645  0.1054 -0.2888
 3834TIP3   OH232916   5.821   4.821   5.680  0.5066  0.3675 -0.8739
 3834TIP3    H132917   5.830   4.726   5.669  2.7112  0.6418 -1.9751
 3834TIP3    H232918   5.728   4.838   5.663 -0.2946 -1.7391  0.9782
 3835TIP3   OH232919   0.754   6.621  12.093 -0.6756  0.0390 -0.1801
 3835TIP3    H132920   0.760   6.526  12.092  0.5739  0.0978  0.1175
 3835TIP3    H232921   0.779   6.648  12.005 -0.4166  0.1268 -0.0779
 3836TIP3   OH232922   0.365   4.321   0.096 -0.8306  0.0894 -0.4464
 3836TIP3    H132923   0.430   4.385   0.066 -0.8412  0.4557  0.2790
 3836TIP3    H232924   0.394   4.297   0.184 -1.2652 -0.3070 -0.4092
 3837TIP3   OH232925   0.429   2.119  15.474 -0.7828  0.5856  0.5947
 3837TIP3    H132926   0.466   2.070  15.400  0.5121  1.1958  0.8061
 3837TIP3    H232927   0.393   2.052  15.532 -0.9192  0.0369 -0.1080
 3838TIP3   OH232928   3.076   2.359  11.852 -0.4561  0.3848 -0.5247
 3838TIP3    H132929   3.011   2.313  11.798  0.4559 -0.5807 -0.8350
 3838TIP3    H232930   3.097   2.438  11.802 -1.2463  0.6081 -0.5115
 3839TIP3   OH232931   0.034   5.270   1.034  0.1091 -0.2000 -0.3899
 3839TIP3    H132932  -0.049   5.317   1.025 -1.1372 -2.0189  0.8223
 3839TIP3    H232933   0.068   5.297   1.119 -0.1107 -0.6669 -0.1429
 3840TIP3   OH232934   6.481   3.806  11.870 -0.1055 -0.0069 -0.0866
 3840TIP3    H132935   6.561   3.858  11.858  1.4414 -2.0206  0.8629
 3840TIP3    H232936   6.512   3.716  11.880 -2.7140 -1.4391 -2.9929
 3841TIP3   OH232937   4.723   3.653  15.188 -0.1130  0.3248  0.3913
 3841TIP3    H132938   4.654   3.694  15.135  0.1889  0.0726 -0.2095
 3841TIP3    H232939   4.803   3.696  15.159  0.2454 -0.8611 -0.4528
 3842TIP3   OH232940   2.702   4.315   1.547 -0.3292 -0.0816 -0.7471
 3842TIP3    H132941   2.626   4.361   1.512 -0.8437 -0.5376 -0.2367
 3842TIP3    H232942   2.760   4.304   1.471 -0.7027  0.3960 -1.1055
 3843TIP3   OH232943   4.264   0.756   2.421  0.1856  0.0230 -0.0059
 3843TIP3    H132944   4.294   0.674   2.460 -2.0919 -0.2102  1.4232
 3843TIP3    H232945   4.279   0.822   2.488 -0.1452  0.3484 -0.2461
 3844TIP3   OH232946   1.822   3.147  16.128 -0.2787  0.3457  0.3783
 3844TIP3    H132947   1.743   3.199  16.141 -0.5549  0.4256 -1.3317
 3844TIP3    H232948   1.893   3.203  16.158 -0.6965  1.1318 -0.0796
 3845TIP3   OH232949   4.608   6.494   0.470 -0.4620  0.1206  0.1837
 3845TIP3    H132950   4.611   6.581   0.510 -1.9644  0.8410 -1.1763
 3845TIP3    H232951   4.518   6.485   0.438  0.7487 -0.0448 -3.7081
 3846TIP3   OH232952   1.864   3.242   2.088  0.0248 -0.0371 -0.7150
 3846TIP3    H132953   1.783   3.194   2.074  0.6516 -0.9576 -1.3022
 3846TIP3    H232954   1.877   3.292   2.007 -2.0638  3.4463  0.8739
 3847TIP3   OH232955   5.041   3.316  13.894 -0.5701  0.0775 -0.1281
 3847TIP3    H132956   5.017   3.265  13.971  0.7678 -1.0433 -0.4235
 3847TIP3    H232957   4.982   3.285  13.825  0.6947 -1.6630 -0.4941
 3848TIP3   OH232958   6.392   1.882   2.687 -0.0150 -0.2746 -0.1408
 3848TIP3    H132959   6.428   1.795   2.671  0.6849  0.2224 -1.3164
 3848TIP3    H232960   6.468   1.937   2.706 -0.6059 -0.5019  3.8924
 3849TIP3   OH232961   2.678   1.032  16.772 -0.1065  0.1137  0.4809
 3849TIP3    H132962   2.684   1.114  16.723  0.8968 -0.0443  0.3222
 3849TIP3    H232963   2.603   1.045  16.831  0.0286  1.1392  0.4483
 3850TIP3   OH232964   2.608   0.398   6.322 -0.8120 -0.1936  0.5796
 3850TIP3    H132965   2.668   0.464   6.358  0.0261 -0.4649 -0.2521
 3850TIP3    H232966   2.565   0.443   6.249  1.8966 -1.2891 -1.9176
 3851TIP3   OH232967   3.839   1.883  11.861  0.1571 -0.1809 -0.3699
 3851TIP3    H132968   3.787   1.882  11.780 -0.8547 -2.1887  0.2503
 3851TIP3    H232969   3.852   1.976  11.880 -0.4614  0.3342 -2.2785
 3852TIP3   OH232970   3.951   5.359  13.671  0.8023 -0.0528 -0.8823
 3852TIP3    H132971   4.017   5.427  13.658  0.4150  0.6008  0.4240
 3852TIP3    H232972   3.996   5.292  13.722  0.7214  0.0001 -0.7377
 3853TIP3   OH232973   6.022   0.384  12.944  0.2484 -0.0210  0.1828
 3853TIP3    H132974   5.993   0.467  12.905 -0.3325  0.1455  0.9519
 3853TIP3    H232975   6.116   0.398  12.961  0.4832 -0.0419 -0.9702
 3854TIP3   OH232976   0.880   3.754  13.824  0.4176  0.4045 -0.1159
 3854TIP3    H132977   0.931   3.828  13.790  0.6962  0.3261  0.1192
 3854TIP3    H232978   0.931   3.724  13.899  0.4689 -0.2282 -0.4012
 3855TIP3   OH232979   6.726   0.715  12.122  0.2247  0.1808 -0.2117
 3855TIP3    H132980   6.646   0.662  12.124 -0.1980  0.7731 -0.7782
 3855TIP3    H232981   6.695   0.806  12.118  0.9173  0.4162 -0.5603
 3856TIP3   OH232982   4.907   4.206  11.590 -0.1977  0.0674 -0.1995
 3856TIP3    H132983   4.883   4.257  11.513  3.0721  0.5374 -1.0556
 3856TIP3    H232984   4.980   4.255  11.629 -0.7403 -0.9838  2.3174
 3857TIP3   OH232985   5.819   5.871   4.316 -0.5141  0.2194  0.3437
 3857TIP3    H132986   5.836   5.830   4.231  0.6120  0.1980  0.5732
 3857TIP3    H232987   5.861   5.956   4.311  1.2647 -0.5337  1.5555
 3858TIP3   OH232988   4.925   2.887  10.895 -0.1370 -0.2352  0.1052
 3858TIP3    H132989   4.967   2.856  10.976 -0.4628 -1.8100 -0.2990
 3858TIP3    H232990   4.879   2.811  10.862 -3.3922  1.3997  0.5055
 3859TIP3   OH232991   4.671   3.031  11.248  0.2569 -0.1007 -0.4883
 3859TIP3    H132992   4.712   3.073  11.324  1.8546 -2.9752  0.3732
 3859TIP3    H232993   4.613   3.099  11.212  1.1299  2.1066  1.9324
 3860TIP3   OH232994   0.603   2.563   4.028 -0.4014 -0.1070 -0.8117
 3860TIP3    H132995   0.662   2.560   4.104 -1.2595  0.7479 -0.0752
 3860TIP3    H232996   0.540   2.493   4.045 -0.6006  0.0926 -0.7235
 3861TIP3   OH232997   5.863   6.315   3.371 -0.6328 -0.1825 -0.3165
 3861TIP3    H132998   5.948   6.355   3.388  0.2964 -0.9756 -2.7477
 3861TIP3    H232999   5.802   6.388   3.367 -0.0809  0.4054  1.3281
 3862TIP3   OH233000   1.958   5.897   4.559 -0.1871 -0.8359  0.0165
 3862TIP3    H133001   1.979   5.956   4.632  0.2699 -0.5632 -0.3274
 3862TIP3    H233002   1.921   5.819   4.601  1.9856 -1.5546  0.7119
 3863TIP3   OH233003   6.545   4.477   1.298  0.5403  0.1611 -0.1237
 3863TIP3    H133004   6.461   4.478   1.253  0.9045  0.9633 -0.8317
 3863TIP3    H233005   6.539   4.547   1.363 -0.0189 -1.0614  1.1792
 3864TIP3   OH233006   2.659   6.223  15.757  0.4802  0.4691 -0.0285
 3864TIP3    H133007   2.660   6.309  15.715  1.2793 -0.0521 -1.1008
 3864TIP3    H233008   2.717   6.233  15.832  1.1741  0.6655 -0.5838
 3865TIP3   OH233009   6.227   4.219  12.561  0.1778 -0.5857  0.9523
 3865TIP3    H133010   6.313   4.235  12.522 -0.0789 -1.7038 -0.1202
 3865TIP3    H233011   6.166   4.219  12.488 -0.8315  0.6332  1.7506
 3866TIP3   OH233012   6.436   1.998   6.141  0.5002  0.2378 -0.3876
 3866TIP3    H133013   6.402   1.984   6.230 -0.6289  3.2452 -0.2431
 3866TIP3    H233014   6.437   2.093   6.130  3.4398  0.1124 -2.5786
 3867TIP3   OH233015   5.514   6.524   5.674  0.0252 -0.5013 -0.1217
 3867TIP3    H133016   5.510   6.562   5.586  0.9048 -1.8740 -0.7797
 3867TIP3    H233017   5.456   6.448   5.670  0.7499 -1.0818  0.2157
 3868TIP3   OH233018   0.986   5.692   2.794 -0.0392 -0.2475 -0.3536
 3868TIP3    H133019   0.946   5.698   2.881  0.9728  0.0147  0.1067
 3868TIP3    H233020   1.007   5.599   2.784  1.4197 -0.0364  0.4357
 3869TIP3   OH233021   0.254   4.831  16.499  0.5472 -0.8514 -0.2559
 3869TIP3    H133022   0.301   4.859  16.420 -0.8039 -1.1082 -1.2028
 3869TIP3    H233023   0.286   4.888  16.568 -0.0865  1.1844 -1.5445
 3870TIP3   OH233024   1.440   2.379  13.466 -0.3137 -0.3184 -0.0220
 3870TIP3    H133025   1.384   2.440  13.513  0.4628  0.5812 -0.2267
 3870TIP3    H233026   1.518   2.430  13.444 -0.3410 -0.9225 -1.6374
 3871TIP3   OH233027   4.804   0.613   0.626  0.2388  0.1405 -1.2446
 3871TIP3    H133028   4.798   0.695   0.676  3.1301  0.6009 -1.5029
 3871TIP3    H233029   4.851   0.553   0.684 -0.5228 -0.8616 -1.6442
 3872TIP3   OH233030   4.500   2.047  12.005  0.4989  0.3551 -0.3614
 3872TIP3    H133031   4.563   1.976  12.020 -1.3562 -1.1374  0.9229
 3872TIP3    H233032   4.554   2.124  11.988  2.8286 -0.2580  3.0932
 3873TIP3   OH233033   1.249   0.854  17.071 -0.2715 -0.0947 -0.1419
 3873TIP3    H133034   1.301   0.778  17.045 -0.8108 -0.7722  0.7056
 3873TIP3    H233035   1.160   0.819  17.080 -1.0861  1.1877 -2.3237
 3874TIP3   OH233036   2.441   2.999   5.896 -0.0996  0.4932  0.6068
 3874TIP3    H133037   2.498   2.936   5.852  1.3555  0.6187  2.1870
 3874TIP3    H233038   2.353   2.964   5.885  0.4826 -0.8171 -0.1641
 3875TIP3   OH233039   4.631   0.657   0.077  0.7799 -0.3328  0.0495
 3875TIP3    H133040   4.613   0.666  -0.017  2.2443  0.7910 -0.1548
 3875TIP3    H233041   4.721   0.687   0.087  0.3764  0.3635  1.9614
 3876TIP3   OH233042   0.486   4.695  15.344  0.3043  0.3413 -0.1378
 3876TIP3    H133043   0.453   4.635  15.411 -1.5213  1.4582  0.0432
 3876TIP3    H233044   0.550   4.643  15.295 -0.0088 -1.2219  1.0146
 3877TIP3   OH233045   0.714   1.096   3.223 -0.8108 -0.3561  0.0280
 3877TIP3    H133046   0.731   1.187   3.248 -1.2133 -0.0089 -0.9210
 3877TIP3    H233047   0.800   1.061   3.201 -0.5354 -0.4761  1.2321
 3878TIP3   OH233048   1.854   5.673   5.540  0.1344  0.5701 -0.4632
 3878TIP3    H133049   1.808   5.610   5.484  0.5554  0.0610 -0.2479
 3878TIP3    H233050   1.813   5.662   5.626  0.7703 -0.0192 -0.2255
 3879TIP3   OH233051   0.111   2.246   3.164  1.0533 -0.2045 -0.0567
 3879TIP3    H133052   0.060   2.264   3.086 -0.2012  1.6636  1.1206
 3879TIP3    H233053   0.071   2.169   3.203 -2.0043  2.0103  1.6029
 3880TIP3   OH233054   0.112   2.010   1.931  0.5004 -0.0486  0.2072
 3880TIP3    H133055   0.186   2.058   1.894  0.5439  0.9573  1.5391
 3880TIP3    H233056   0.120   2.022   2.026  0.7816 -3.0895  0.6733
 3881TIP3   OH233057   3.378   1.301  13.672 -0.1075 -0.1646 -0.2278
 3881TIP3    H133058   3.372   1.351  13.754  0.0341  0.0243 -0.3302
 3881TIP3    H233059   3.436   1.228  13.692 -1.2021 -0.9275  0.2354
 3882TIP3   OH233060   0.131   1.781  15.785  0.6813  0.0615  0.2528
 3882TIP3    H133061   0.074   1.739  15.721  0.7471 -1.3414  1.0504
 3882TIP3    H233062   0.135   1.872  15.758 -2.0772  0.2837  0.2423
 3883TIP3   OH233063   6.147   3.037   0.460  0.2661 -0.0724 -0.1724
 3883TIP3    H133064   6.224   3.072   0.504  1.0061 -1.2649 -0.4595
 3883TIP3    H233065   6.074   3.057   0.519  0.9182  0.3323  0.5096
 3884TIP3   OH233066   0.280   6.548  13.395  0.0692  0.1842 -0.0514
 3884TIP3    H133067   0.192   6.563  13.427  1.2374  3.9700  2.0507
 3884TIP3    H233068   0.310   6.470  13.441 -1.2440  0.5304  1.4567
 3885TIP3   OH233069   5.170   5.060   3.292 -0.3174 -0.0559 -0.2014
 3885TIP3    H133070   5.117   5.131   3.326  1.7013  1.7193 -0.5807
 3885TIP3    H233071   5.221   5.099   3.220  1.5456 -1.5940  0.1828
 3886TIP3   OH233072   4.493   2.592   2.753 -0.3658  0.1943  0.5997
 3886TIP3    H133073   4.474   2.533   2.680  0.5594  1.7628 -0.9786
 3886TIP3    H233074   4.531   2.669   2.712 -1.9621  2.1293  2.5374
 3887TIP3   OH233075   0.291   4.951   0.398 -0.1063 -0.3771 -0.2658
 3887TIP3    H133076   0.283   4.943   0.303  0.0280 -1.8501 -0.1837
 3887TIP3    H233077   0.202   4.934   0.431 -0.1159 -0.0479 -0.1208
 3888TIP3   OH233078   0.784   2.912  12.656 -0.0359  0.0056  0.2623
 3888TIP3    H133079   0.740   2.997  12.661 -0.5474 -0.1604 -1.0552
 3888TIP3    H233080   0.874   2.931  12.680 -0.2194  0.8590  0.3307
 3889TIP3   OH233081   0.228   1.774   2.132 -0.7373  0.6408 -0.4078
 3889TIP3    H133082   0.296   1.726   2.178 -1.1713 -0.2163 -0.6470
 3889TIP3    H233083   0.274   1.820   2.062 -0.4848 -0.3862 -0.9193
 3890TIP3   OH233084   1.755   6.750  12.519  0.3016  0.1282 -0.1124
 3890TIP3    H133085   1.706   6.720  12.595 -0.9837  0.1329 -0.9150
 3890TIP3    H233086   1.760   6.675  12.460 -1.0014  0.8098 -1.1525
 3891TIP3   OH233087   0.637   1.408  12.240 -0.5168 -0.8764  0.1357
 3891TIP3    H133088   0.653   1.479  12.177 -0.2857  0.2972  1.4571
 3891TIP3    H233089   0.720   1.360  12.243 -0.2369 -0.3891  0.2115
 3892TIP3   OH233090   0.307   0.845  12.824 -0.5960  0.3982 -0.6341
 3892TIP3    H133091   0.233   0.790  12.797  0.1804 -1.2739  0.4419
 3892TIP3    H233092   0.334   0.808  12.908 -0.4282  2.9013  0.4880
 3893TIP3   OH233093   3.423   0.289  13.353 -0.4403 -0.2610 -0.0420
 3893TIP3    H133094   3.332   0.319  13.345 -0.4153 -0.3411 -0.7285
 3893TIP3    H233095   3.467   0.356  13.404 -1.0344 -0.5422  0.8645
 3894TIP3   OH233096   2.648   4.266  13.365  0.2961 -0.2018  0.2591
 3894TIP3    H133097   2.610   4.354  13.373  1.0963  0.1698  0.0350
 3894TIP3    H233098   2.621   4.237  13.278  0.3094 -0.0423  0.2004
 3895TIP3   OH233099   4.134   2.117  13.666 -0.1186  0.5110  0.1265
 3895TIP3    H133100   4.212   2.171  13.681  2.1009 -2.5519  0.4438
 3895TIP3    H233101   4.108   2.088  13.754  0.7034 -1.4038 -0.2074
 3896TIP3   OH233102   2.955   3.838   0.884 -0.8489  0.4571  0.4241
 3896TIP3    H133103   2.973   3.828   0.978 -0.1295  1.9752  0.4799
 3896TIP3    H233104   3.023   3.786   0.841  0.4570  1.8107  0.7446
 3897TIP3   OH233105   1.185   3.342  13.304 -0.1625  0.0122 -0.4778
 3897TIP3    H133106   1.249   3.292  13.354 -0.8316  0.0214  0.4045
 3897TIP3    H233107   1.220   3.431  13.304  0.2371 -0.1417 -0.7053
 3898TIP3   OH233108   4.849   5.988  11.872  0.7419  0.3262  0.2017
 3898TIP3    H133109   4.778   5.984  11.808  0.9273  1.8881 -0.1458
 3898TIP3    H233110   4.850   5.902  11.913  0.1921 -0.5034 -1.4460
 3899TIP3   OH233111   5.183   2.816   2.740  0.2789 -0.1980 -0.2759
 3899TIP3    H133112   5.241   2.809   2.815 -1.9455 -0.6081  1.5156
 3899TIP3    H233113   5.105   2.859   2.774 -0.7881 -0.3269 -2.3861
 3900TIP3   OH233114   0.497   6.425   2.919 -0.3596 -0.0823  0.4443
 3900TIP3    H133115   0.407   6.401   2.897 -0.1522  0.7223 -1.4764
 3900TIP3    H233116   0.513   6.507   2.871  1.9651 -1.1734 -0.8488
 3901TIP3   OH233117   1.198   0.727  12.774  0.2787 -0.5185 -0.0914
 3901TIP3    H133118   1.240   0.791  12.830 -2.2518  2.5523 -1.4264
 3901TIP3    H233119   1.111   0.715  12.811 -0.6596 -0.1070 -2.0188
 3902TIP3   OH233120   5.179   5.884   4.326 -0.0384  0.0856  0.0337
 3902TIP3    H133121   5.222   5.838   4.399 -0.7741 -1.9098 -0.7394
 3902TIP3    H233122   5.194   5.977   4.345 -0.1181 -0.3648  2.6768
 3903TIP3   OH233123   6.526   6.001   4.120  0.2382 -0.3299 -0.4756
 3903TIP3    H133124   6.593   5.934   4.108  0.3083 -0.3279 -0.1036
 3903TIP3    H233125   6.495   5.988   4.210  4.4401  3.8917  2.0210
 3904TIP3   OH233126   3.801   0.379   0.249 -0.3993 -0.1312 -0.2055
 3904TIP3    H133127   3.864   0.330   0.303 -0.6795 -1.9983 -1.4810
 3904TIP3    H233128   3.716   0.360   0.289 -0.3991  0.3656  0.0394
 3905TIP3   OH233129   0.275   2.116   0.837 -0.6147 -0.1530 -0.7835
 3905TIP3    H133130   0.217   2.152   0.904 -1.1904 -1.5653 -0.4985
 3905TIP3    H233131   0.224   2.119   0.756 -0.6912 -0.4172 -0.7439
 3906TIP3   OH233132   2.122   0.758  14.690 -0.1242  0.0329  0.1575
 3906TIP3    H133133   2.036   0.746  14.648 -0.0101  1.0482 -0.4082
 3906TIP3    H233134   2.118   0.845  14.728  1.0995  0.6390 -1.0087
 3907TIP3   OH233135   1.539   6.545   3.628  0.5101  0.0857  0.6378
 3907TIP3    H133136   1.613   6.522   3.683  0.4751 -1.0070  0.2746
 3907TIP3    H233137   1.570   6.529   3.539 -0.4345 -1.3455  0.5249
 3908TIP3   OH233138   3.066   4.324   4.931  0.6220 -0.3356  0.5320
 3908TIP3    H133139   2.989   4.290   4.886  0.3323 -1.1327  1.5935
 3908TIP3    H233140   3.138   4.266   4.905  0.7624  0.0906 -0.0446
 3909TIP3   OH233141   1.329   1.177   1.779 -0.1130 -0.2721  0.1590
 3909TIP3    H133142   1.331   1.136   1.692  0.5025  0.0210  0.0284
 3909TIP3    H233143   1.416   1.218   1.788 -0.6278  0.8173  0.3648
 3910TIP3   OH233144   3.702   3.956  11.945 -0.0407  0.5962  0.2402
 3910TIP3    H133145   3.650   3.885  11.981  0.0820  0.9554  1.1562
 3910TIP3    H233146   3.658   3.979  11.863 -0.8652  0.3730  0.6126
 3911TIP3   OH233147   2.134   1.077  14.615  0.4465  0.3704 -0.0197
 3911TIP3    H133148   2.111   1.041  14.701 -1.7079 -1.4066 -1.2226
 3911TIP3    H233149   2.122   1.171  14.625 -1.2505  0.0724  1.2509
 3912TIP3   OH233150   2.943   1.516   6.052 -0.2896  0.4797 -0.5434
 3912TIP3    H133151   2.920   1.465   6.130 -0.0490  0.1890 -0.6584
 3912TIP3    H233152   3.021   1.473   6.018 -1.4241 -0.5665 -1.9959
 3913TIP3   OH233153   4.386   0.332   4.034  0.0995  0.3376 -0.1740
 3913TIP3    H133154   4.319   0.265   4.028 -0.9410  1.2738  0.5197
 3913TIP3    H233155   4.338   0.415   4.033  1.0255  1.0099  2.5762
 3914TIP3   OH233156   6.758   2.371   1.520  0.3948 -0.7408  0.2086
 3914TIP3    H133157   6.789   2.381   1.611  0.5123 -0.8529  0.1817
 3914TIP3    H233158   6.695   2.442   1.509 -0.1334 -1.1401  0.5950
 3915TIP3   OH233159   2.223   2.247  11.522  0.1297  0.3533 -0.1146
 3915TIP3    H133160   2.133   2.273  11.504 -0.2649  0.0620  1.3202
 3915TIP3    H233161   2.270   2.266  11.441 -0.9720  1.6060 -0.4962
 3916TIP3   OH233162   0.717   2.814  13.494 -0.3110  0.3999  0.5410
 3916TIP3    H133163   0.724   2.760  13.415 -1.1815 -0.1499  0.8136
 3916TIP3    H233164   0.803   2.809  13.535  0.2027  0.8481 -0.4691
 3917TIP3   OH233165   6.287   4.720  15.879 -0.0143 -0.6596  0.4947
 3917TIP3    H133166   6.330   4.654  15.933  1.4161  0.7894  1.2411
 3917TIP3    H233167   6.308   4.695  15.789  1.8766 -0.4181  0.8161
 3918TIP3   OH233168   0.920   6.151   3.909  0.2869 -0.1263  0.3865
 3918TIP3    H133169   0.958   6.123   3.826  0.6805  2.0612 -0.2350
 3918TIP3    H233170   0.826   6.151   3.894  0.3721  0.5916 -0.2143
 3919TIP3   OH233171   5.151   4.912  16.267  0.3604 -0.2955 -0.4918
 3919TIP3    H133172   5.175   4.819  16.262  0.6682 -0.1621 -3.1209
 3919TIP3    H233173   5.170   4.946  16.180  1.0103  2.4584  0.6118
 3920TIP3   OH233174   3.266   2.670   0.026  0.3676  0.2841 -0.0770
 3920TIP3    H133175   3.297   2.703  -0.058  0.7333  0.7975  0.2499
 3920TIP3    H233176   3.246   2.578   0.011  5.9967 -1.4395  0.5893
 3921TIP3   OH233177   3.922   4.440  12.328 -0.4787 -0.2309  0.7994
 3921TIP3    H133178   3.965   4.407  12.407  1.3074 -0.5293 -0.2550
 3921TIP3    H233179   3.898   4.361  12.280  0.1413 -0.0321  0.1628
 3922TIP3   OH233180   6.720   1.651  16.938  0.2747 -0.2426  0.3354
 3922TIP3    H133181   6.642   1.668  16.991  0.6389 -1.1999  1.2109
 3922TIP3    H233182   6.793   1.656  16.999  1.0884  1.9354 -0.7006
 3923TIP3   OH233183   5.974   3.090  16.581 -0.7814 -0.1459  0.6666
 3923TIP3    H133184   6.036   3.129  16.518 -0.7129 -1.2718  0.0257
 3923TIP3    H233185   5.904   3.054  16.527 -2.5943  1.9890  1.4155
 3924TIP3   OH233186   5.031   2.433  16.463  0.1139 -0.5485 -0.1082
 3924TIP3    H133187   5.003   2.419  16.553 -0.3694 -1.6167 -0.4070
 3924TIP3    H233188   4.966   2.387  16.410  1.1064 -1.0373 -0.9421
 3925TIP3   OH233189   3.379   1.215  16.723  0.4512  0.1505  0.1082
 3925TIP3    H133190   3.320   1.176  16.659  0.4674  2.6525 -1.5337
 3925TIP3    H233191   3.466   1.191  16.693  0.4093  0.0148  0.0947
 3926TIP3   OH233192   4.267   4.480  15.674  0.1633 -0.1791  0.5347
 3926TIP3    H133193   4.308   4.557  15.715 -0.7432 -0.3258  1.7730
 3926TIP3    H233194   4.317   4.406  15.707 -0.4900 -0.2884  1.3019
 3927TIP3   OH233195   4.987   4.371   1.865  0.1277 -0.4797  0.0556
 3927TIP3    H133196   5.002   4.399   1.955  1.4389 -1.6455  0.2375
 3927TIP3    H233197   5.072   4.385   1.822 -0.9329  1.7470 -1.5013
 3928TIP3   OH233198   4.187   3.436  15.248  0.0485  0.0560 -0.0890
 3928TIP3    H133199   4.241   3.486  15.186 -1.9649 -0.8964 -2.7979
 3928TIP3    H233200   4.106   3.486  15.256 -0.0639 -0.2777  1.1770
 3929TIP3   OH233201   0.767   4.268  10.866  0.2144 -0.4907  0.2231
 3929TIP3    H133202   0.791   4.352  10.827 -0.9685 -0.4695 -0.5166
 3929TIP3    H233203   0.713   4.291  10.941  1.3655 -0.5708  1.1114
 3930TIP3   OH233204   4.222   0.657  16.404 -0.3538  0.4561  0.4589
 3930TIP3    H133205   4.219   0.669  16.499 -0.4922 -0.1216  0.5312
 3930TIP3    H233206   4.136   0.685  16.374  0.5324  3.1437  0.1816
 3931TIP3   OH233207   0.666   1.964  13.438 -0.0751  0.3366 -0.3428
 3931TIP3    H133208   0.658   2.019  13.516  0.2775  2.1729 -1.5559
 3931TIP3    H233209   0.601   1.999  13.377 -1.1365 -1.7837 -0.5251
 3932TIP3   OH233210   3.257   0.289  16.225  0.1774  0.2241  0.2006
 3932TIP3    H133211   3.208   0.243  16.157  0.7756  1.0099 -0.7942
 3932TIP3    H233212   3.199   0.361  16.251 -0.1915 -0.2689  0.7900
 3933TIP3   OH233213   3.496   2.029   0.402  0.2871  0.1573 -0.0424
 3933TIP3    H133214   3.537   1.961   0.456 -0.2701 -0.1522 -0.0054
 3933TIP3    H233215   3.438   2.076   0.463  0.2351  0.2982 -0.2006
 3934TIP3   OH233216   3.057   6.762  14.886 -0.1962  0.5121 -0.1439
 3934TIP3    H133217   3.133   6.805  14.848  0.9293 -1.2962 -0.0436
 3934TIP3    H233218   3.014   6.719  14.813 -0.0936  0.0256  0.0810
 3935TIP3   OH233219   2.699   4.152  13.987  0.2006  0.5543  0.0612
 3935TIP3    H133220   2.641   4.212  13.941 -1.1470 -0.4877  0.3502
 3935TIP3    H233221   2.778   4.203  14.004  0.3376  1.3040 -2.4264
 3936TIP3   OH233222   4.444   3.980  14.159  0.7317  0.4909  0.0047
 3936TIP3    H133223   4.528   3.948  14.126  1.2354  0.8147  0.9288
 3936TIP3    H233224   4.415   4.042  14.093  0.9959  0.0346 -0.5479
 3937TIP3   OH233225   5.832   1.206  11.654  0.4508  0.0616 -0.2899
 3937TIP3    H133226   5.887   1.130  11.633  0.5799  0.0145  0.2128
 3937TIP3    H233227   5.819   1.201  11.748  1.9986  1.6695  0.0555
 3938TIP3   OH233228   4.914   4.597   0.373  0.3846  0.2192  0.7437
 3938TIP3    H133229   4.990   4.540   0.357  0.7191  0.9656 -0.4589
 3938TIP3    H233230   4.838   4.542   0.353  0.6104 -0.4137  1.5767
 3939TIP3   OH233231   0.811   4.388   2.709 -0.0717 -0.1589  0.5318
 3939TIP3    H133232   0.906   4.377   2.703 -0.0298  0.9379 -1.5997
 3939TIP3    H233233   0.794   4.399   2.803  2.0232  0.5689  0.8698
 3940TIP3   OH233234   6.372   5.203  12.943  0.1881 -0.7238  0.1465
 3940TIP3    H133235   6.461   5.170  12.956  0.6846 -0.0984 -1.4357
 3940TIP3    H233236   6.364   5.275  13.006  0.8216 -0.7460  0.2559
 3941TIP3   OH233237   5.208   0.333   3.584 -0.4232  0.6197 -0.3361
 3941TIP3    H133238   5.206   0.254   3.531 -1.5619 -0.1407  0.7844
 3941TIP3    H233239   5.300   0.360   3.584 -0.0131 -0.7060 -0.7438
 3942TIP3   OH233240   3.564   5.147   1.137 -0.5191  0.3301  0.1743
 3942TIP3    H133241   3.605   5.219   1.090  2.1880 -0.9375  0.4135
 3942TIP3    H233242   3.627   5.075   1.131 -1.6092 -0.9772  2.7085
 3943TIP3   OH233243   6.525   4.165  15.589 -0.3739 -0.2296 -0.1107
 3943TIP3    H133244   6.572   4.083  15.571 -2.8907 -1.4144 -1.9187
 3943TIP3    H233245   6.565   4.228  15.530 -0.8505 -1.1787 -1.5173
 3944TIP3   OH233246   5.083   0.143   0.395  0.0711 -0.0779  0.0134
 3944TIP3    H133247   5.161   0.196   0.409  0.2482  0.2147 -1.7811
 3944TIP3    H233248   5.110   0.077   0.330 -1.2974  0.3943 -1.0924
 3945TIP3   OH233249   3.118   6.614  12.818  0.4540  0.5656  0.2126
 3945TIP3    H133250   3.158   6.691  12.859 -1.9897  1.4333  1.1371
 3945TIP3    H233251   3.041   6.648  12.772 -0.7349 -1.2896  0.7040
 3946TIP3   OH233252   4.250   6.681   0.743  0.0360 -0.2080  0.2520
 3946TIP3    H133253   4.221   6.591   0.752 -0.8233 -0.0858 -1.0521
 3946TIP3    H233254   4.190   6.720   0.679  1.0659  0.9783 -0.0436
 3947TIP3   OH233255   5.498   1.204   2.594 -0.0468  0.1614 -0.2959
 3947TIP3    H133256   5.582   1.180   2.633 -0.9823  1.6175  2.9288
 3947TIP3    H233257   5.514   1.289   2.554  0.0854  0.3491  0.1457
 3948TIP3   OH233258   1.215   2.669  13.584 -0.3477  0.5993 -0.1487
 3948TIP3    H133259   1.141   2.703  13.533  0.0277  1.5987 -0.0648
 3948TIP3    H233260   1.181   2.591  13.626 -0.7722 -0.0720 -1.6558
 3949TIP3   OH233261   6.701   6.660  10.241 -0.2216 -0.9304 -0.1849
 3949TIP3    H133262   6.758   6.584  10.232  1.5076  0.4566 -1.3477
 3949TIP3    H233263   6.751   6.733  10.207 -1.2917  1.0379  2.1563
 3950TIP3   OH233264   3.229   5.943  13.744  0.1158  0.1644  0.0368
 3950TIP3    H133265   3.244   6.031  13.710 -1.2564 -0.1787 -1.6362
 3950TIP3    H233266   3.265   5.885  13.678  2.0682 -0.5981  1.6644
 3951TIP3   OH233267   6.342   2.588   0.094 -0.6291  0.0394  0.0012
 3951TIP3    H133268   6.292   2.507   0.106 -2.3267  0.8066 -1.4652
 3951TIP3    H233269   6.280   2.658   0.113  0.8285  1.0587  1.3355
 3952TIP3   OH233270   3.343   2.212   2.795  0.1259 -0.1938 -0.2803
 3952TIP3    H133271   3.334   2.224   2.700  4.2414  3.6664 -0.5604
 3952TIP3    H233272   3.422   2.159   2.805 -0.2421 -0.5349  0.9836
 3953TIP3   OH233273   6.242   4.177  10.481 -0.4074  0.2229  0.0533
 3953TIP3    H133274   6.210   4.264  10.457  0.6697  0.8871  0.9394
 3953TIP3    H233275   6.243   4.177  10.576 -0.6523 -0.8736  0.0681
 3954TIP3   OH233276   2.026   0.231   5.878 -0.6956  0.0264  0.1289
 3954TIP3    H133277   2.092   0.296   5.851  0.0588 -0.9559 -0.4700
 3954TIP3    H233278   2.043   0.218   5.971 -0.1065 -0.1387  0.0032
 3955TIP3   OH233279   5.759   5.005  13.665  0.0312  0.6582 -0.2784
 3955TIP3    H133280   5.672   5.033  13.692  0.4892  0.5533  1.4261
 3955TIP3    H233281   5.773   5.046  13.579 -1.6132  0.7820 -0.5060
 3956TIP3   OH233282   1.475   2.012  13.705  0.0778 -0.1556  0.2386
 3956TIP3    H133283   1.423   2.089  13.729 -0.2367 -0.0763 -0.6654
 3956TIP3    H233284   1.471   2.008  13.609  2.0413  0.0734  0.0896
 3957TIP3   OH233285   0.158   2.211   2.174 -0.2002  0.3539 -0.1738
 3957TIP3    H133286   0.065   2.234   2.179 -0.2076  0.1337  0.9558
 3957TIP3    H233287   0.202   2.294   2.154 -0.4780  0.8334  1.1182
 3958TIP3   OH233288   1.435   3.884   5.458  0.7523  0.4385  0.5217
 3958TIP3    H133289   1.359   3.900   5.402  0.5741  0.1147  0.6685
 3958TIP3    H233290   1.435   3.789   5.470  2.7876  0.0297 -1.7931
 3959TIP3   OH233291   6.076   3.667  11.509 -0.5443  0.3193  0.0569
 3959TIP3    H133292   5.987   3.703  11.500 -1.2034 -0.9772  1.0359
 3959TIP3    H233293   6.064   3.573  11.501  0.9383  0.1974 -0.9942
 3960TIP3   OH233294   1.978   1.386   0.598  0.4316 -0.0996  0.1425
 3960TIP3    H133295   1.926   1.360   0.673 -0.9791  0.4368 -0.6147
 3960TIP3    H233296   1.970   1.314   0.536 -0.6926  0.6309 -0.5891
 3961TIP3   OH233297   5.881   1.307  11.195 -0.0062  0.2701  0.3101
 3961TIP3    H133298   5.916   1.339  11.111 -0.9397  1.3509  0.2965
 3961TIP3    H233299   5.869   1.387  11.247  0.8078 -0.4158  1.5811
 3962TIP3   OH233300   0.516   2.154   2.647 -0.2754  0.1350  0.0499
 3962TIP3    H133301   0.468   2.107   2.715 -0.6485  0.8990  0.3182
 3962TIP3    H233302   0.469   2.237   2.637  1.1160  1.0049  0.4795
 3963TIP3   OH233303   6.638   2.147   4.812 -0.7199 -0.0635 -0.0011
 3963TIP3    H133304   6.680   2.224   4.774 -1.3749  0.8436  1.0466
 3963TIP3    H233305   6.581   2.114   4.743  0.9549 -0.7488 -1.1039
 3964TIP3   OH233306   4.136   5.647   1.284 -0.6376 -0.2921 -0.0705
 3964TIP3    H133307   4.193   5.595   1.340  1.6117  0.7201 -1.2467
 3964TIP3    H233308   4.132   5.598   1.202 -0.5357  0.1736 -0.3597
 3965TIP3   OH233309   0.297   3.052  11.319  0.3353 -0.3290 -0.3864
 3965TIP3    H133310   0.345   2.984  11.271  1.1482  0.3990 -0.6463
 3965TIP3    H233311   0.321   3.133  11.274  2.1993  0.5575  2.0127
 3966TIP3   OH233312   0.747   3.096  13.608 -0.3338  0.4644  0.1900
 3966TIP3    H133313   0.733   3.016  13.557 -1.5015  0.7135  0.1123
 3966TIP3    H233314   0.759   3.066  13.698 -1.1545  0.2304  0.2211
 3967TIP3   OH233315   3.324   4.841  17.020 -0.2485  0.2033  0.2956
 3967TIP3    H133316   3.273   4.895  16.960  0.6059  2.6538  1.6010
 3967TIP3    H233317   3.374   4.782  16.964 -0.3737  1.5919 -1.3393
 3968TIP3   OH233318   0.975   4.074  11.866 -0.0669 -0.0366  0.0853
 3968TIP3    H133319   1.011   4.078  11.955  0.8483 -0.4451 -0.2561
 3968TIP3    H233320   0.992   4.161  11.829 -0.5709  0.1784  0.3476
 3969TIP3   OH233321   5.260   4.130  13.228  0.0484 -0.4514 -0.2437
 3969TIP3    H133322   5.320   4.125  13.303  0.1029 -0.3916 -0.2828
 3969TIP3    H233323   5.199   4.199  13.252  1.7826  1.6436 -1.4771
 3970TIP3   OH233324   2.911   3.026   3.928  0.0510  0.0435 -0.3402
 3970TIP3    H133325   2.884   2.935   3.943  2.1881 -0.7696 -1.0438
 3970TIP3    H233326   2.829   3.074   3.921 -1.1431 -1.7850  0.2803
 3971TIP3   OH233327   4.080   6.540  12.640 -0.2044  0.0555 -0.0823
 3971TIP3    H133328   4.157   6.566  12.589  0.1632  0.6864  0.7675
 3971TIP3    H233329   4.008   6.589  12.601  0.5188  2.7575  1.6606
 3972TIP3   OH233330   5.654   5.057   3.587 -0.1878 -0.1478 -0.3085
 3972TIP3    H133331   5.683   5.016   3.669 -0.6101 -0.2451 -0.2047
 3972TIP3    H233332   5.591   4.995   3.551 -0.6669  0.3077 -0.2626
 3973TIP3   OH233333   2.465   0.524   1.355  0.2696  0.2858 -0.0373
 3973TIP3    H133334   2.447   0.444   1.404 -0.3355  1.4964  1.8071
 3973TIP3    H233335   2.384   0.541   1.307  0.8011 -0.8016 -1.3982
 3974TIP3   OH233336   3.050   1.547  13.213  0.6599  0.1632 -0.7060
 3974TIP3    H133337   3.068   1.456  13.234  0.1786  0.0474 -0.7891
 3974TIP3    H233338   3.136   1.584  13.192  0.7604 -0.4758 -1.4709
 3975TIP3   OH233339   6.568   6.396  15.079  0.2227 -0.2070 -0.2865
 3975TIP3    H133340   6.573   6.448  14.999 -0.9042  1.1749  0.4874
 3975TIP3    H233341   6.527   6.455  15.142 -0.7925 -1.9433  0.7286
 3976TIP3   OH233342   0.302   1.664  15.996  0.2284  0.6769 -0.1679
 3976TIP3    H133343   0.280   1.601  16.065 -1.8967  3.2617  1.7445
 3976TIP3    H233344   0.227   1.661  15.936  0.4844  0.7952 -0.4923
 3977TIP3   OH233345   0.775   3.092   4.963 -0.0241  0.0218  0.6206
 3977TIP3    H133346   0.684   3.100   4.991  0.0671  1.0731  0.6876
 3977TIP3    H233347   0.777   3.015   4.907 -0.6054 -0.9999  1.9620
 3978TIP3   OH233348   3.099   4.524   2.009  0.0172  0.3710 -0.1375
 3978TIP3    H133349   3.068   4.613   2.026  0.3908  0.8348 -1.7011
 3978TIP3    H233350   3.023   4.478   1.973 -0.8862 -0.7211  2.9076
 3979TIP3   OH233351   3.497   6.559  14.743 -0.3181  0.0568 -0.0176
 3979TIP3    H133352   3.483   6.575  14.650  0.9437  2.2052  0.1056
 3979TIP3    H233353   3.411   6.534  14.776 -0.3514 -3.3156 -2.1519
 3980TIP3   OH233354   0.028   4.905   0.502  0.0314  0.0022 -0.1495
 3980TIP3    H133355   0.010   4.811   0.494  0.9365 -0.3631  1.5154
 3980TIP3    H233356   0.035   4.920   0.597 -0.1095  1.7584 -0.3789
 3981TIP3   OH233357   4.211   5.959   3.863  0.1839 -0.0141  0.2704
 3981TIP3    H133358   4.286   5.943   3.920 -0.1416  0.7619  0.9469
 3981TIP3    H233359   4.227   5.905   3.786  0.8355 -0.7847  0.9219
 3982TIP3   OH233360   4.682   2.652   1.246  0.9411  0.1964  0.5912
 3982TIP3    H133361   4.621   2.655   1.320 -0.7853 -0.7533 -0.7088
 3982TIP3    H233362   4.676   2.739   1.207 -0.2085 -0.1220  0.0229
 3983TIP3   OH233363   2.901   0.860   6.250 -0.5094  0.8140  0.4495
 3983TIP3    H133364   2.834   0.891   6.311 -0.6844  1.8344 -0.2393
 3983TIP3    H233365   2.926   0.937   6.200  0.7550  0.3264  0.2733
 3984TIP3   OH233366   0.627   4.789  10.875 -0.4302  0.9853  0.1363
 3984TIP3    H133367   0.668   4.705  10.853 -2.0608  0.0434  0.5308
 3984TIP3    H233368   0.609   4.830  10.791  1.4328  1.5109 -0.0443
 3985TIP3   OH233369   5.576   0.180   0.536  0.3739 -0.3159 -0.3819
 3985TIP3    H133370   5.649   0.233   0.503  1.0300 -0.8320  0.2216
 3985TIP3    H233371   5.580   0.190   0.631  0.1442 -0.9752 -0.2981
 3986TIP3   OH233372   2.660   2.771   2.588  0.2205  0.6133  0.0175
 3986TIP3    H133373   2.661   2.769   2.683 -0.0847 -0.3135  0.0067
 3986TIP3    H233374   2.751   2.782   2.563  1.1055 -3.9743  0.3590
 3987TIP3   OH233375   3.384   3.482  12.638  0.1058 -0.5352 -0.0714
 3987TIP3    H133376   3.360   3.402  12.591 -2.1296 -1.7318  2.8060
 3987TIP3    H233377   3.423   3.451  12.720  0.5494  1.3561  0.4946
 3988TIP3   OH233378   6.768   1.156   5.938  0.2458  0.5763  0.2874
 3988TIP3    H133379   6.743   1.248   5.929 -2.4724 -0.0701  0.2325
 3988TIP3    H233380   6.708   1.122   6.005 -0.1387 -1.5923 -1.0780
 3989TIP3   OH233381   5.215   3.638   0.198  0.3219  0.3458  0.1080
 3989TIP3    H133382   5.167   3.694   0.136 -0.8052 -1.4707 -0.7698
 3989TIP3    H233383   5.155   3.566   0.215  1.7676 -0.6670  1.0898
 3990TIP3   OH233384   5.435   2.798   1.332 -0.2195  0.4195  0.7016
 3990TIP3    H133385   5.414   2.891   1.336 -1.0479  0.2495  0.5282
 3990TIP3    H233386   5.350   2.755   1.327  0.1563 -0.3535  0.9176
 3991TIP3   OH233387   4.307   4.087   4.320 -0.5283 -0.3453 -0.0601
 3991TIP3    H133388   4.264   4.155   4.371  0.4196  0.2680 -0.0464
 3991TIP3    H233389   4.383   4.063   4.373 -0.1148 -0.4519 -0.6954
 3992TIP3   OH233390   4.176   1.053   1.913 -0.3261  0.2382  0.0794
 3992TIP3    H133391   4.219   0.984   1.862  0.1513  1.3608 -1.0949
 3992TIP3    H233392   4.111   1.091   1.853 -0.4346  0.9449  0.6265
 3993TIP3   OH233393   0.380   5.202   4.372 -0.1324  0.4173 -0.2996
 3993TIP3    H133394   0.390   5.269   4.305 -0.5976  1.6809  0.8412
 3993TIP3    H233395   0.304   5.231   4.424 -0.4400 -1.0797  0.1269
 3994TIP3   OH233396   4.292   0.111  13.956  0.2104  0.4984  0.1221
 3994TIP3    H133397   4.223   0.125  14.021  1.2587  3.6222  0.7462
 3994TIP3    H233398   4.338   0.033  13.987 -1.7590 -0.4707  0.8039
 3995TIP3   OH233399   5.513   5.333  15.084  0.6743 -0.6182 -0.1794
 3995TIP3    H133400   5.459   5.300  15.011 -0.0376 -0.4592  0.2709
 3995TIP3    H233401   5.479   5.420  15.102 -0.1296 -1.2132  1.3031
 3996TIP3   OH233402   3.589   5.682  10.986 -0.0426 -0.2923 -0.0059
 3996TIP3    H133403   3.629   5.711  11.068  0.8158 -0.4924 -0.3392
 3996TIP3    H233404   3.528   5.612  11.012  0.0141 -0.1615  0.4864
 3997TIP3   OH233405   1.714   0.166  12.346  0.3312  0.7547  0.5580
 3997TIP3    H133406   1.682   0.125  12.426 -1.2089  0.8024  0.0101
 3997TIP3    H233407   1.775   0.233  12.376 -0.6330  1.1473  1.7407
 3998TIP3   OH233408   1.568   3.117   4.073  0.2218 -0.0377 -0.7082
 3998TIP3    H133409   1.498   3.100   4.009  0.7866  0.9407 -1.6251
 3998TIP3    H233410   1.535   3.080   4.155 -0.1248 -2.2400 -1.7523
 3999TIP3   OH233411   6.711   2.851  11.743 -0.2722  0.1279  0.2182
 3999TIP3    H133412   6.763   2.865  11.664  0.6593  0.9925  0.9675
 3999TIP3    H233413   6.772   2.812  11.805 -1.6518 -3.2557 -0.3076
 4000TIP3   OH233414   5.762   0.630  13.507 -0.0057  0.0870  0.4544
 4000TIP3    H133415   5.668   0.636  13.495  0.1212 -0.4692 -0.9484
 4000TIP3    H233416   5.777   0.661  13.597 -1.4014  1.2117  0.3251
 4001TIP3   OH233417   5.284   3.295   6.557  0.2650 -0.7628 -0.1303
 4001TIP3    H133418   5.247   3.246   6.484  1.3419  0.2350 -1.4008
 4001TIP3    H233419   5.336   3.364   6.515  0.9975 -0.2328  1.5858
 4002TIP3   OH233420   4.161   2.334   1.683 -0.2038 -0.4138  0.0290
 4002TIP3    H133421   4.239   2.309   1.734  1.6887 -0.4653 -2.6662
 4002TIP3    H233422   4.089   2.287   1.725  0.8748  0.7274  3.5080
 4003TIP3   OH233423   1.180   0.054   5.329  0.6003 -0.3183  0.3043
 4003TIP3    H133424   1.086   0.053   5.344  0.2761 -2.9486 -1.2350
 4003TIP3    H233425   1.216  -0.004   5.396  1.0715  0.2307  0.5351
 4004TIP3   OH233426   2.716   2.963   0.964 -0.3872  0.1334  0.0138
 4004TIP3    H133427   2.629   2.971   1.004 -0.4462  1.2823 -0.3084
 4004TIP3    H233428   2.713   3.023   0.890  0.6104  0.0096 -0.1277
 4005TIP3   OH233429   6.544   0.247   5.858  0.4433 -0.2487  0.5473
 4005TIP3    H133430   6.467   0.259   5.803 -0.9556 -1.5755  2.0866
 4005TIP3    H233431   6.617   0.281   5.806 -1.3122  2.2864 -0.4751
 4006TIP3   OH233432   3.787   1.722  13.474  0.0794 -0.1134  0.1272
 4006TIP3    H133433   3.695   1.732  13.449  0.2135  1.0146  0.0177
 4006TIP3    H233434   3.784   1.690  13.564 -0.4127 -0.4070  0.0094
 4007TIP3   OH233435   3.036   4.491  13.175  0.3597  0.0893  0.5943
 4007TIP3    H133436   3.072   4.402  13.183  0.4236  0.2398  2.3138
 4007TIP3    H233437   3.086   4.543  13.238 -0.2846  1.1591  0.2478
 4008TIP3   OH233438   3.198   6.757  13.519 -0.3305 -0.2196  0.1949
 4008TIP3    H133439   3.167   6.668  13.505  2.2838 -1.0746 -0.8001
 4008TIP3    H233440   3.164   6.806  13.444 -0.6919 -0.6947  0.0414
 4009TIP3   OH233441   0.447   5.091   1.073 -0.0315 -0.0541 -0.2446
 4009TIP3    H133442   0.426   5.159   1.009  1.0494  0.8937  0.3829
 4009TIP3    H233443   0.361   5.061   1.104 -0.5317  1.2710 -0.2746
 4010TIP3   OH233444   2.599   5.588   1.837  0.1677 -0.4188  0.1257
 4010TIP3    H133445   2.512   5.553   1.816  0.0069 -1.0269  1.7036
 4010TIP3    H233446   2.659   5.515   1.819  0.5168  0.2754 -1.8388
 4011TIP3   OH233447   0.282   6.712   6.223  0.3224 -0.0999 -0.0019
 4011TIP3    H133448   0.321   6.700   6.310  0.9202 -1.0138 -0.3777
 4011TIP3    H233449   0.252   6.802   6.223  1.6845  0.3903  0.6261
 4012TIP3   OH233450   1.909   6.280  13.140  0.4081 -0.2690 -0.2170
 4012TIP3    H133451   1.855   6.252  13.067  0.5331 -0.1202 -0.3687
 4012TIP3    H233452   1.984   6.323  13.099 -0.1728  1.0125  0.0213
 4013TIP3   OH233453   2.510   2.471  14.154  0.2930  0.5948 -0.4275
 4013TIP3    H133454   2.415   2.480  14.159  0.2114 -0.7438  2.9645
 4013TIP3    H233455   2.544   2.553  14.192  0.4452  0.3641 -0.0653
 4014TIP3   OH233456   4.676   3.698   2.946  0.4417 -0.3294  0.9468
 4014TIP3    H133457   4.754   3.737   2.984  0.3340 -0.6260  1.4849
 4014TIP3    H233458   4.632   3.656   3.020 -1.4155  1.7412  1.1053
 4015TIP3   OH233459   3.105   1.638   3.621 -0.9684 -0.2211  0.2616
 4015TIP3    H133460   3.066   1.551   3.613  0.5279 -0.7865 -1.6647
 4015TIP3    H233461   3.183   1.634   3.566 -2.1880  3.1285 -1.9862
 4016TIP3   OH233462   5.309   4.565   5.034 -0.0499 -0.4976  0.7690
 4016TIP3    H133463   5.365   4.627   4.988  0.3569  0.6907  2.7332
 4016TIP3    H233464   5.223   4.574   4.993  0.5204 -0.2312 -0.3907
 4017TIP3   OH233465   1.949   1.623   1.690 -0.0530  0.0475  0.1950
 4017TIP3    H133466   1.860   1.653   1.708 -1.2088 -2.9069  0.0259
 4017TIP3    H233467   1.976   1.671   1.612 -1.3027  1.3230  0.5146
 4018TIP3   OH233468   6.388   1.183   2.634  0.1219 -0.7404 -0.3140
 4018TIP3    H133469   6.373   1.171   2.728  2.6301  1.2265  0.4495
 4018TIP3    H233470   6.425   1.099   2.606  1.5398 -0.6349  1.0486
 4019TIP3   OH233471   4.219   5.174  13.334  0.0052 -0.1780 -0.4453
 4019TIP3    H133472   4.136   5.185  13.380 -0.0517 -0.7698 -0.4051
 4019TIP3    H233473   4.200   5.202  13.244  0.4165  2.1360  0.1026
 4020TIP3   OH233474   4.784   6.438  14.499 -0.0215  0.7642 -0.3094
 4020TIP3    H133475   4.781   6.457  14.405 -1.2160 -1.4302 -0.7762
 4020TIP3    H233476   4.695   6.453  14.530  0.3356  1.3642  0.4707
 4021TIP3   OH233477   4.707   4.655   1.249  0.6178 -0.4562  0.0075
 4021TIP3    H133478   4.734   4.671   1.159  0.5202  0.0289  0.0622
 4021TIP3    H233479   4.773   4.698   1.302  0.4231 -0.3415  0.1590
 4022TIP3   OH233480   6.300   4.679   4.234  0.0748  0.0471  0.4734
 4022TIP3    H133481   6.292   4.613   4.303  1.0210 -2.0517 -1.3248
 4022TIP3    H233482   6.276   4.634   4.154  0.1618  2.0906 -0.7755
 4023TIP3   OH233483   3.854   3.261  14.588 -0.9473  0.1757  0.1953
 4023TIP3    H133484   3.774   3.304  14.558 -1.2471  1.4686  2.5888
 4023TIP3    H233485   3.917   3.332  14.597  0.0315 -0.6144 -0.2098
 4024TIP3   OH233486   3.112   2.385   1.543  0.2133 -0.5597  0.1468
 4024TIP3    H133487   3.164   2.371   1.464  0.8527  0.6731  0.3211
 4024TIP3    H233488   3.149   2.326   1.608  2.0512  0.9511  0.5399
 4025TIP3   OH233489   5.450   5.259   5.203 -0.5197 -0.1419 -0.1010
 4025TIP3    H133490   5.431   5.296   5.117  1.1350  1.6469  0.2408
 4025TIP3    H233491   5.512   5.188   5.185  1.1800  1.3197 -0.3261
 4026TIP3   OH233492   0.021   1.258  15.846 -0.1040  0.1006  0.5510
 4026TIP3    H133493   0.087   1.196  15.816 -0.1237  0.4460 -0.2150
 4026TIP3    H233494   0.004   1.232  15.937  0.8440 -0.1962  0.6583
 4027TIP3   OH233495   0.602   3.681  11.543 -0.2358 -0.3050 -0.1046
 4027TIP3    H133496   0.611   3.663  11.450 -0.1862  2.4657 -0.7234
 4027TIP3    H233497   0.508   3.690  11.557 -0.2250 -0.4228  0.0514
 4028TIP3   OH233498   4.568   4.193   5.369 -0.0398 -0.0600  0.4702
 4028TIP3    H133499   4.661   4.193   5.390 -0.1719  1.8893  1.2381
 4028TIP3    H233500   4.563   4.225   5.279  0.0376 -0.6433  0.2507
 4029TIP3   OH233501   4.043   2.131  15.711  0.5483 -0.3041  0.3213
 4029TIP3    H133502   4.093   2.088  15.781  0.6703 -0.5329  0.0939
 4029TIP3    H233503   4.093   2.210  15.692  0.6498 -0.3671  0.3211
 4030TIP3   OH233504   4.364   1.708  15.928  0.5066  0.3404 -0.2026
 4030TIP3    H133505   4.369   1.622  15.969  0.3453 -0.2136 -1.3110
 4030TIP3    H233506   4.443   1.714  15.875  0.0505  0.4730 -0.8805
 4031TIP3   OH233507   4.416   2.952  13.200 -0.1275  0.3263  0.0981
 4031TIP3    H133508   4.499   2.991  13.171  0.2223  0.0948  0.7644
 4031TIP3    H233509   4.402   2.987  13.288  0.2546 -1.1142  0.7613
 4032TIP3   OH233510   5.894   5.536   0.043  0.2103  0.4133  0.1920
 4032TIP3    H133511   5.870   5.475  -0.027  2.1180  0.6704 -0.7365
 4032TIP3    H233512   5.944   5.484   0.105  0.0133  0.5688  0.4844
 4033TIP3   OH233513   2.814   6.540   1.585 -0.1294  0.0873  0.6903
 4033TIP3    H133514   2.812   6.450   1.550  0.0039 -0.0603  1.0591
 4033TIP3    H233515   2.905   6.568   1.573 -0.2344  0.2767  0.3203
 4034TIP3   OH233516   1.958   2.269   0.936  0.1794 -0.1217 -0.1099
 4034TIP3    H133517   2.020   2.197   0.949 -0.8430 -0.8959  0.6818
 4034TIP3    H233518   1.877   2.225   0.909 -0.7432  0.6292  1.3361
 4035TIP3   OH233519   0.268   6.144  15.422 -0.5535 -0.0394  0.1275
 4035TIP3    H133520   0.224   6.216  15.375 -1.3386  0.4197  1.5143
 4035TIP3    H233521   0.202   6.074  15.425 -0.4906 -0.0824  0.4916
 4036TIP3   OH233522   3.937   4.304  16.396  0.3725 -0.5703  0.0598
 4036TIP3    H133523   3.931   4.209  16.408  1.5876 -0.5684  0.9108
 4036TIP3    H233524   3.980   4.335  16.476  0.4552  0.6347 -0.4356
 4037TIP3   OH233525   3.875   4.831   1.437  0.4361  0.4070 -0.5059
 4037TIP3    H133526   3.911   4.743   1.434  5.7537  2.2696 -0.9014
 4037TIP3    H233527   3.870   4.853   1.530  1.9569  0.6377 -0.4661
 4038TIP3   OH233528   6.276   1.161   3.889 -0.0542  0.5218  0.2032
 4038TIP3    H133529   6.252   1.096   3.955 -0.7933  1.4644  0.9045
 4038TIP3    H233530   6.195   1.210   3.874  0.1805  0.5423 -1.1796
 4039TIP3   OH233531   4.852   2.833   5.773  0.2976 -0.3397 -0.0244
 4039TIP3    H133532   4.802   2.788   5.705  0.2523  1.0875 -0.9671
 4039TIP3    H233533   4.863   2.767   5.842 -1.6795 -1.1140 -0.3896
 4040TIP3   OH233534   6.578   3.310  14.265  0.1916 -0.6867 -0.4298
 4040TIP3    H133535   6.493   3.269  14.283 -0.2917 -0.0364 -1.1636
 4040TIP3    H233536   6.627   3.300  14.347 -0.9926 -0.1074  0.3769
 4041TIP3   OH233537   1.612   0.580   1.359 -0.0104  0.4068  0.5884
 4041TIP3    H133538   1.647   0.490   1.359 -1.5536 -0.2254  0.2768
 4041TIP3    H233539   1.517   0.569   1.367 -0.5911  1.8526 -2.6909
 4042TIP3   OH233540   4.572   1.958  14.080 -0.7514 -0.5275 -0.2620
 4042TIP3    H133541   4.608   2.033  14.034 -3.1073  1.0274  0.2866
 4042TIP3    H233542   4.590   1.976  14.173 -1.3783 -0.5959 -0.1222
 4043TIP3   OH233543   2.865   3.986   4.730 -0.0733 -0.0701  0.2000
 4043TIP3    H133544   2.808   4.063   4.733  1.6818  1.3725 -1.0632
 4043TIP3    H233545   2.937   4.012   4.673 -0.1235 -3.1803 -1.4826
 4044TIP3   OH233546   4.971   1.627  10.399 -0.0270 -0.0043  0.2214
 4044TIP3    H133547   5.042   1.563  10.405 -0.8644 -1.6927 -4.0016
 4044TIP3    H233548   5.013   1.707  10.366  0.4908  0.5607  2.1388
 4045TIP3   OH233549   6.696   3.116   5.665  0.1775 -0.1448 -0.3500
 4045TIP3    H133550   6.728   3.098   5.754 -0.0718 -1.6069 -0.5325
 4045TIP3    H233551   6.604   3.139   5.677  0.2819  0.1994 -0.1862
 4046TIP3   OH233552   6.119   3.936   3.365 -0.2273 -0.8670 -0.0356
 4046TIP3    H133553   6.079   3.973   3.444 -0.7487 -0.5325 -0.4488
 4046TIP3    H233554   6.140   3.846   3.389 -0.6242 -0.8471  0.4086
 4047TIP3   OH233555   2.073   2.774  11.960  0.3553  0.0867  0.3921
 4047TIP3    H133556   2.137   2.711  11.994  2.0152  1.6246  0.3132
 4047TIP3    H233557   2.051   2.829  12.036  0.7995  0.8911 -0.0447
 4048TIP3   OH233558   1.693   0.114   5.861 -0.2040  0.8312  0.5981
 4048TIP3    H133559   1.635   0.144   5.931  0.0862 -0.1404  1.2787
 4048TIP3    H233560   1.767   0.074   5.906 -0.8327 -1.4063 -0.2005
 4049TIP3   OH233561   6.248   3.596  13.635 -0.2093  0.3033  0.0696
 4049TIP3    H133562   6.343   3.595  13.642 -0.1552  1.2644 -0.4242
 4049TIP3    H233563   6.225   3.505  13.613  0.5752  0.0404  0.3207
 4050TIP3   OH233564   1.810   3.814  10.445  0.1982  0.0630  0.0250
 4050TIP3    H133565   1.745   3.855  10.388  1.2095  0.4974 -0.8556
 4050TIP3    H233566   1.882   3.791  10.386  1.6244  1.2530  1.2384
 4051TIP3   OH233567   4.174   3.347  13.421  0.1423 -0.2546  0.0442
 4051TIP3    H133568   4.212   3.429  13.389 -1.2558  0.8478  1.0241
 4051TIP3    H233569   4.187   3.284  13.351  0.3528  1.0910 -1.1630
 4052TIP3   OH233570   5.362   6.369   0.397  0.1165 -0.0662  0.3829
 4052TIP3    H133571   5.396   6.459   0.392  0.7543 -0.3782 -2.0054
 4052TIP3    H233572   5.440   6.314   0.399 -0.2719 -0.6183  0.7142
 4053TIP3   OH233573   0.500   6.268   4.098 -0.7825 -0.3149  0.5994
 4053TIP3    H133574   0.467   6.342   4.149  0.6870  0.7060  0.1476
 4053TIP3    H233575   0.573   6.234   4.149  1.6417  1.6140 -1.3024
 4054TIP3   OH233576   5.575   0.999   0.428 -1.0932  0.3557 -0.0425
 4054TIP3    H133577   5.539   1.012   0.516  0.8613  1.2544  0.6813
 4054TIP3    H233578   5.659   0.954   0.443 -1.8722 -1.7834 -1.6566
 4055TIP3   OH233579   5.144   4.001  15.129  0.3048 -0.3581  0.0675
 4055TIP3    H133580   5.219   3.947  15.106 -0.0601 -0.6427 -0.4622
 4055TIP3    H233581   5.156   4.081  15.077 -0.4423 -0.9410 -1.0423
 4056TIP3   OH233582   1.303   1.382  14.319  0.4507 -1.0643 -0.9478
 4056TIP3    H133583   1.303   1.478  14.326 -1.2676 -1.0778 -0.2998
 4056TIP3    H233584   1.211   1.357  14.327  0.9906 -2.8747  0.4260
 4057TIP3   OH233585   5.234   6.651   5.699 -0.0266  0.0122 -0.4147
 4057TIP3    H133586   5.311   6.666   5.645  0.8441 -0.6182  0.6093
 4057TIP3    H233587   5.233   6.724   5.761  0.7849 -0.8778  0.7008
 4058TIP3   OH233588   2.490   0.445  12.021 -0.2481 -0.2046  0.0171
 4058TIP3    H133589   2.505   0.463  11.929 -0.4430  0.6409  0.1489
 4058TIP3    H233590   2.555   0.379  12.043  0.1521 -0.0169 -0.5894
 4059TIP3   OH233591   6.594   5.270   1.637 -0.2673 -0.0271 -0.1366
 4059TIP3    H133592   6.653   5.257   1.711  1.3287  1.0105 -1.1580
 4059TIP3    H233593   6.628   5.213   1.569 -1.9084 -1.2159 -0.0282
 4060TIP3   OH233594   5.392   0.820   2.190  0.1043  0.3936 -0.0313
 4060TIP3    H133595   5.308   0.865   2.189 -0.0533  0.1013  0.0395
 4060TIP3    H233596   5.443   0.862   2.121 -0.4497 -0.1011 -0.7512
 4061TIP3   OH233597   3.566   4.779   2.431  0.0023  0.2501 -0.7310
 4061TIP3    H133598   3.622   4.799   2.356 -0.0051  0.1995 -0.7498
 4061TIP3    H233599   3.479   4.768   2.394  0.0842 -0.2631 -0.7810
 4062TIP3   OH233600   4.119   3.003   6.164 -0.4093 -0.3400 -0.6046
 4062TIP3    H133601   4.134   3.070   6.231  1.0946  1.2761 -2.4633
 4062TIP3    H233602   4.027   3.015   6.139 -0.6799 -0.2391  0.3614
 4063TIP3   OH233603   5.003   4.324  13.037 -0.0793  0.3435  0.1126
 4063TIP3    H133604   4.914   4.295  13.055  0.5136 -0.9931  0.9836
 4063TIP3    H233605   5.014   4.403  13.090 -0.8009  0.6505 -0.1760
 4064TIP3   OH233606   2.767   0.490   1.483 -0.4305  0.6924  0.0789
 4064TIP3    H133607   2.774   0.444   1.399  0.7236  0.9140  0.0350
 4064TIP3    H233608   2.701   0.441   1.531 -0.6290  0.1569 -0.7122
 4065TIP3   OH233609   1.777   3.624  11.955  1.0928 -0.2363  0.3599
 4065TIP3    H133610   1.823   3.688  11.902 -0.6649  0.8469  0.0516
 4065TIP3    H233611   1.845   3.583  12.008  2.1941  2.5648  1.2846
 4066TIP3   OH233612   2.021   5.417   2.418 -0.1192  0.3056  0.3860
 4066TIP3    H133613   2.064   5.407   2.333 -1.0192  0.5216 -0.1136
 4066TIP3    H233614   1.938   5.461   2.397 -0.7474 -0.4310  1.2578
 4067TIP3   OH233615   1.230   3.095  15.038 -0.1456 -0.0585 -0.3657
 4067TIP3    H133616   1.162   3.060  14.981 -0.3406  0.2589 -0.3298
 4067TIP3    H233617   1.186   3.107  15.123  0.4186 -1.5863  0.1829
 4068TIP3   OH233618   6.613   3.149  13.251 -0.5208  0.6577  0.0971
 4068TIP3    H133619   6.670   3.177  13.179  0.3968 -0.5110  0.3316
 4068TIP3    H233620   6.663   3.171  13.330  0.1656 -1.3863  0.2884
 4069TIP3   OH233621   2.667   5.606  16.164 -0.6882  0.1661 -0.3284
 4069TIP3    H133622   2.608   5.681  16.157  0.2981  1.1004  0.9470
 4069TIP3    H233623   2.618   5.534  16.124 -2.3113  1.1166 -0.1570
 4070TIP3   OH233624   1.394   2.807  10.837  0.0110  0.1724 -0.6504
 4070TIP3    H133625   1.453   2.866  10.791  0.9672 -1.7294 -2.0121
 4070TIP3    H233626   1.419   2.720  10.806 -1.5102 -0.9377  1.0606
 4071TIP3   OH233627   1.283   0.840  14.279 -0.5963 -0.4740 -0.4157
 4071TIP3    H133628   1.326   0.837  14.365  0.3409 -0.3863 -0.8695
 4071TIP3    H233629   1.220   0.768  14.282 -1.4739  0.3080  0.8072
 4072TIP3   OH233630   6.594   4.724   0.440  0.1335 -0.1612  0.2337
 4072TIP3    H133631   6.538   4.782   0.491 -0.2965 -0.3879  0.0268
 4072TIP3    H233632   6.567   4.738   0.349  1.3096  0.6968 -0.0093
 4073TIP3   OH233633   2.581   1.196  12.043 -0.0898 -0.2265 -0.2239
 4073TIP3    H133634   2.508   1.215  12.102 -0.4080 -1.0087 -0.3546
 4073TIP3    H233635   2.601   1.104  12.059 -1.4764 -1.0466 -2.7137
 4074TIP3   OH233636   2.124   4.148   4.673 -0.1284 -0.2411  0.3789
 4074TIP3    H133637   2.202   4.123   4.723  0.1049 -1.1904 -0.4350
 4074TIP3    H233638   2.158   4.178   4.589 -0.7062 -3.0886 -0.9838
 4075TIP3   OH233639   5.201   6.121   3.266 -0.3840 -0.1050  0.5023
 4075TIP3    H133640   5.290   6.143   3.239  0.0858 -0.1431  1.9033
 4075TIP3    H233641   5.212   6.083   3.353 -1.6928 -0.9642  0.3130
 4076TIP3   OH233642   2.593   3.632   0.525 -0.1521  0.2257  0.6673
 4076TIP3    H133643   2.644   3.621   0.605 -0.0550  0.8463  0.7020
 4076TIP3    H233644   2.644   3.694   0.473 -0.8543  0.8508  0.6981
 4077TIP3   OH233645   0.009   2.833  13.961 -0.1685 -0.4191  0.2703
 4077TIP3    H133646   0.053   2.833  13.876  1.1589 -2.2058  0.8888
 4077TIP3    H233647  -0.019   2.924  13.974  0.7331  0.1561 -1.4891
 4078TIP3   OH233648   1.942   1.667  10.770 -0.2759 -0.5939 -0.0162
 4078TIP3    H133649   2.036   1.666  10.783 -0.1367  2.4763 -0.0685
 4078TIP3    H233650   1.925   1.594  10.710  1.9273 -1.6523  0.5534
 4079TIP3   OH233651   3.295   4.502   4.928 -0.0807 -0.7486  0.5457
 4079TIP3    H133652   3.299   4.453   4.846 -0.5133  0.7267 -0.3966
 4079TIP3    H233653   3.203   4.501   4.952 -0.4066  1.1059 -0.4708
 4080TIP3   OH233654   4.420   1.721   5.394  0.4900  0.3678  0.2121
 4080TIP3    H133655   4.402   1.638   5.438 -0.8159  0.4678 -0.0929
 4080TIP3    H233656   4.514   1.735   5.406  0.5436 -0.6614  1.1157
 4081TIP3   OH233657   3.755   5.667  15.875 -0.2350 -0.2193 -0.3095
 4081TIP3    H133658   3.731   5.662  15.968  0.2433 -0.2964 -0.1867
 4081TIP3    H233659   3.822   5.599  15.864 -1.5035 -1.4148 -1.0957
 4082TIP3   OH233660   4.004   0.037   3.876 -0.6722  0.2500 -1.0151
 4082TIP3    H133661   3.941   0.026   3.804 -1.3188 -0.5429 -0.3633
 4082TIP3    H233662   3.951   0.023   3.955  0.3507 -0.5607 -0.4548
 4083TIP3   OH233663   0.548   2.132   0.365 -0.6555 -0.0924  0.2259
 4083TIP3    H133664   0.624   2.130   0.423  1.5384  1.2418 -2.3350
 4083TIP3    H233665   0.516   2.042   0.363  1.4613 -0.9086  0.7319
 4084TIP3   OH233666   2.871   1.611   3.974  0.0194 -0.0904  0.3442
 4084TIP3    H133667   2.917   1.643   4.052  1.1206 -0.5186 -0.1099
 4084TIP3    H233668   2.884   1.680   3.909 -0.8833  0.2581  0.5212
 4085TIP3   OH233669   6.424   6.257   1.523  0.3849  0.4181 -0.0197
 4085TIP3    H133670   6.356   6.285   1.462 -1.0462 -1.0724  0.8175
 4085TIP3    H233671   6.477   6.195   1.474 -1.8933 -2.2505  0.6709
 4086TIP3   OH233672   3.785   6.207   3.730 -0.5989  0.0422 -0.1422
 4086TIP3    H133673   3.879   6.196   3.713 -0.7730  0.4484 -1.5153
 4086TIP3    H233674   3.746   6.124   3.701 -0.7193  0.0844 -0.0991
 4087TIP3   OH233675   2.878   4.433   3.057  0.4692 -0.3485  0.2453
 4087TIP3    H133676   2.861   4.489   2.980 -2.5133 -0.9548  0.3519
 4087TIP3    H233677   2.868   4.492   3.131 -3.4697 -0.9344  0.4037
 4088TIP3   OH233678   0.092   6.747   5.273  0.6039  0.0647  0.1736
 4088TIP3    H133679   0.106   6.673   5.333  0.8395 -2.4504 -2.7133
 4088TIP3    H233680   0.159   6.811   5.298  0.6095 -0.7847  2.6180
 4089TIP3   OH233681   4.515   0.074  10.688  0.0864  0.2461  0.4974
 4089TIP3    H133682   4.591   0.133  10.689 -0.1337  0.5654 -0.3526
 4089TIP3    H233683   4.551  -0.011  10.663  0.3239  0.1389  1.1840
 4090TIP3   OH233684   5.599   5.239  12.046  0.3422  0.0132 -0.1263
 4090TIP3    H133685   5.535   5.191  11.995  0.9890 -0.7585 -0.2370
 4090TIP3    H233686   5.549   5.308  12.090 -0.8306 -1.4911  0.9956
 4091TIP3   OH233687   4.679   1.682  11.773 -0.3484 -0.4447 -0.3441
 4091TIP3    H133688   4.740   1.637  11.714  0.1589 -1.7828  1.1219
 4091TIP3    H233689   4.719   1.673  11.860 -1.6388  0.4471  0.3715
 4092TIP3   OH233690   4.602   3.155  12.623 -0.2261 -0.2557 -0.7878
 4092TIP3    H133691   4.553   3.235  12.603 -0.9182 -0.1476  1.1948
 4092TIP3    H233692   4.619   3.159  12.717  2.8867 -0.7162 -1.2341
 4093TIP3   OH233693   6.515   2.914  13.940  0.3057  0.3906  0.4325
 4093TIP3    H133694   6.446   2.973  13.910  0.5832  0.3704 -0.2661
 4093TIP3    H233695   6.486   2.885  14.027  0.5092  2.1122  1.1113
 4094TIP3   OH233696   5.880   1.174  14.329  0.1427  0.5018  0.3393
 4094TIP3    H133697   5.791   1.190  14.296  0.3447 -0.0801 -0.5073
 4094TIP3    H233698   5.869   1.162  14.423 -0.3845  2.7906  0.6458
 4095TIP3   OH233699   5.895   4.097   4.968  0.2344 -0.6883 -0.3799
 4095TIP3    H133700   5.833   4.078   4.898 -0.6160  0.7394 -0.0593
 4095TIP3    H233701   5.977   4.114   4.923 -0.3642  0.4828 -1.0918
 4096TIP3   OH233702   1.710   4.699   0.331 -0.1782 -0.0894 -0.3276
 4096TIP3    H133703   1.647   4.705   0.403 -0.1443  1.4090 -0.3935
 4096TIP3    H233704   1.686   4.770   0.272  0.5856 -0.5092 -1.1661
 4097TIP3   OH233705   6.365   0.749   5.166  0.4530 -0.1368  0.5195
 4097TIP3    H133706   6.379   0.815   5.098  1.6474 -0.6848  0.2079
 4097TIP3    H233707   6.447   0.700   5.169 -0.1860 -1.2037  1.1909
 4098TIP3   OH233708   5.511   4.496  13.141 -0.3472 -0.1227 -0.3207
 4098TIP3    H133709   5.485   4.564  13.079  2.2559  0.6949 -0.6000
 4098TIP3    H233710   5.547   4.426  13.086  0.4502 -0.0981  0.1616
 4099TIP3   OH233711   1.277   4.396  10.767 -0.1670  0.2010  0.0954
 4099TIP3    H133712   1.364   4.423  10.739 -0.5644  1.0519 -0.3764
 4099TIP3    H233713   1.234   4.368  10.686 -0.2529 -0.4520  0.3615
 4100TIP3   OH233714   4.562   4.909  12.646  0.2819 -0.0390 -0.0344
 4100TIP3    H133715   4.608   4.865  12.718  1.2456  0.5417 -0.2763
 4100TIP3    H233716   4.579   4.854  12.570  1.0949  0.4841 -0.2427
 4101TIP3   OH233717   6.158   0.362  16.419 -0.4211 -0.8147  0.5171
 4101TIP3    H133718   6.226   0.311  16.462  0.8850  0.6415  0.2957
 4101TIP3    H233719   6.163   0.448  16.460 -2.0594 -0.6347  0.3937
 4102TIP3   OH233720   4.955   1.457  13.998  0.0294  0.0945 -0.3074
 4102TIP3    H133721   4.919   1.371  13.976 -0.2922 -0.0979  0.9345
 4102TIP3    H233722   4.984   1.493  13.914 -0.2437 -1.0353 -0.8971
 4103TIP3   OH233723   2.876   1.261   4.043  0.3782  0.0397 -0.1086
 4103TIP3    H133724   2.893   1.281   3.951 -1.6921  1.5487 -0.2463
 4103TIP3    H233725   2.781   1.272   4.052  0.3405 -1.3848  1.9265
 4104TIP3   OH233726   4.036   0.319   3.259 -0.2150  0.2344  0.4581
 4104TIP3    H133727   4.062   0.238   3.302 -1.7932 -0.2258  0.6028
 4104TIP3    H233728   4.023   0.381   3.331 -0.1330  0.2849  0.4298
 4105TIP3   OH233729   6.247   0.493   3.311 -0.2088 -0.0130 -0.1803
 4105TIP3    H133730   6.271   0.584   3.328 -0.8373  0.0372  0.4840
 4105TIP3    H233731   6.300   0.442   3.371 -0.7658  0.0078  0.3391
 4106TIP3   OH233732   3.959   6.678  12.404 -0.4276  0.2990 -0.1571
 4106TIP3    H133733   3.871   6.717  12.395 -0.9992 -0.4574  1.7541
 4106TIP3    H233734   3.947   6.587  12.378  0.0636  0.4615 -0.9737
 4107TIP3   OH233735   0.369   2.850   0.374 -0.3105 -0.6458  0.5282
 4107TIP3    H133736   0.449   2.835   0.324  0.6151 -0.1731  1.8027
 4107TIP3    H233737   0.366   2.778   0.437 -1.3888 -1.1663 -0.0943
 4108TIP3   OH233738   4.688   1.878  15.869 -0.5880 -0.0044  0.0136
 4108TIP3    H133739   4.703   1.968  15.841 -0.3168 -0.2581 -0.6644
 4108TIP3    H233740   4.761   1.829  15.832 -1.1425 -0.6362 -0.2481
 4109TIP3   OH233741   3.422   6.133  13.365 -0.0908  0.1850  0.1900
 4109TIP3    H133742   3.445   6.206  13.307  0.2410 -0.0156  0.0685
 4109TIP3    H233743   3.416   6.057  13.308  2.1699 -0.4129  0.6575
 4110TIP3   OH233744   0.837   0.085  14.674  0.1555 -0.7433 -0.5515
 4110TIP3    H133745   0.808   0.016  14.733  2.2440 -0.8495  0.4450
 4110TIP3    H233746   0.809   0.056  14.587 -2.8984 -0.6371  0.2894
 4111TIP3   OH233747   0.775   5.925  13.087 -0.6158 -0.1555  0.0286
 4111TIP3    H133748   0.780   5.883  13.001  0.4245 -1.3431  0.6311
 4111TIP3    H233749   0.789   6.018  13.068  4.9189 -0.8111 -0.7680
 4112TIP3   OH233750   5.039   3.063  13.218 -0.0240  0.7477  0.4522
 4112TIP3    H133751   5.080   2.979  13.196 -1.0918  0.4296 -0.3851
 4112TIP3    H233752   5.094   3.128  13.175 -0.7372  0.2817 -1.2610
 4113TIP3   OH233753   6.336   3.416  15.259 -0.8792 -0.2295 -0.6985
 4113TIP3    H133754   6.322   3.464  15.341  0.6892  0.5817 -0.8574
 4113TIP3    H233755   6.306   3.328  15.278 -1.3431  0.1536  0.4819
 4114TIP3   OH233756   4.311   5.009   4.129  0.6944  0.2225  0.5714
 4114TIP3    H133757   4.340   5.074   4.193 -0.5287 -0.3865  1.7889
 4114TIP3    H233758   4.260   5.060   4.066  1.4934  0.7548  0.3463
 4115TIP3   OH233759   1.864   6.689   1.921 -0.1072  0.0835 -0.3717
 4115TIP3    H133760   1.955   6.698   1.947  0.0535  1.1056 -1.2504
 4115TIP3    H233761   1.856   6.597   1.895 -0.1103 -0.8419  2.4952
 4116TIP3   OH233762   2.209   4.140  11.093 -0.1876 -0.5490  0.7578
 4116TIP3    H133763   2.181   4.049  11.086 -0.1108 -0.5235  0.0562
 4116TIP3    H233764   2.171   4.182  11.016 -2.5260  0.6243  2.4271
 4117TIP3   OH233765   1.275   0.529  16.869 -0.2039  0.6222 -0.3713
 4117TIP3    H133766   1.263   0.434  16.872  2.6199  0.2278  1.1378
 4117TIP3    H233767   1.189   0.564  16.893 -1.1765 -1.5169 -0.4435
 4118TIP3   OH233768   2.476   1.126  11.168 -0.1855  0.1244 -0.4091
 4118TIP3    H133769   2.484   1.212  11.127  0.9156  0.7248  0.9843
 4118TIP3    H233770   2.555   1.079  11.142  0.2460  0.3102  0.5136
 4119TIP3   OH233771   4.392   3.911  15.216 -0.0301  0.2395 -0.2047
 4119TIP3    H133772   4.386   3.892  15.122 -0.0974  1.8514 -0.5496
 4119TIP3    H233773   4.478   3.951  15.226 -0.6611  1.5895  0.1045
 4120TIP3   OH233774   0.426   4.664   1.513  0.0048 -0.2059  0.0451
 4120TIP3    H133775   0.397   4.605   1.443 -0.7807  0.8991 -0.5823
 4120TIP3    H233776   0.516   4.687   1.488 -0.3522  0.3653 -0.7275
 4121TIP3   OH233777   0.671   4.784   4.205  0.3578  0.0338  0.1986
 4121TIP3    H133778   0.626   4.699   4.202 -0.5260  0.5048 -0.5003
 4121TIP3    H233779   0.606   4.843   4.244  0.6126  0.5892 -0.2179
 4122TIP3   OH233780   2.129   1.575   1.874  0.8842  0.1979 -0.1951
 4122TIP3    H133781   2.074   1.540   1.944  0.2689  2.0770  0.3027
 4122TIP3    H233782   2.070   1.583   1.799  1.0165  0.1964 -0.3000
 4123TIP3   OH233783   4.326   5.338   3.079 -0.6015 -0.0067 -0.0561
 4123TIP3    H133784   4.252   5.294   3.036  0.4442 -2.1402  0.2034
 4123TIP3    H233785   4.287   5.380   3.156 -1.6584 -0.5773 -0.2529
 4124TIP3   OH233786   2.138   6.123  13.897  0.5203 -0.3479 -0.5232
 4124TIP3    H133787   2.055   6.153  13.935  0.5409 -0.0558 -0.7042
 4124TIP3    H233788   2.120   6.034  13.867  0.0484 -0.0270 -1.2394
 4125TIP3   OH233789   2.339   6.454   4.443  0.0604 -0.1511  0.3841
 4125TIP3    H133790   2.432   6.455   4.420  0.0651 -1.2291  0.2693
 4125TIP3    H233791   2.294   6.435   4.360 -0.4281  2.1472  0.0592
 4126TIP3   OH233792   6.795   4.003   1.243 -0.3461  0.2810  0.8113
 4126TIP3    H133793   6.858   4.025   1.312  0.9281 -1.2468  0.2010
 4126TIP3    H233794   6.755   3.921   1.272 -0.4180  0.0783  0.1638
 4127TIP3   OH233795   1.979   0.107  11.095 -0.4234 -0.0357  0.2442
 4127TIP3    H133796   1.902   0.097  11.038  0.1147 -0.9979 -0.3398
 4127TIP3    H233797   1.943   0.104  11.184 -1.0659 -0.4708 -0.0177
 4128TIP3   OH233798   4.271   2.000  12.223  0.5569 -0.1216  0.2846
 4128TIP3    H133799   4.296   2.038  12.307  2.1743 -1.3862  0.4251
 4128TIP3    H233800   4.342   2.022  12.164  0.9356 -1.7836  0.0588
 4129TIP3   OH233801   2.863   2.953   5.075 -0.1736  0.2287  0.2080
 4129TIP3    H133802   2.951   2.949   5.112  0.1643 -3.5801 -0.5055
 4129TIP3    H233803   2.872   3.011   4.999  2.0045 -0.6941 -0.3371
 4130TIP3   OH233804   1.399   4.681  10.367 -0.4453 -0.5836  0.6406
 4130TIP3    H133805   1.489   4.681  10.401 -0.3849  1.1363  0.5590
 4130TIP3    H233806   1.408   4.657  10.275  0.1493  1.0464  0.2339
 4131TIP3   OH233807   3.662   2.807  10.932  0.4009 -0.0226  0.0762
 4131TIP3    H133808   3.590   2.746  10.943  0.1560 -0.0857 -1.6337
 4131TIP3    H233809   3.741   2.755  10.946  0.1534  0.0808  2.1073
 4132TIP3   OH233810   4.347   4.313  17.018 -0.4541  0.3860 -0.3535
 4132TIP3    H133811   4.315   4.324  16.929  0.3059 -1.7810 -0.9302
 4132TIP3    H233812   4.268   4.291  17.069 -0.7753  0.9779 -0.5723
 4133TIP3   OH233813   5.549   1.735   4.611  0.6643 -0.3602 -0.0944
 4133TIP3    H133814   5.606   1.802   4.649  1.2387 -0.4900 -0.6968
 4133TIP3    H233815   5.486   1.784   4.558  0.0940 -0.2037  0.7275
 4134TIP3   OH233816   6.551   0.327   4.108  0.4278 -0.5688  0.3852
 4134TIP3    H133817   6.643   0.340   4.129  0.3346 -0.0267  0.4697
 4134TIP3    H233818   6.504   0.372   4.178  0.1081  0.0720 -0.2310
 4135TIP3   OH233819   1.839   2.431   4.540 -0.2036  0.9437  0.5948
 4135TIP3    H133820   1.880   2.395   4.618 -0.4983  1.3737  0.9529
 4135TIP3    H233821   1.906   2.488   4.502 -0.4897  1.7326  1.2396
 4136TIP3   OH233822   2.730   6.420  13.131  0.0592 -0.2439 -0.6168
 4136TIP3    H133823   2.736   6.334  13.089 -0.5358  0.2224 -1.7039
 4136TIP3    H233824   2.650   6.417  13.183  0.7067 -0.7645  0.3798
 4137TIP3   OH233825   1.913   2.847   5.571  0.0010  0.4595  0.1459
 4137TIP3    H133826   1.822   2.877   5.575 -0.1766 -0.0641  0.0551
 4137TIP3    H233827   1.927   2.800   5.654 -0.1758 -0.4815 -0.3503
 4138TIP3   OH233828   3.777   4.393   4.665 -0.3264  0.2641  0.1290
 4138TIP3    H133829   3.817   4.422   4.582 -0.1608  0.9969  0.4513
 4138TIP3    H233830   3.825   4.314   4.689  0.3384  0.6396  0.0559
 4139TIP3   OH233831   2.480   3.367   3.224  0.0252  0.2655  0.2437
 4139TIP3    H133832   2.484   3.444   3.166  1.3134 -0.9415 -1.3594
 4139TIP3    H233833   2.394   3.329   3.206  0.5227 -0.2661 -1.1768
 4140TIP3   OH233834   1.744   0.523  13.256  0.3065  0.1854  0.0294
 4140TIP3    H133835   1.703   0.589  13.312  0.1721 -0.5549  0.8285
 4140TIP3    H233836   1.804   0.573  13.201 -0.1580  1.0339  0.2634
 4141TIP3   OH233837   2.286   0.434   4.180  0.2333 -0.7737  0.6641
 4141TIP3    H133838   2.229   0.508   4.160 -0.7467 -1.3207  1.3025
 4141TIP3    H233839   2.348   0.430   4.107 -0.3228  0.0653  0.1290
 4142TIP3   OH233840   0.230   1.583   5.111 -0.0378 -0.1044 -0.0999
 4142TIP3    H133841   0.297   1.593   5.178  1.2577 -0.1238 -1.3350
 4142TIP3    H233842   0.197   1.671   5.096  1.2558  0.2621 -0.9688
 4143TIP3   OH233843   0.576   0.698   3.662 -1.1206 -0.2449  0.5690
 4143TIP3    H133844   0.509   0.750   3.617  0.4339  0.6610 -0.8054
 4143TIP3    H233845   0.651   0.698   3.602  0.6411 -0.0135  2.6411
 4144TIP3   OH233846   2.827   3.744  13.376 -0.4559 -0.0655  0.0374
 4144TIP3    H133847   2.767   3.807  13.336  0.3838  0.4461 -0.4607
 4144TIP3    H233848   2.901   3.741  13.315 -0.0944 -0.8684  0.5141
 4145TIP3   OH233849   5.621   6.494   3.790  0.7623 -0.7048  0.4755
 4145TIP3    H133850   5.615   6.551   3.713  1.0224  0.3701  1.2267
 4145TIP3    H233851   5.674   6.420   3.761  1.4125  0.0057 -0.1981
 4146TIP3   OH233852   5.750   6.115   2.719 -0.0053  0.5508  0.2818
 4146TIP3    H133853   5.807   6.157   2.784  1.0131 -0.8297  0.3270
 4146TIP3    H233854   5.809   6.059   2.669 -1.1737 -0.1363 -0.3593
 4147TIP3   OH233855   2.970   4.840  12.973 -0.6310 -0.3056 -0.1487
 4147TIP3    H133856   2.911   4.774  13.009 -0.7910 -0.7494 -1.1993
 4147TIP3    H233857   2.925   4.924  12.987 -0.7061 -0.4699  0.6275
 4148TIP3   OH233858   1.252   5.145   4.919  0.0573 -0.1547 -0.0387
 4148TIP3    H133859   1.308   5.162   4.844  0.5385 -0.8029  0.1688
 4148TIP3    H233860   1.172   5.108   4.882  0.6748 -1.4064 -0.1766
 4149TIP3   OH233861   0.968   5.112   2.237 -0.1764 -0.4078  0.5515
 4149TIP3    H133862   1.039   5.049   2.226 -0.0378 -0.0343 -1.0351
 4149TIP3    H233863   0.983   5.152   2.322  1.2038 -0.7211  0.4702
 4150TIP3   OH233864   0.820   1.929  15.638 -0.2015  0.4627 -0.3864
 4150TIP3    H133865   0.906   1.915  15.677 -0.2089  0.0674 -0.5088
 4150TIP3    H233866   0.793   1.842  15.608 -0.4980  0.6443 -0.6471
 4151TIP3   OH233867   1.938   4.691  11.782 -0.5577 -0.6917 -0.3768
 4151TIP3    H133868   1.950   4.658  11.871 -0.1469 -0.6937 -0.4282
 4151TIP3    H233869   2.007   4.757  11.771 -0.5064 -0.8020 -0.7451
 4152TIP3   OH233870   3.500   6.117  16.280  0.0242 -0.1035  0.5242
 4152TIP3    H133871   3.468   6.087  16.195  2.0337  0.0432 -0.3221
 4152TIP3    H233872   3.595   6.118  16.272  0.2155  2.2310  1.9616
 4153TIP3   OH233873   0.038   4.411   2.667  0.0946 -0.0906  0.1311
 4153TIP3    H133874   0.112   4.383   2.721  0.6946  0.9896 -0.1100
 4153TIP3    H233875  -0.013   4.469   2.724 -0.7731 -1.0858  0.4077
 4154TIP3   OH233876   4.207   5.314  14.308  0.3127 -0.0664 -0.3043
 4154TIP3    H133877   4.302   5.326  14.314  0.2664  1.2689 -1.6857
 4154TIP3    H233878   4.180   5.291  14.397  1.8376  0.1965  0.2576
 4155TIP3   OH233879   4.449   5.410  13.834  0.3733 -0.5730 -0.3432
 4155TIP3    H133880   4.368   5.413  13.884  0.9985  0.5156  0.6607
 4155TIP3    H233881   4.518   5.420  13.900  1.3017 -1.0218 -1.2231
 4156TIP3   OH233882   1.296   2.775  12.216  0.1956  0.1458 -0.4836
 4156TIP3    H133883   1.339   2.740  12.294 -0.6104  1.7342  0.7314
 4156TIP3    H233884   1.279   2.867  12.237  1.6138  1.1766 -3.2448
 4157TIP3   OH233885   0.919   6.680  13.645 -1.2703  0.1315 -0.1359
 4157TIP3    H133886   0.915   6.754  13.705  0.1430 -0.2519  0.4758
 4157TIP3    H233887   0.901   6.717  13.559 -1.1451  1.0749  0.2377
 4158TIP3   OH233888   0.746   1.272   2.943 -0.0849 -0.3651  0.5767
 4158TIP3    H133889   0.680   1.210   2.973  0.9493 -1.3428  0.8773
 4158TIP3    H233890   0.783   1.232   2.865 -1.5972  1.3834 -1.1571
 4159TIP3   OH233891   6.752   0.481   3.221 -0.0789 -0.7547 -0.5075
 4159TIP3    H133892   6.656   0.472   3.222  0.0159 -1.9052  0.2877
 4159TIP3    H233893   6.769   0.567   3.259 -0.8366  0.1236 -2.0600
 4160TIP3   OH233894   1.426   3.453  14.873  0.2432  0.2090  0.4408
 4160TIP3    H133895   1.363   3.477  14.805  0.6257  1.6406  0.5694
 4160TIP3    H233896   1.459   3.367  14.845  0.1352  0.5994 -0.9887
 4161TIP3   OH233897   2.260   0.175   5.422 -0.4207  0.9295 -0.4714
 4161TIP3    H133898   2.295   0.095   5.460 -0.8486  1.5350  1.3313
 4161TIP3    H233899   2.175   0.187   5.464 -1.0612  1.5335 -1.8567
 4162TIP3   OH233900   5.448   4.322   1.251 -0.1035 -0.0562  0.1925
 4162TIP3    H133901   5.396   4.325   1.332  1.1517  0.2327  1.0205
 4162TIP3    H233902   5.494   4.238   1.256  2.4871  1.3150  1.4545
 4163TIP3   OH233903   0.309   0.043  15.467  0.1197  0.2249 -0.2208
 4163TIP3    H133904   0.280   0.052  15.557 -0.4686 -0.8327 -0.2831
 4163TIP3    H233905   0.404   0.053  15.471 -0.0502  1.8207  0.2661
 4164TIP3   OH233906   1.392   4.255   3.030 -0.1187 -0.5025 -0.0963
 4164TIP3    H133907   1.397   4.217   2.943 -0.2236 -1.4103  0.2877
 4164TIP3    H233908   1.308   4.300   3.032 -0.5525 -1.2954 -0.1473
 4165TIP3   OH233909   5.246   4.014   5.559 -0.1228  0.4823  0.4289
 4165TIP3    H133910   5.292   3.987   5.639 -0.1009  0.7102  0.4941
 4165TIP3    H233911   5.305   4.078   5.518 -0.5506  1.0740  0.7158
 4166TIP3   OH233912   0.035   2.315  13.749 -0.0406 -0.3017 -0.7445
 4166TIP3    H133913  -0.041   2.269  13.783  0.3128 -1.0998 -0.9848
 4166TIP3    H233914   0.018   2.407  13.765 -1.3965 -0.4089 -1.4800
 4167TIP3   OH233915   6.673   5.877   0.933  0.2480  0.2110  0.1941
 4167TIP3    H133916   6.758   5.919   0.920  1.1270 -1.0137  1.6156
 4167TIP3    H233917   6.609   5.947   0.917  1.3048  0.5141 -3.6584
 4168TIP3   OH233918   5.243   4.926   1.231  0.1210  0.3555  0.5657
 4168TIP3    H133919   5.184   4.994   1.263  0.0552  0.0635  1.0792
 4168TIP3    H233920   5.278   4.961   1.149  2.5420  2.4702  2.3289
 4169TIP3   OH233921   1.605   4.521   0.128 -0.0049 -0.2979  0.5736
 4169TIP3    H133922   1.636   4.610   0.146 -0.6326 -0.1954  1.2147
 4169TIP3    H233923   1.539   4.532   0.060 -0.7604 -0.1426  1.3109
 4170TIP3   OH233924   2.217   3.877  14.699 -0.0891 -0.3690 -0.2089
 4170TIP3    H133925   2.220   3.786  14.728  2.1965 -0.1886  0.3453
 4170TIP3    H233926   2.249   3.928  14.774  0.1005  0.7340 -1.0049
 4171TIP3   OH233927   6.565   3.228  16.673 -0.0491  0.0559  0.0850
 4171TIP3    H133928   6.555   3.312  16.629 -1.1367  0.2473  0.6661
 4171TIP3    H233929   6.487   3.219  16.727  0.2311 -1.1558  0.3332
 4172TIP3   OH233930   5.348   2.494  12.201 -0.2664 -0.7452  0.2794
 4172TIP3    H133931   5.377   2.451  12.120  2.0383 -1.5989  1.4751
 4172TIP3    H233932   5.296   2.568  12.171  2.1028  0.1229 -2.0641
 4173TIP3   OH233933   6.712   4.575   3.267 -0.5401 -0.1234 -0.3194
 4173TIP3    H133934   6.705   4.515   3.342  0.6768  0.1865  0.0670
 4173TIP3    H233935   6.776   4.534   3.209  0.0675  0.6304 -0.2021
 4174TIP3   OH233936   2.003   0.957  15.275 -0.0844 -0.4895 -0.1898
 4174TIP3    H133937   2.023   0.987  15.364 -0.7902 -0.1728 -0.1326
 4174TIP3    H233938   1.941   1.021  15.242  2.1061  0.9107 -1.8733
 4175TIP3   OH233939   5.174   1.846   5.547 -0.1167  0.3848  0.1653
 4175TIP3    H133940   5.127   1.830   5.629  1.4751 -2.0419  0.7111
 4175TIP3    H233941   5.263   1.869   5.574  0.1218  0.7443 -0.8810
 4176TIP3   OH233942   4.677   2.953  16.280 -0.0752  0.1479 -0.6288
 4176TIP3    H133943   4.653   2.883  16.342  0.6332  0.4605  0.0201
 4176TIP3    H233944   4.641   2.924  16.196 -0.5800 -0.5574 -0.1852
 4177TIP3   OH233945   1.956   5.112  16.998  0.3198  0.4128  0.0386
 4177TIP3    H133946   1.895   5.104  16.925  1.8578  1.3789 -1.4235
 4177TIP3    H233947   2.035   5.066  16.969  1.3272  1.6996  0.6404
 4178TIP3   OH233948   5.621   4.315   3.165 -0.7435 -0.1147 -0.1277
 4178TIP3    H133949   5.564   4.386   3.194 -2.8305 -1.2563 -1.2033
 4178TIP3    H233950   5.577   4.279   3.088  1.1881 -1.4289 -0.6917
 4179TIP3   OH233951   0.684   0.721  10.440  0.2118 -0.7934 -0.0996
 4179TIP3    H133952   0.727   0.646  10.482 -0.2620 -0.3445  1.2150
 4179TIP3    H233953   0.674   0.786  10.509  2.7250  1.5053 -1.6709
 4180TIP3   OH233954   1.809   6.322  14.351  0.1630 -0.2073  0.4607
 4180TIP3    H133955   1.864   6.389  14.392  1.0685 -0.5175 -0.2247
 4180TIP3    H233956   1.864   6.282  14.284  0.2270 -2.8346  1.9588
 4181TIP3   OH233957   1.985   3.022  13.577  0.5704 -0.0836  0.8703
 4181TIP3    H133958   2.078   3.001  13.591  0.3888 -1.5853  0.0453
 4181TIP3    H233959   1.938   2.952  13.623 -0.1514  0.5617  1.1202
 4182TIP3   OH233960   5.138   1.529  14.262 -0.3043  0.4884 -0.2248
 4182TIP3    H133961   5.152   1.490  14.176 -0.0957  0.2131 -0.0689
 4182TIP3    H233962   5.151   1.623  14.249  1.6468  0.2868 -0.1163
 4183TIP3   OH233963   6.767   5.583  16.557 -0.1852 -0.4369 -0.8348
 4183TIP3    H133964   6.823   5.652  16.593 -1.8666  2.1455 -2.7278
 4183TIP3    H233965   6.711   5.556  16.630  0.9039 -0.2296  0.1009
 4184TIP3   OH233966   3.598   1.925  11.581 -0.4499 -0.0092 -0.4365
 4184TIP3    H133967   3.525   1.983  11.560 -0.2497  0.0904 -0.8751
 4184TIP3    H233968   3.563   1.865  11.647 -0.1704  1.6771  1.3434
 4185TIP3   OH233969   3.740   6.282  14.153 -0.0165 -0.7384  0.5297
 4185TIP3    H133970   3.817   6.280  14.096 -0.5997 -1.1053 -0.2625
 4185TIP3    H233971   3.730   6.374  14.177  0.1795 -0.5674 -0.0443
 4186TIP3   OH233972   6.266   5.088  13.978 -0.1381  0.1183  0.1914
 4186TIP3    H133973   6.331   5.043  14.032  0.8290  0.7726 -0.3844
 4186TIP3    H233974   6.193   5.105  14.037  1.3533  1.8741  1.6561
 4187TIP3   OH233975   2.006   0.196  13.437 -0.7363  0.1879 -0.0456
 4187TIP3    H133976   2.041   0.175  13.350 -0.8270 -0.9614  0.1831
 4187TIP3    H233977   2.007   0.292  13.440  1.1563  0.2300 -0.5507
 4188TIP3   OH233978   2.360   0.150   1.713  0.3294  0.8151 -0.3813
 4188TIP3    H133979   2.276   0.178   1.748 -0.8149 -0.5466 -1.8750
 4188TIP3    H233980   2.408   0.116   1.789  0.1161  2.8597  0.7207
 4189TIP3   OH233981   1.275   0.654   3.247 -0.4399  0.1428 -0.1818
 4189TIP3    H133982   1.369   0.670   3.238  0.2671 -1.7394  2.5644
 4189TIP3    H233983   1.262   0.568   3.208 -0.8741  0.1233  0.0067
 4190TIP3   OH233984   4.711   0.940  17.030  0.2220  0.4292 -0.6051
 4190TIP3    H133985   4.662   0.998  17.087 -0.3575  0.7753 -1.4429
 4190TIP3    H233986   4.803   0.955  17.053  0.0216  0.9515 -0.1453
 4191TIP3   OH233987   4.914   0.799   0.094 -0.0208 -0.4854  0.2991
 4191TIP3    H133988   4.949   0.869   0.039  0.9733 -2.4054 -1.6310
 4191TIP3    H233989   4.916   0.835   0.183  0.6834  1.8172 -0.5846
 4192TIP3   OH233990   3.077   5.322  13.083 -0.2878  0.0963 -0.2136
 4192TIP3    H133991   3.025   5.242  13.087 -0.1192 -0.0421 -0.7953
 4192TIP3    H233992   3.019   5.386  13.042 -0.0847  0.0064 -0.6441
 4193TIP3   OH233993   0.676   5.248  15.350 -0.4079  0.6736  0.3734
 4193TIP3    H133994   0.616   5.175  15.344  1.1409 -0.8462  2.2265
 4193TIP3    H233995   0.724   5.246  15.267  1.0082 -1.7726  1.1556
 4194TIP3   OH233996   6.704   6.644  13.132  0.2232 -0.8722  0.2668
 4194TIP3    H133997   6.711   6.552  13.105 -0.4827 -0.2750 -2.2168
 4194TIP3    H233998   6.795   6.676  13.129  0.3284 -1.1916 -0.0931
 4195TIP3   OH233999   2.425   1.809   2.232 -0.1315 -0.1439 -0.4723
 4195TIP3    H134000   2.454   1.720   2.214  0.3171  0.3377 -2.4195
 4195TIP3    H234001   2.482   1.839   2.303  2.2667 -0.2252 -2.2312
 4196TIP3   OH234002   0.307   1.563   1.712  0.3806  0.2476  0.2361
 4196TIP3    H134003   0.370   1.634   1.719 -0.8896  1.4399 -0.0246
 4196TIP3    H234004   0.224   1.601   1.741 -0.6130 -0.7277 -1.1529
 4197TIP3   OH234005   6.371   0.695  16.227 -0.3785 -0.0707  0.6338
 4197TIP3    H134006   6.381   0.603  16.204 -3.7452 -0.7249  1.2483
 4197TIP3    H234007   6.279   0.715  16.209 -0.0781  2.8266  1.7199
 4198TIP3   OH234008   1.139   5.714   2.002  0.5436 -0.5426 -0.8839
 4198TIP3    H134009   1.232   5.728   1.987  0.7728  0.6295  1.2186
 4198TIP3    H234010   1.117   5.773   2.075 -1.1998 -2.7959  0.5664
 4199TIP3   OH234011   5.948   3.086   4.194 -0.0173 -0.4951 -0.0383
 4199TIP3    H134012   6.026   3.052   4.151  1.5150  0.1440  2.1062
 4199TIP3    H234013   5.894   3.008   4.210  1.2191 -1.2578  0.4957
 4200TIP3   OH234014   2.602   0.778   4.342  0.8637  0.5208 -0.3622
 4200TIP3    H134015   2.576   0.776   4.250  0.3289 -0.9154 -0.2004
 4200TIP3    H234016   2.671   0.711   4.348 -1.7526 -2.2854  0.9870
 4201TIP3   OH234017   4.384   4.269  12.490 -0.4710  0.1538 -0.2347
 4201TIP3    H134018   4.463   4.218  12.509 -1.1304 -0.8674 -0.1503
 4201TIP3    H234019   4.354   4.299  12.575 -0.0070  0.8124 -0.2965
 4202TIP3   OH234020   0.049   3.713   0.729 -0.1734  0.4750 -0.7693
 4202TIP3    H134021   0.054   3.617   0.733 -1.7025  0.4041  1.6519
 4202TIP3    H234022   0.114   3.743   0.792 -1.4559  0.8801  0.4160
 4203TIP3   OH234023   6.735   3.224   1.243  0.4455 -0.0247 -0.1310
 4203TIP3    H134024   6.718   3.145   1.191 -1.6794 -0.2884  0.8697
 4203TIP3    H234025   6.652   3.271   1.244  1.1757  1.3203  0.8147
 4204TIP3   OH234026   0.236   3.576   1.410 -0.7109  0.0857  0.1112
 4204TIP3    H134027   0.282   3.555   1.329 -0.6527  0.1955  0.1154
 4204TIP3    H234028   0.165   3.511   1.415 -2.4200  1.6827 -1.4326
 4205TIP3   OH234029   4.671   6.600   5.163  0.0488 -0.0771  0.0313
 4205TIP3    H134030   4.623   6.595   5.246 -1.0115  0.2685 -0.5489
 4205TIP3    H234031   4.606   6.579   5.096  0.8514 -0.1746 -0.7341
 4206TIP3   OH234032   5.614   1.742  16.353  0.5375  0.0920  0.2316
 4206TIP3    H134033   5.544   1.807  16.355  1.0954  0.6820  1.4771
 4206TIP3    H234034   5.689   1.786  16.394  2.1080 -0.0059 -2.2969
 4207TIP3   OH234035   4.489   2.112   4.525 -0.0840 -0.2308 -0.2715
 4207TIP3    H134036   4.467   2.056   4.451 -0.6827 -0.1782 -0.1393
 4207TIP3    H234037   4.511   2.196   4.485 -0.5872 -0.1490 -0.3805
 4208TIP3   OH234038   2.419   5.918   4.223 -0.9634 -0.4881 -0.9592
 4208TIP3    H134039   2.328   5.944   4.233 -1.5075 -2.5712  0.0026
 4208TIP3    H234040   2.425   5.833   4.267  1.3900 -0.5111 -1.1980
 4209TIP3   OH234041   5.483   5.896  15.234 -0.0760 -0.3096 -0.5887
 4209TIP3    H134042   5.567   5.903  15.280 -0.6680  0.9654  0.3594
 4209TIP3    H234043   5.487   5.963  15.165 -0.4705  0.0371 -0.2789
 4210TIP3   OH234044   3.525   5.324   4.845 -0.3274  0.3189 -0.2124
 4210TIP3    H134045   3.454   5.388   4.844 -0.4199  0.2657  1.3785
 4210TIP3    H234046   3.588   5.358   4.908  0.2222 -0.5246 -0.2896
 4211TIP3   OH234047   2.660   3.837  14.815  0.0846 -0.1335  0.0758
 4211TIP3    H134048   2.681   3.930  14.823  1.0511 -0.4665  1.9925
 4211TIP3    H234049   2.741   3.792  14.840 -0.8478 -1.4826  0.7907
 4212TIP3   OH234050   0.496   5.016  12.981 -0.7008 -0.6120 -0.1535
 4212TIP3    H134051   0.575   4.977  12.944 -0.3664 -0.3611  0.2801
 4212TIP3    H234052   0.464   4.952  13.044  0.5673  0.3057  1.5044
 4213TIP3   OH234053   4.616   6.307   1.416 -0.8497 -0.0462 -0.6586
 4213TIP3    H134054   4.528   6.302   1.453 -0.6017  1.0485  0.1280
 4213TIP3    H234055   4.674   6.289   1.489 -0.3887  0.5092 -0.8807
 4214TIP3   OH234056   5.814   2.316   4.867 -0.0619  0.1190  0.7757
 4214TIP3    H134057   5.872   2.301   4.942 -0.5630  1.1395  1.3811
 4214TIP3    H234058   5.804   2.411   4.863 -0.5520  0.0369 -0.2062
 4215TIP3   OH234059   1.746   3.119  12.291 -0.4781 -0.3102 -0.5001
 4215TIP3    H134060   1.680   3.188  12.300  1.1950  1.2206  0.9006
 4215TIP3    H234061   1.821   3.163  12.250 -0.5120 -2.1906 -2.8003
 4216TIP3   OH234062   6.050   0.907  12.070  0.1186 -0.4311 -0.0251
 4216TIP3    H134063   6.007   0.824  12.050 -2.0582  1.2039 -2.8854
 4216TIP3    H234064   6.045   0.957  11.989  1.8786  2.3109  1.3894
 4217TIP3   OH234065   6.572   5.762  14.558 -0.6844 -0.1036 -0.1514
 4217TIP3    H134066   6.577   5.752  14.463 -0.0574  0.3121 -0.1675
 4217TIP3    H234067   6.553   5.855  14.572  1.5151  0.3432  0.1671
 4218TIP3   OH234068   3.092   3.650   6.396 -0.1594 -0.1168  0.0298
 4218TIP3    H134069   3.169   3.662   6.340  0.0320 -0.2734  0.2533
 4218TIP3    H234070   3.099   3.560   6.427 -0.3936 -0.1074  0.1102
 4219TIP3   OH234071   4.676   1.856   4.066 -1.0602  0.4695  0.1230
 4219TIP3    H134072   4.637   1.943   4.070 -0.4464  0.6901  2.5865
 4219TIP3    H234073   4.749   1.859   4.127 -0.2334 -1.4269 -0.6732
 4220TIP3   OH234074   5.690   1.212  12.156 -0.0747 -0.3653  0.1994
 4220TIP3    H134075   5.746   1.167  12.092  1.3547  0.1813  1.0176
 4220TIP3    H234076   5.675   1.299  12.118 -0.9160 -0.7189 -0.3081
 4221TIP3   OH234077   4.390   4.132   1.957  0.4813 -0.1144  0.2084
 4221TIP3    H134078   4.459   4.163   2.016 -0.3362  0.1643  1.0454
 4221TIP3    H234079   4.375   4.042   1.983  1.6469 -0.7225 -1.0750
 4222TIP3   OH234080   6.544   2.788   0.350  0.2577  0.1987  0.1706
 4222TIP3    H134081   6.581   2.836   0.277  0.9178  1.4643  1.3052
 4222TIP3    H234082   6.603   2.714   0.363  0.6641  0.4972  0.0238
 4223TIP3   OH234083   4.256   1.384   1.622  0.6528 -0.3584  0.4016
 4223TIP3    H134084   4.192   1.333   1.670 -1.4146  0.4937 -1.2859
 4223TIP3    H234085   4.270   1.335   1.541 -1.1406  1.4558 -1.1119
 4224TIP3   OH234086   2.711   1.214  12.661 -0.0784  0.6667  0.4248
 4224TIP3    H134087   2.640   1.226  12.598 -0.2904  1.4244  0.7944
 4224TIP3    H234088   2.689   1.273  12.734  1.1234  1.2376  0.3564
 4225TIP3   OH234089   3.326   2.817  13.517 -0.2294 -0.4864  0.7330
 4225TIP3    H134090   3.244   2.770  13.532 -1.3446  0.6166 -1.4922
 4225TIP3    H234091   3.309   2.905  13.552  0.0622 -0.3183  0.4538
 4226TIP3   OH234092   4.498   6.662  16.385 -0.2837 -0.7664 -0.0561
 4226TIP3    H134093   4.538   6.646  16.471 -1.0909 -1.0385  0.2761
 4226TIP3    H234094   4.572   6.666  16.325  0.5127  1.6962  0.9547
 4227TIP3   OH234095   3.011   2.071   3.664 -0.3072  0.0383 -0.4459
 4227TIP3    H134096   3.090   2.098   3.619 -0.0873 -0.7472 -0.5464
 4227TIP3    H234097   2.991   2.143   3.724 -0.5704  1.0674 -1.7304
 4228TIP3   OH234098   6.741   5.018   0.808 -0.5602  0.3370 -0.1357
 4228TIP3    H134099   6.823   5.054   0.840 -1.9537  1.5253  2.4014
 4228TIP3    H234100   6.698   5.091   0.763 -0.2891 -0.2567 -1.3924
 4229TIP3   OH234101   3.747   1.285  13.330 -0.1097  0.4166 -0.2391
 4229TIP3    H134102   3.766   1.312  13.420  0.1663  0.2895 -0.2594
 4229TIP3    H234103   3.815   1.326  13.277 -0.9452  1.4648 -0.5478
 4230TIP3   OH234104   5.834   0.417   1.915 -0.1365 -0.3096  0.1832
 4230TIP3    H134105   5.791   0.388   1.834 -1.5498 -0.4046  0.9371
 4230TIP3    H234106   5.852   0.336   1.963  1.1097 -0.2860 -0.2086
 4231TIP3   OH234107   4.912   0.536  15.122 -0.0977  0.0038  0.3330
 4231TIP3    H134108   4.903   0.501  15.034  1.8154 -1.4743  0.6413
 4231TIP3    H234109   4.929   0.459  15.176  2.3791  1.1798  1.3772
 4232TIP3   OH234110   3.252   6.038   0.272 -0.3128  0.4881  0.2373
 4232TIP3    H134111   3.329   6.077   0.231  0.4280 -1.1743  0.0051
 4232TIP3    H234112   3.180   6.062   0.213  0.3016  0.5287 -0.5243
 4233TIP3   OH234113   6.199   0.628   2.416 -0.0592  0.0075  0.2706
 4233TIP3    H134114   6.126   0.641   2.355 -0.6286  0.2708  0.9863
 4233TIP3    H234115   6.242   0.548   2.386 -0.0566  0.3745 -0.7376
 4234TIP3   OH234116   2.954   5.550  12.934  0.0297 -0.4875  0.0780
 4234TIP3    H134117   3.038   5.539  12.890  0.8036 -0.5464  1.5320
 4234TIP3    H234118   2.902   5.475  12.904  1.0343 -1.3241  0.3561
 4235TIP3   OH234119   2.263   5.194   3.145  0.0349 -0.6517 -0.1352
 4235TIP3    H134120   2.198   5.252   3.105  1.4357 -0.2822 -2.0039
 4235TIP3    H234121   2.281   5.233   3.231 -0.9446  0.1774 -0.2919
 4236TIP3   OH234122   0.777   2.889   4.761 -0.0199  0.3451 -0.2161
 4236TIP3    H134123   0.725   2.856   4.688 -0.3747  2.9467 -1.2701
 4236TIP3    H234124   0.864   2.904   4.724  0.6904 -1.1473  0.7492
 4237TIP3   OH234125   5.781   2.128  11.858 -0.0547  0.3727 -0.0754
 4237TIP3    H134126   5.731   2.205  11.886  2.0593  2.0169 -0.5426
 4237TIP3    H234127   5.721   2.081  11.799 -1.2663  1.8984 -0.1425
 4238TIP3   OH234128   6.418   5.871   4.347 -0.3571  0.0845 -0.0188
 4238TIP3    H134129   6.385   5.786   4.317 -1.5997  0.7032 -0.4804
 4238TIP3    H234130   6.367   5.889   4.426  1.8415 -0.8328  1.7341
 4239TIP3   OH234131   6.718   6.738  11.908 -0.2695 -0.3704  0.2235
 4239TIP3    H134132   6.723   6.824  11.867 -0.6094 -0.9626 -1.0911
 4239TIP3    H234133   6.810   6.715  11.927 -0.2932  1.0702  2.3439
 4240TIP3   OH234134   0.282   4.928   3.448 -0.2402  0.0895 -0.0425
 4240TIP3    H134135   0.356   4.942   3.389 -0.5612  0.5478 -0.3433
 4240TIP3    H234136   0.310   4.965   3.531  0.5910 -1.4163  0.3871
 4241TIP3   OH234137   5.496   5.859  11.500  0.0196  0.3265  0.4165
 4241TIP3    H134138   5.560   5.788  11.488  0.6240  0.7318  1.1662
 4241TIP3    H234139   5.478   5.860  11.594 -2.4815 -0.9322  0.0432
 4242TIP3   OH234140   1.559   4.015  15.984  0.3852  0.2937 -0.0406
 4242TIP3    H134141   1.583   3.974  16.067  1.7199  4.4952  1.9342
 4242TIP3    H234142   1.633   3.997  15.926  0.6262 -0.5648  0.5166
 4243TIP3   OH234143   3.716   2.106  15.856  0.1947  0.2216  0.0811
 4243TIP3    H134144   3.773   2.084  15.929  0.5100 -0.6279 -0.3998
 4243TIP3    H234145   3.776   2.131  15.785  0.2435 -3.2173 -1.3067
 4244TIP3   OH234146   0.308   6.416   1.181 -0.6635 -0.2147 -0.5587
 4244TIP3    H134147   0.255   6.431   1.103 -3.1636  1.5133  1.3178
 4244TIP3    H234148   0.363   6.494   1.189 -0.3633 -0.4179 -0.6072
 4245TIP3   OH234149   5.103   6.637   3.777 -0.8147  0.0493 -0.1542
 4245TIP3    H134150   5.149   6.554   3.784 -0.8851 -0.0287 -0.5528
 4245TIP3    H234151   5.039   6.635   3.848  0.3309  0.5149  0.9255
 4246TIP3   OH234152   0.302   6.285  11.982 -0.0552 -0.0379 -0.2630
 4246TIP3    H134153   0.287   6.222  11.912 -0.2237  1.5914 -1.7521
 4246TIP3    H234154   0.395   6.308  11.975 -0.1150  0.2723 -0.0835
 4247TIP3   OH234155   5.259   4.585   4.204 -0.3032 -0.0787 -0.1794
 4247TIP3    H134156   5.201   4.508   4.200  0.3980 -0.7192  1.3100
 4247TIP3    H234157   5.206   4.655   4.167 -1.1669 -1.1526 -1.0821
 4248TIP3   OH234158   0.348   2.064   3.856  0.0084  0.3685 -0.6008
 4248TIP3    H134159   0.332   2.057   3.950 -0.7147  1.6601 -0.6148
 4248TIP3    H234160   0.395   1.983   3.834 -0.6663 -0.3983  0.6787
 4249TIP3   OH234161   5.049   2.761   3.454  0.0518  0.1303  0.3339
 4249TIP3    H134162   5.144   2.756   3.451  0.0809 -0.1203  1.2962
 4249TIP3    H234163   5.029   2.778   3.546 -0.9039 -1.6059  0.4821
 4250TIP3   OH234164   2.551   3.278  10.779 -0.1045  0.2054 -0.1845
 4250TIP3    H134165   2.522   3.204  10.726  0.5608  0.1182 -0.4398
 4250TIP3    H234166   2.484   3.344  10.767  0.1186  0.2516 -1.2804
 4251TIP3   OH234167   5.001   5.682  17.152 -0.4840 -0.2177  0.2002
 4251TIP3    H134168   5.033   5.740  17.082  1.2432 -1.9926 -0.5802
 4251TIP3    H234169   4.970   5.604  17.106 -1.1326 -0.6332  1.3233
 4252TIP3   OH234170   0.621   4.046   1.770 -0.0485  0.1568 -0.3679
 4252TIP3    H134171   0.613   4.126   1.719 -2.2834  0.1472 -0.1480
 4252TIP3    H234172   0.581   4.067   1.855 -0.1545 -1.0177 -0.1012
 4253TIP3   OH234173   6.001   4.512   5.841 -0.2626  0.5884 -0.0889
 4253TIP3    H134174   5.990   4.428   5.885  0.4102 -0.4737 -1.8319
 4253TIP3    H234175   6.096   4.525   5.837 -0.3519  2.3396  1.6952
 4254TIP3   OH234176   6.072   6.656   2.025 -0.1423  0.1396 -0.2358
 4254TIP3    H134177   6.030   6.649   1.940 -0.8450  1.8042 -0.0657
 4254TIP3    H234178   6.142   6.591   2.023 -1.2173 -1.0557 -1.4150
 4255TIP3   OH234179   0.365   5.903  13.665 -0.7340 -0.2045 -1.0673
 4255TIP3    H134180   0.270   5.907  13.669 -0.7915 -1.4337 -0.8225
 4255TIP3    H234181   0.388   5.941  13.580 -1.4051  0.5203 -0.9298
 4256TIP3   OH234182   4.636   2.481   3.763  0.3827  0.0715  0.0061
 4256TIP3    H134183   4.568   2.493   3.696  0.4906  1.4711  0.1249
 4256TIP3    H234184   4.606   2.531   3.838  0.5598 -0.9982  0.8206
 4257TIP3   OH234185   4.217   6.314   2.781  0.1832 -0.7727 -0.5612
 4257TIP3    H134186   4.222   6.253   2.855 -0.1794  0.0110  0.1247
 4257TIP3    H234187   4.135   6.292   2.737  0.2116 -0.9829 -0.5113
 4258TIP3   OH234188   2.566   2.284  11.298  0.3257  0.5357 -0.8491
 4258TIP3    H134189   2.553   2.377  11.280 -1.2739  0.6542  0.6275
 4258TIP3    H234190   2.540   2.274  11.390  3.2397 -0.8636 -0.0506
 4259TIP3   OH234191   2.232   1.601   4.140 -0.0776  0.2386  0.1373
 4259TIP3    H134192   2.326   1.614   4.150 -0.0952  0.4741  0.0149
 4259TIP3    H234193   2.197   1.689   4.130 -0.3516  0.1733  0.5165
 4260TIP3   OH234194   5.591   0.443  15.711  0.3425  0.1123  0.1453
 4260TIP3    H134195   5.638   0.439  15.628 -1.2258 -0.2875 -0.7734
 4260TIP3    H234196   5.534   0.520  15.702  0.0593 -0.0149  0.8030
 4261TIP3   OH234197   3.648   0.649  13.670  0.0725  0.1627  0.3588
 4261TIP3    H134198   3.578   0.686  13.723 -0.1835  0.2434 -0.0329
 4261TIP3    H234199   3.721   0.710  13.680 -0.5723  1.1792 -0.8559
 4262TIP3   OH234200   4.795   0.408  15.886 -0.4290  0.0258  0.6546
 4262TIP3    H134201   4.845   0.481  15.848  0.7665 -1.1865 -0.2444
 4262TIP3    H234202   4.860   0.338  15.896 -1.5986 -1.0185  1.1824
 4263TIP3   OH234203   4.558   6.053  13.444  0.1983 -0.0042  0.3188
 4263TIP3    H134204   4.529   6.021  13.530 -0.1249 -1.2379 -0.2396
 4263TIP3    H234205   4.612   6.129  13.465 -2.2921  1.5975  1.4784
 4264TIP3   OH234206   5.852   4.968   0.824 -0.0008  0.2322 -0.8390
 4264TIP3    H134207   5.882   5.025   0.753  2.6973  0.7787  0.6278
 4264TIP3    H234208   5.863   4.879   0.789 -2.4695  0.4560 -2.4529
 4265TIP3   OH234209   0.368   4.862   5.062 -0.0269 -0.2369  0.8722
 4265TIP3    H134210   0.426   4.921   5.013  0.3760 -0.9756  0.4303
 4265TIP3    H234211   0.356   4.787   5.004 -1.4261 -0.1118  0.9691
 4266TIP3   OH234212   5.380   2.869   3.253 -0.2719 -0.2215  0.0219
 4266TIP3    H134213   5.353   2.782   3.282  1.4219 -1.8584 -2.8355
 4266TIP3    H234214   5.305   2.903   3.205 -0.4476 -0.7610 -0.0886
 4267TIP3   OH234215   1.611   3.656  10.688 -0.2160  0.3058 -0.3757
 4267TIP3    H134216   1.556   3.717  10.640 -0.5283  0.1238 -0.2521
 4267TIP3    H234217   1.678   3.630  10.625 -0.1074  0.7374 -0.4421
 4268TIP3   OH234218   2.836   5.044  14.594 -0.8307 -0.0989  1.3573
 4268TIP3    H134219   2.793   5.007  14.518  0.4967 -2.0674  1.4840
 4268TIP3    H234220   2.771   5.038  14.664 -0.7518 -2.0714  1.3133
 4269TIP3   OH234221   6.468   1.111  14.150  0.6473 -0.0558  0.1191
 4269TIP3    H134222   6.470   1.205  14.135 -1.9803  0.1138  0.2996
 4269TIP3    H234223   6.377   1.086  14.135  1.0222 -2.3865  1.1954
 4270TIP3   OH234224   5.586   0.666  10.659  0.6845 -0.5460  0.4401
 4270TIP3    H134225   5.500   0.692  10.628  0.3415 -1.0124  0.9701
 4270TIP3    H234226   5.641   0.743  10.647  0.0648 -0.0776  0.5694
 4271TIP3   OH234227   0.415   1.367  13.193 -0.6947  0.1952 -0.4092
 4271TIP3    H134228   0.417   1.450  13.144  0.7183 -0.2091 -1.1102
 4271TIP3    H234229   0.351   1.381  13.262  2.0389  3.2525  1.8368
 4272TIP3   OH234230   3.690   1.902  15.312  0.4945 -0.7114 -0.5194
 4272TIP3    H134231   3.708   1.966  15.243 -0.3674 -0.1391 -0.2195
 4272TIP3    H234232   3.761   1.915  15.376 -0.5556  1.0943  0.3526
 4273TIP3   OH234233   6.296   4.435  13.258 -0.8459 -0.0522 -0.4650
 4273TIP3    H134234   6.327   4.506  13.314  3.3788 -1.2796 -0.9270
 4273TIP3    H234235   6.326   4.459  13.170  1.3731 -2.5503 -0.5354
 4274TIP3   OH234236   5.235   3.572   2.834 -0.5432  0.4471  0.0868
 4274TIP3    H134237   5.228   3.623   2.754 -0.1306 -0.1817 -0.3574
 4274TIP3    H234238   5.216   3.482   2.807 -0.1948  0.1988  0.6494
 4275TIP3   OH234239   5.633   5.092  11.749 -0.3234  0.1880 -0.2520
 4275TIP3    H134240   5.593   5.179  11.747 -0.5486  0.1411  1.2866
 4275TIP3    H234241   5.725   5.109  11.728 -0.5498  0.6638 -0.9140
 4276TIP3   OH234242   1.253   6.166   0.667 -0.2459 -0.2141 -0.0330
 4276TIP3    H134243   1.192   6.171   0.593  0.6124 -2.4836 -0.9871
 4276TIP3    H234244   1.223   6.090   0.717  0.7616 -0.3104  0.4498
 4277TIP3   OH234245   3.172   3.896  11.837  0.0307 -0.1049 -0.9002
 4277TIP3    H134246   3.196   3.974  11.886  1.0038 -0.8773 -0.1153
 4277TIP3    H234247   3.081   3.879  11.861 -0.4289  1.1816 -1.6429
 4278TIP3   OH234248   2.885   1.556   4.353  0.3587 -0.1259  0.9794
 4278TIP3    H134249   2.938   1.636   4.347  1.9577 -1.1503  0.9395
 4278TIP3    H234250   2.799   1.582   4.321  1.2666  1.2160 -0.5017
 4279TIP3   OH234251   0.661   1.937   4.629  0.9023  0.7681  0.2461
 4279TIP3    H134252   0.674   2.002   4.561  2.3325 -0.3537 -0.6231
 4279TIP3    H234253   0.576   1.898   4.609  1.6175 -0.0535 -1.3959
 4280TIP3   OH234254   0.299   5.725   2.529  0.3049  0.2982  0.1982
 4280TIP3    H134255   0.244   5.661   2.482  0.9154  0.2473 -0.4697
 4280TIP3    H234256   0.240   5.798   2.547  0.1848  0.5708 -1.1809
 4281TIP3   OH234257   4.898   5.327  15.575  0.4761  0.0265 -0.3518
 4281TIP3    H134258   4.986   5.290  15.565 -0.1229 -1.5990  0.0692
 4281TIP3    H234259   4.882   5.325  15.669  0.0024  0.3362 -0.4241
 4282TIP3   OH234260   4.726   5.902  16.954 -0.0225 -0.9915 -0.1231
 4282TIP3    H134261   4.652   5.936  17.004 -1.5275 -0.2335 -2.7059
 4282TIP3    H234262   4.714   5.807  16.955 -0.4148 -0.9394  0.3686
 4283TIP3   OH234263   2.754   2.865   3.665 -0.2978  0.3129  0.0731
 4283TIP3    H134264   2.752   2.829   3.577 -1.5680  1.4642 -0.4055
 4283TIP3    H234265   2.812   2.941   3.658  0.9893 -0.5660  0.6732
 4284TIP3   OH234266   5.887   1.548   0.907  0.0467  0.5812 -0.9063
 4284TIP3    H134267   5.929   1.631   0.928  0.9198 -0.2677  0.8446
 4284TIP3    H234268   5.894   1.496   0.987 -1.5914 -0.7422 -1.5618
 4285TIP3   OH234269   6.202   0.156   4.142 -0.4521 -0.1298 -0.1867
 4285TIP3    H134270   6.214   0.121   4.230 -0.2862  1.0347  0.2731
 4285TIP3    H234271   6.170   0.246   4.156 -1.6154 -0.3382 -1.3172
 4286TIP3   OH234272   2.403   1.326  15.558  0.2181  0.0238 -0.3784
 4286TIP3    H134273   2.368   1.289  15.477 -1.5798 -1.5503  1.0217
 4286TIP3    H234274   2.341   1.395  15.582 -0.9478 -1.4196  1.0534
 4287TIP3   OH234275   3.982   2.142   3.585  0.1596  0.2069  0.3015
 4287TIP3    H134276   3.913   2.129   3.650 -0.2365 -0.1825 -0.1849
 4287TIP3    H234277   3.971   2.234   3.558  0.2345  0.3281  0.6775
 4288TIP3   OH234278   4.229   6.010   4.584 -0.1491  0.0672 -0.9079
 4288TIP3    H134279   4.273   6.074   4.640  0.2115 -0.0405 -1.0720
 4288TIP3    H234280   4.271   5.926   4.605 -1.3923 -0.3259  0.1594
 4289TIP3   OH234281   3.277   6.417  16.566 -0.3623 -0.0198 -0.1462
 4289TIP3    H134282   3.206   6.478  16.546  0.9308  1.6371  0.1109
 4289TIP3    H234283   3.298   6.376  16.483 -0.4959  0.7231 -0.5544
 4290TIP3   OH234284   4.431   5.165   0.149 -0.0319  0.1718  0.3162
 4290TIP3    H134285   4.430   5.202   0.061  0.2104 -0.4535  0.0428
 4290TIP3    H234286   4.506   5.206   0.191 -0.3550  0.7363  0.3539
 4291TIP3   OH234287   1.328   3.649   4.658  0.2061 -0.0884  0.2375
 4291TIP3    H134288   1.263   3.720   4.656 -0.1346 -0.3553 -2.8507
 4291TIP3    H234289   1.310   3.603   4.740 -1.7589  1.4293  0.7428
 4292TIP3   OH234290   3.724   4.871  16.609 -0.1967  0.2394  0.3492
 4292TIP3    H134291   3.760   4.917  16.685  2.1282  0.2405 -0.6664
 4292TIP3    H234292   3.719   4.938  16.541 -0.1010 -0.2338 -0.1305
 4293TIP3   OH234293   3.978   1.715  14.185  0.0489 -0.3982  0.3410
 4293TIP3    H134294   4.070   1.708  14.208  0.1001  0.3840  0.4037
 4293TIP3    H234295   3.949   1.795  14.228 -0.5943 -0.4982  0.0994
 4294TIP3   OH234296   3.486   0.362  15.939  0.5521  0.6057 -0.1376
 4294TIP3    H134297   3.534   0.316  15.870  1.9050 -0.5071  1.4648
 4294TIP3    H234298   3.394   0.343  15.922  0.7027  1.7147 -2.5384
 4295TIP3   OH234299   2.074   2.959  16.530  0.4810  0.1141 -0.3655
 4295TIP3    H134300   2.062   2.867  16.554  1.9549  0.0013  0.0293
 4295TIP3    H234301   2.046   2.964  16.439 -0.6822 -0.4641 -0.0687
 4296TIP3   OH234302   6.607   5.748   2.541 -0.0586  0.3543 -0.5464
 4296TIP3    H134303   6.673   5.817   2.552  2.2021 -1.4659 -1.8633
 4296TIP3    H234304   6.576   5.731   2.630  1.9251  0.7101  0.2748
 4297TIP3   OH234305   4.749   0.161   5.050 -0.3082 -0.1155  0.7520
 4297TIP3    H134306   4.656   0.183   5.057  0.0586  1.3517  1.4981
 4297TIP3    H234307   4.794   0.245   5.054  0.9774 -0.4951 -2.5279
 4298TIP3   OH234308   1.585   1.835  10.943  0.4804 -0.2872  1.1443
 4298TIP3    H134309   1.601   1.741  10.932  0.1368 -0.1954 -0.3095
 4298TIP3    H234310   1.523   1.840  11.016 -0.9452 -1.3407  0.0648
 4299TIP3   OH234311   1.048   0.132  12.141  0.3400  0.4711  0.1305
 4299TIP3    H134312   1.041   0.224  12.165  0.3475  0.8240 -1.1188
 4299TIP3    H234313   1.000   0.085  12.209  1.1466  1.3098  1.2955
 4300TIP3   OH234314   5.540   6.176   0.503  0.1716 -0.1497  0.7000
 4300TIP3    H134315   5.596   6.149   0.430  0.1747  2.1212 -0.1968
 4300TIP3    H234316   5.599   6.223   0.562 -0.2314 -0.3051  1.2348
 4301TIP3   OH234317   1.945   6.227   3.313  0.2125  0.3844 -0.5875
 4301TIP3    H134318   1.858   6.208   3.277  0.6312 -0.4937 -1.1693
 4301TIP3    H234319   1.990   6.273   3.243  0.9870 -1.2151 -1.2022
 4302TIP3   OH234320   0.571   4.591  11.725  0.7684 -0.1006  0.7482
 4302TIP3    H134321   0.488   4.544  11.720  0.1566  1.0539 -0.6116
 4302TIP3    H234322   0.558   4.669  11.671  2.8968 -0.1415  0.0786
 4303TIP3   OH234323   0.956   5.231   1.439 -0.5720  0.4360  0.1486
 4303TIP3    H134324   1.048   5.258   1.436 -0.7996  1.1969 -0.2485
 4303TIP3    H234325   0.957   5.139   1.411  0.0786  0.4006  0.2743
 4304TIP3   OH234326   0.558   2.188  16.028 -0.1471  0.1580 -0.1425
 4304TIP3    H134327   0.576   2.103  15.987  1.8753  0.6602 -0.4019
 4304TIP3    H234328   0.485   2.224  15.978 -1.4604 -1.6475  0.3590
 4305TIP3   OH234329   2.734   4.059  14.362  0.2777 -0.3916 -0.3083
 4305TIP3    H134330   2.697   4.000  14.296  0.9808 -1.0272 -0.1520
 4305TIP3    H234331   2.821   4.081  14.328  0.0508  0.5046 -0.3256
 4306TIP3   OH234332   0.948   6.199   1.416 -0.4160  0.0915 -0.3981
 4306TIP3    H134333   0.901   6.250   1.350 -1.8495 -0.2797  0.2919
 4306TIP3    H234334   0.913   6.230   1.499  1.3493  0.5347  0.2210
 4307TIP3   OH234335   6.515   3.807  14.969  0.2744  0.4019 -0.0766
 4307TIP3    H134336   6.582   3.874  14.959  0.0925  0.9781  2.1482
 4307TIP3    H234337   6.557   3.726  14.941  2.5644  0.4286  2.8500
 4308TIP3   OH234338   6.412   3.217   4.176  0.0092 -0.0575 -0.1939
 4308TIP3    H134339   6.351   3.269   4.229  0.7167  0.2209  0.3637
 4308TIP3    H234340   6.388   3.126   4.195 -1.1958  0.0385 -1.1295
 4309TIP3   OH234341   5.424   1.589  14.787  0.4054  0.8129  0.0484
 4309TIP3    H134342   5.396   1.552  14.870 -0.3820 -0.7646 -0.8776
 4309TIP3    H234343   5.372   1.543  14.721  1.5026  1.5125 -1.3677
 4310TIP3   OH234344   2.906   2.332   3.763 -0.2679  0.3070  0.6369
 4310TIP3    H134345   2.838   2.392   3.730  0.7394  1.7669  1.0898
 4310TIP3    H234346   2.857   2.264   3.809 -1.5291  0.1011 -0.9069
 4311TIP3   OH234347   6.255   2.239  12.938  0.4064  0.2231 -0.2742
 4311TIP3    H134348   6.343   2.242  12.976 -0.3906  2.2885  1.6473
 4311TIP3    H234349   6.197   2.268  13.009 -1.9486 -1.7811 -1.2319
 4312TIP3   OH234350   2.620   4.953   4.789 -0.3694 -0.1282 -0.2156
 4312TIP3    H134351   2.693   4.898   4.817  0.5178  0.8187 -0.6031
 4312TIP3    H234352   2.550   4.891   4.770  0.0536 -1.0110  0.9346
 4313TIP3   OH234353   3.009   6.533  13.466  0.5620 -0.0285 -0.5931
 4313TIP3    H134354   2.979   6.443  13.456  1.6612 -0.3444 -1.2690
 4313TIP3    H234355   3.051   6.554  13.382  0.7659  0.9317 -0.2656
 4314TIP3   OH234356   1.087   2.931  16.803 -0.5547 -0.1324 -0.3262
 4314TIP3    H134357   1.175   2.917  16.769 -0.1026 -0.0663  0.7649
 4314TIP3    H234358   1.098   2.930  16.898 -1.5865  0.7964 -0.1814
 4315TIP3   OH234359   1.118   1.199   0.566  0.0692 -0.4112 -0.3203
 4315TIP3    H134360   1.164   1.117   0.584 -1.8762 -1.4259  0.2108
 4315TIP3    H234361   1.058   1.210   0.639  1.2472  2.2636  0.3585
 4316TIP3   OH234362   4.837   0.620   4.136 -0.5219  0.1348  0.3757
 4316TIP3    H134363   4.920   0.617   4.183 -0.3447  0.1447  0.0699
 4316TIP3    H234364   4.859   0.592   4.047 -0.7079  0.8613  0.0922
 4317TIP3   OH234365   5.537   1.225   1.306 -0.4471  0.4160 -0.3277
 4317TIP3    H134366   5.518   1.134   1.328  0.8768  0.2760  0.3325
 4317TIP3    H234367   5.530   1.229   1.211  0.9494 -0.7454 -0.5011
 4318TIP3   OH234368   2.188   1.102  14.324 -0.6321 -0.1562  0.2148
 4318TIP3    H134369   2.177   1.075  14.415 -1.7416  1.4544  0.6062
 4318TIP3    H234370   2.106   1.147  14.302 -0.1045  0.1231 -1.3511
 4319TIP3   OH234371   3.973   6.395  14.672  0.6521  0.2374 -0.6932
 4319TIP3    H134372   4.030   6.458  14.628  1.0092 -0.5420 -1.3860
 4319TIP3    H234373   3.906   6.448  14.714  1.2941  1.1093 -0.7494
 4320TIP3   OH234374   1.176   1.751   2.065 -0.2738  0.0599  0.5421
 4320TIP3    H134375   1.160   1.693   1.991  0.7685  0.5475 -0.1009
 4320TIP3    H234376   1.095   1.749   2.116 -0.0862 -2.3545  0.8575
 4321TIP3   OH234377   6.026   4.074   1.027  0.2936  0.1581 -0.0785
 4321TIP3    H134378   5.985   4.149   0.985 -1.0711  0.0080  0.9009
 4321TIP3    H234379   6.054   4.107   1.113  2.6832  0.3646 -0.8549
 4322TIP3   OH234380   4.186   0.468  15.311 -0.4953 -0.0725  0.3770
 4322TIP3    H134381   4.202   0.374  15.320 -1.1879 -0.4629 -1.9150
 4322TIP3    H234382   4.125   0.489  15.382 -2.1508 -1.8570 -0.4383
 4323TIP3   OH234383   3.754   2.760   4.361 -0.3104 -0.4212  0.1100
 4323TIP3    H134384   3.747   2.848   4.323  0.7477 -0.7571 -0.9391
 4323TIP3    H234385   3.665   2.739   4.389 -0.8412  0.4804 -0.8136
 4324TIP3   OH234386   4.115   6.163   1.882 -0.3584 -0.6046  0.3151
 4324TIP3    H134387   4.199   6.209   1.877 -0.2978 -0.7680 -0.1780
 4324TIP3    H234388   4.134   6.084   1.932  0.2782 -1.7263 -1.6168
 4325TIP3   OH234389   6.062   5.772  16.632 -0.2079  0.1401 -0.2153
 4325TIP3    H134390   6.107   5.851  16.663  0.0433 -0.1047  0.0446
 4325TIP3    H234391   6.038   5.793  16.541 -0.5617  0.6930 -0.0053
 4326TIP3   OH234392   0.121   6.252  16.795  0.3905  0.8337  0.7201
 4326TIP3    H134393   0.156   6.324  16.741  1.4796  1.2254  1.9049
 4326TIP3    H234394   0.026   6.260  16.785  0.5303  1.4976 -0.3572
 4327TIP3   OH234395   0.985   4.621   3.211 -0.2522 -0.2890 -0.2754
 4327TIP3    H134396   0.994   4.657   3.299  1.3471 -0.5169 -0.3064
 4327TIP3    H234397   1.014   4.530   3.219 -1.1868 -0.6476 -0.8253
 4328TIP3   OH234398   5.840   5.703   2.084 -0.1909 -0.3061  0.0508
 4328TIP3    H134399   5.895   5.777   2.058 -0.4321  0.1260  0.7383
 4328TIP3    H234400   5.900   5.644   2.129 -0.6199  1.1621  2.7614
 4329TIP3   OH234401   1.821   6.786  13.081 -0.0229 -0.0709 -0.0977
 4329TIP3    H134402   1.843   6.878  13.096  1.5677 -0.3707 -0.4223
 4329TIP3    H234403   1.725   6.785  13.080 -0.0853  1.5130  0.2783
 4330TIP3   OH234404   4.820   1.553  11.109  0.4212 -0.2357 -0.0986
 4330TIP3    H134405   4.764   1.573  11.034  1.5802 -2.1963 -1.5756
 4330TIP3    H234406   4.794   1.466  11.136 -0.0280  0.4758  1.8838
 4331TIP3   OH234407   0.300   0.686   1.985 -0.2323 -0.4656 -0.1464
 4331TIP3    H134408   0.218   0.671   1.938 -0.6611  0.2217  0.3611
 4331TIP3    H234409   0.291   0.774   2.022  1.1479  0.0359 -0.9273
 4332TIP3   OH234410   6.354   0.410  11.494 -0.1315  0.5819 -0.1777
 4332TIP3    H134411   6.410   0.485  11.475  0.3630  0.7436  1.7855
 4332TIP3    H234412   6.408   0.350  11.545  0.3212 -2.3762 -3.6742
 4333TIP3   OH234413   0.297   3.673  13.258  0.9549 -0.3884  0.2518
 4333TIP3    H134414   0.379   3.625  13.245  1.8251  1.3326 -1.0434
 4333TIP3    H234415   0.323   3.765  13.258 -0.7888  0.1598  1.5711
 4334TIP3   OH234416   1.978   3.750   1.579 -0.4704  0.4997  0.3762
 4334TIP3    H134417   2.056   3.793   1.615  0.9522 -1.8021  0.2973
 4334TIP3    H234418   2.006   3.718   1.493 -2.0454  1.0035 -0.3513
 4335TIP3   OH234419   3.567   0.332  13.124  0.1813 -0.2827  0.4207
 4335TIP3    H134420   3.548   0.295  13.210  0.8997 -0.9835  0.2889
 4335TIP3    H234421   3.622   0.267  13.081  1.2492  0.8110  0.0750
 4336TIP3   OH234422   0.574   5.666  14.857  0.2411  1.2677  0.4318
 4336TIP3    H134423   0.585   5.755  14.892 -1.3829  1.7882 -0.2999
 4336TIP3    H234424   0.579   5.678  14.762  0.0648  0.5683  0.3351
 4337TIP3   OH234425   0.289   5.558  13.353  0.2977  0.5873  0.5839
 4337TIP3    H134426   0.316   5.646  13.325 -1.8980  1.6283  1.4708
 4337TIP3    H234427   0.368   5.520  13.391  1.2439  2.2745  0.4190
 4338TIP3   OH234428   4.648   6.580  16.145 -0.1786  0.1489  0.3966
 4338TIP3    H134429   4.609   6.494  16.161  0.5122 -0.1462  0.5094
 4338TIP3    H234430   4.694   6.571  16.061 -0.8443  0.6746 -0.0435
 4339TIP3   OH234431   3.125   6.339  11.824 -0.1846 -0.0234  0.3692
 4339TIP3    H134432   3.177   6.411  11.787 -1.3865  0.5944 -0.2086
 4339TIP3    H234433   3.084   6.298  11.748 -2.1360  0.8111  0.9072
 4340TIP3   OH234434   1.190   0.839   2.321  0.2425 -0.2955 -0.4148
 4340TIP3    H134435   1.164   0.839   2.413  2.5353 -2.1013  0.3440
 4340TIP3    H234436   1.194   0.747   2.297  0.2656  0.1297 -2.1671
 4341TIP3   OH234437   5.894   6.393   0.378  0.0929  0.2543  0.1010
 4341TIP3    H134438   5.933   6.310   0.405  0.1797  0.5108  0.7833
 4341TIP3    H234439   5.870   6.380   0.287  4.0478  0.8577 -1.2192
 4342TIP3   OH234440   2.626   3.272  11.047  0.7854 -0.2854  0.6486
 4342TIP3    H134441   2.698   3.211  11.028  0.5431 -0.4033  0.0842
 4342TIP3    H234442   2.581   3.282  10.963 -0.4248 -0.9484  1.1923
 4343TIP3   OH234443   5.542   5.934   4.397 -0.2719  0.0656 -0.4013
 4343TIP3    H134444   5.492   5.864   4.353  0.6074 -1.3337  0.7407
 4343TIP3    H234445   5.633   5.907   4.389 -0.0906 -0.9198  3.1986
 4344TIP3   OH234446   3.012   1.003  12.113 -0.3614 -0.0850 -0.8489
 4344TIP3    H134447   3.044   0.927  12.161  0.3525 -0.4757 -1.9020
 4344TIP3    H234448   2.969   1.057  12.179 -0.0389 -0.9416  0.0858
 4345TIP3   OH234449   4.275   4.584   4.201  0.1669 -0.3148 -0.2636
 4345TIP3    H134450   4.203   4.586   4.139 -0.7234 -1.1195  0.7153
 4345TIP3    H234451   4.327   4.508   4.175 -1.9027 -2.5855  1.7417
 4346TIP3   OH234452   4.050   1.496   0.715 -0.5402 -0.4854  0.6839
 4346TIP3    H134453   4.106   1.570   0.735 -1.0833  0.2046 -0.2816
 4346TIP3    H234454   3.965   1.518   0.753 -1.1057  0.0729 -0.8200
 4347TIP3   OH234455   3.571   2.165   1.632 -0.9192  0.1854 -0.0877
 4347TIP3    H134456   3.539   2.189   1.545 -0.5214 -0.8264 -0.5160
 4347TIP3    H234457   3.622   2.086   1.618 -0.7291  0.0992  1.0505
 4348TIP3   OH234458   5.225   1.794  15.705  0.4919  0.0988  0.3200
 4348TIP3    H134459   5.199   1.743  15.629  0.2214  1.1143 -0.2869
 4348TIP3    H234460   5.301   1.747  15.740  1.6357  0.4433 -1.5124
 4349TIP3   OH234461   4.441   0.671   5.956  0.5255  0.5985 -0.5736
 4349TIP3    H134462   4.414   0.618   5.881  2.4866  2.3286 -2.6638
 4349TIP3    H234463   4.395   0.633   6.030  1.3111 -3.5924 -1.9626
 4350TIP3   OH234464   0.254   6.324   4.338 -0.1022 -0.7644 -0.0389
 4350TIP3    H134465   0.187   6.281   4.284  0.5813 -0.3731 -1.2529
 4350TIP3    H234466   0.248   6.417   4.314 -0.2666 -0.4654  1.1195
 4351TIP3   OH234467   4.372   1.318  16.312 -0.3496 -0.0443  0.7688
 4351TIP3    H134468   4.288   1.330  16.357  0.2677 -1.0076  2.2628
 4351TIP3    H234469   4.435   1.308  16.383  0.7400 -1.2845 -0.3292
 4352TIP3   OH234470   3.875   1.671  10.667 -0.0464 -0.0767  0.5733
 4352TIP3    H134471   3.849   1.627  10.748 -1.3346 -0.4910 -0.0487
 4352TIP3    H234472   3.909   1.755  10.696 -0.5496 -0.1938  1.5516
 4353TIP3   OH234473   0.572   4.308   4.398 -0.1616  0.6536  0.1086
 4353TIP3    H134474   0.478   4.307   4.381 -0.2298  0.2759  0.4710
 4353TIP3    H234475   0.579   4.299   4.494  0.2290  1.2662  0.1425
 4354TIP3   OH234476   4.053   4.516  10.390 -0.0058 -0.2278  0.1404
 4354TIP3    H134477   4.032   4.577  10.319  1.6140 -0.9854 -1.0457
 4354TIP3    H234478   4.051   4.570  10.469  0.8853  1.2726 -0.8096
 4355TIP3   OH234479   6.134   1.174   4.969  0.1275 -0.2004  0.0686
 4355TIP3    H134480   6.211   1.221   4.937  0.3930 -0.5984  0.1220
 4355TIP3    H234481   6.117   1.211   5.055  1.1941 -1.1706  0.7266
 4356TIP3   OH234482   5.012   5.457  12.027  0.4075 -0.1111 -0.1874
 4356TIP3    H134483   5.014   5.544  11.986 -0.7485 -0.2116 -0.4842
 4356TIP3    H234484   5.001   5.475  12.121 -0.4593  0.0697 -0.3121
 4357TIP3   OH234485   0.567   0.841   0.837 -0.1988 -0.2096  0.0921
 4357TIP3    H134486   0.542   0.883   0.755 -1.2018 -2.0973 -0.6391
 4357TIP3    H234487   0.649   0.883   0.862 -0.9082  1.8019 -0.7983
 4358TIP3   OH234488   4.006   5.420   3.206 -0.4705 -0.5548 -0.1138
 4358TIP3    H134489   3.913   5.400   3.217  0.1255 -4.1495 -0.3180
 4358TIP3    H234490   4.027   5.386   3.119  1.1906 -0.5755  0.2663
 4359TIP3   OH234491   5.375   1.228   0.183  0.4585 -0.5286  0.5997
 4359TIP3    H134492   5.320   1.212   0.260 -0.4126 -2.5113 -0.3388
 4359TIP3    H234493   5.444   1.162   0.190  0.3715 -0.7223 -0.2959
 4360TIP3   OH234494   0.013   4.076   4.083 -0.7226 -0.6378  0.7740
 4360TIP3    H134495   0.022   4.160   4.129 -1.6872  0.6245 -1.1858
 4360TIP3    H234496  -0.079   4.052   4.094 -1.0302 -0.2069 -0.5448
 4361TIP3   OH234497   4.592   5.539  11.140 -0.2714 -0.5813  0.0792
 4361TIP3    H134498   4.529   5.479  11.100 -0.7853  0.8253 -1.3770
 4361TIP3    H234499   4.546   5.576  11.215 -0.7112 -0.4864 -0.2355
 4362TIP3   OH234500   6.418   6.565   1.230  0.7254 -0.7697  0.1293
 4362TIP3    H134501   6.378   6.652   1.224  3.9529  0.7491 -1.5327
 4362TIP3    H234502   6.409   6.542   1.323  0.2683  1.5793  0.7500
 4363TIP3   OH234503   0.006   2.536   2.373  0.2598  0.3287 -0.2943
 4363TIP3    H134504   0.027   2.520   2.281 -1.3440  2.0139 -1.0084
 4363TIP3    H234505  -0.027   2.452   2.405 -1.4804  0.2968 -1.9802
 4364TIP3   OH234506   1.889   5.736   0.952 -0.1370 -0.2272  0.9066
 4364TIP3    H134507   1.870   5.744   0.859  1.0892 -2.2080  0.4127
 4364TIP3    H234508   1.808   5.759   0.996 -1.3710 -1.2164 -0.7472
 4365TIP3   OH234509   4.555   2.163   1.573 -0.1751  0.0941  0.0202
 4365TIP3    H134510   4.648   2.154   1.549 -0.1957 -0.5276  0.1396
 4365TIP3    H234511   4.530   2.250   1.542 -0.0934 -0.4910 -1.8612
 4366TIP3   OH234512   6.315   4.044   0.811  0.5986 -0.3849  0.2039
 4366TIP3    H134513   6.406   4.064   0.833  0.8843 -1.6365  0.2153
 4366TIP3    H234514   6.321   3.965   0.757 -0.2763  1.0407 -2.1228
 4367TIP3   OH234515   1.273   1.204   0.213  0.0378 -0.2760 -0.7325
 4367TIP3    H134516   1.292   1.296   0.231  1.2515 -0.6530  0.0184
 4367TIP3    H234517   1.251   1.167   0.299 -0.3702 -0.7097 -1.0175
 4368TIP3   OH234518   2.696   2.802  11.058 -0.3599  0.7165  0.4347
 4368TIP3    H134519   2.612   2.804  11.103  0.1124  0.9669  1.3439
 4368TIP3    H234520   2.675   2.790  10.965 -1.3453 -0.1772  0.7680
 4369TIP3   OH234521   2.702   5.068  10.688 -0.2568 -0.1917 -0.1576
 4369TIP3    H134522   2.660   5.131  10.746  0.6920 -0.8575  1.3343
 4369TIP3    H234523   2.745   5.121  10.622  2.1216  0.9752  2.1256
 4370TIP3   OH234524   3.711   2.775   2.578  0.2661  0.8144 -0.0286
 4370TIP3    H134525   3.712   2.722   2.657 -1.1199 -0.3778 -0.7543
 4370TIP3    H234526   3.802   2.802   2.566  0.7818 -0.3147  1.1010
 4371TIP3   OH234527   0.611   0.411   4.656  0.8118 -0.4556  0.0900
 4371TIP3    H134528   0.579   0.362   4.581 -1.9801 -1.4291  1.7578
 4371TIP3    H234529   0.622   0.346   4.725 -2.0417  0.9148  2.0696
 4372TIP3   OH234530   1.774   2.362   4.066 -0.0759 -0.3041  0.3717
 4372TIP3    H134531   1.761   2.289   4.126 -1.7055  0.1357  0.5908
 4372TIP3    H234532   1.836   2.419   4.111  0.0191 -0.7976  0.8741
 4373TIP3   OH234533   5.259   5.950  15.395 -0.4250 -0.3979 -0.0629
 4373TIP3    H134534   5.318   5.911  15.330 -0.0256  0.0630  0.0205
 4373TIP3    H234535   5.237   6.036  15.359 -0.3856 -0.2350  0.3023
 4374TIP3   OH234536   4.211   3.341   4.193  0.1165  0.3689  0.5656
 4374TIP3    H134537   4.265   3.388   4.130 -1.0630  0.7099 -0.2219
 4374TIP3    H234538   4.266   3.333   4.271  1.6878 -0.2363 -0.5445
 4375TIP3   OH234539   4.950   3.016  16.637 -0.1845  0.1192  0.5049
 4375TIP3    H134540   4.991   2.999  16.551 -2.0254 -2.4912  0.0271
 4375TIP3    H234541   4.863   3.049  16.616 -0.1363  0.8513  1.4193
 4376TIP3   OH234542   3.840   4.246  11.776 -0.0886  0.3251  0.0308
 4376TIP3    H134543   3.817   4.325  11.727 -2.1872 -0.5640 -0.5366
 4376TIP3    H234544   3.912   4.273  11.833  1.7741  1.7071 -2.7259
 4377TIP3   OH234545   2.953   2.045  15.658 -0.4667  0.0950 -0.5418
 4377TIP3    H134546   3.034   2.082  15.624 -0.3801 -0.7314 -1.2663
 4377TIP3    H234547   2.958   1.952  15.637 -1.9011  0.1385 -1.2063
 4378TIP3   OH234548   3.708   5.944  14.654  0.0951  0.0139 -0.2042
 4378TIP3    H134549   3.739   5.877  14.593 -2.0167 -1.2809  0.0546
 4378TIP3    H234550   3.752   6.025  14.625  1.0866 -1.0429 -1.8301
 4379TIP3   OH234551   1.504   5.213  12.847 -0.6526 -0.6481 -0.3341
 4379TIP3    H134552   1.443   5.284  12.827  1.2220  0.8768 -0.9358
 4379TIP3    H234553   1.505   5.158  12.769 -0.2547  0.1122 -0.8833
 4380TIP3   OH234554   1.641   6.802   4.755  0.5498  0.2960  0.1579
 4380TIP3    H134555   1.651   6.749   4.834  1.9831  1.3424  0.7204
 4380TIP3    H234556   1.730   6.817   4.725  0.0464  0.3986 -1.3503
 4381TIP3   OH234557   6.394   6.643  15.509 -0.0485  0.2594  0.0427
 4381TIP3    H134558   6.452   6.656  15.584  1.0199  1.5772 -0.9685
 4381TIP3    H234559   6.324   6.707  15.522 -1.1053 -1.0122  1.0136
 4382TIP3   OH234560   6.087   4.439   1.351 -0.0642  0.3298  0.5352
 4382TIP3    H134561   6.135   4.520   1.366  0.5645  0.0843 -0.0820
 4382TIP3    H234562   6.016   4.463   1.292  0.4909  0.3251 -0.1500
 4383TIP3   OH234563   4.892   1.680   1.875 -0.2697 -0.3920 -0.0904
 4383TIP3    H134564   4.947   1.628   1.933 -1.0637 -2.1650 -0.8704
 4383TIP3    H234565   4.807   1.683   1.919 -0.0469  0.9710  0.3240
 4384TIP3   OH234566   2.060   6.067  16.234 -0.1549  0.9184  0.8888
 4384TIP3    H134567   2.144   6.029  16.211 -0.2899  1.2489 -0.2096
 4384TIP3    H234568   2.050   6.048  16.327  1.1675  0.9538  1.0572
 4385TIP3   OH234569   5.784   3.055   3.630  0.0398  0.1801 -0.1133
 4385TIP3    H134570   5.860   3.032   3.683  2.4002  0.5401 -3.0942
 4385TIP3    H234571   5.747   2.971   3.603  1.2344 -0.0850 -1.0231
 4386TIP3   OH234572   1.239   0.623   2.561  0.5659 -0.4550  0.2423
 4386TIP3    H134573   1.312   0.562   2.575  0.4095 -0.4784  1.0031
 4386TIP3    H234574   1.205   0.600   2.475 -0.1809 -2.1978  0.9424
 4387TIP3   OH234575   3.608   6.107  12.317 -0.0927  0.4287  0.4001
 4387TIP3    H134576   3.591   6.025  12.270  2.2014 -0.2965  0.7249
 4387TIP3    H234577   3.524   6.129  12.356 -0.9903 -1.3146 -0.3940
 4388TIP3   OH234578   5.370   3.570   1.023  0.3073  0.2749  0.1798
 4388TIP3    H134579   5.348   3.477   1.037  0.8903 -0.0987 -1.1998
 4388TIP3    H234580   5.310   3.598   0.954  2.0142  0.0866 -1.4684
 4389TIP3   OH234581   6.177   2.423   5.408 -0.0426 -0.1457  0.4073
 4389TIP3    H134582   6.202   2.345   5.457 -0.7037  0.2047  1.3584
 4389TIP3    H234583   6.243   2.489   5.432  0.2569 -0.2835 -0.0371
 4390TIP3   OH234584   5.521   2.296   4.662 -0.1724  0.5788  0.6166
 4390TIP3    H134585   5.536   2.359   4.732  1.3469  1.2834 -0.3075
 4390TIP3    H234586   5.597   2.238   4.665  0.3346  1.1264 -0.9690
 4391TIP3   OH234587   3.865   1.486   5.127  0.0458 -0.2749  0.4791
 4391TIP3    H134588   3.886   1.393   5.141 -1.8331 -0.9530 -0.7033
 4391TIP3    H234589   3.775   1.494   5.159  0.1052  1.0910  0.3331
 4392TIP3   OH234590   6.805   6.684  15.871 -0.4757 -0.2183 -0.4375
 4392TIP3    H134591   6.841   6.741  15.939  3.1976 -1.7989 -0.8006
 4392TIP3    H234592   6.780   6.604  15.918  1.2583 -0.9843 -0.7501
 4393TIP3   OH234593   5.189   0.630   4.837  0.0385 -0.2806 -0.0735
 4393TIP3    H134594   5.196   0.535   4.847 -1.5511 -0.4090 -0.0447
 4393TIP3    H234595   5.203   0.665   4.925 -1.3720 -0.6274  0.3064
 4394TIP3   OH234596   5.115   3.127   5.682 -0.3193 -0.2128 -0.2106
 4394TIP3    H134597   5.029   3.134   5.641  0.3957 -1.4755 -2.0515
 4394TIP3    H234598   5.152   3.045   5.647  0.5114 -1.2131  2.7248
 4395TIP3   OH234599   0.097   6.454  13.873 -0.0955 -0.8131  0.2541
 4395TIP3    H134600   0.133   6.456  13.784  1.4325 -0.6653  0.8521
 4395TIP3    H234601   0.003   6.470  13.861  0.2332  0.2168 -1.2548
 4396TIP3   OH234602   5.523   6.276   0.973  0.1954 -0.3572 -0.4293
 4396TIP3    H134603   5.537   6.285   1.068 -0.2065 -2.0356 -0.1904
 4396TIP3    H234604   5.606   6.303   0.934  0.5644 -0.2238  0.4260
 4397TIP3   OH234605   2.044   5.176   1.622  0.2547 -0.2454 -0.3320
 4397TIP3    H134606   2.081   5.260   1.648 -0.3156 -0.9474  3.2450
 4397TIP3    H234607   2.106   5.140   1.559  0.8354  2.5220 -1.4692
 4398TIP3   OH234608   2.758   4.872  12.420 -0.1761 -0.9174  0.2907
 4398TIP3    H134609   2.751   4.856  12.326 -0.4329 -0.5251  0.2394
 4398TIP3    H234610   2.695   4.812  12.460 -0.2549 -0.8994  0.1938
 4399TIP3   OH234611   1.115   5.896  16.000 -0.2889  0.0510  0.2254
 4399TIP3    H134612   1.104   5.969  15.939 -0.0233 -3.8343 -5.2547
 4399TIP3    H234613   1.209   5.880  16.001 -0.4125 -0.6718  0.6487
 4400TIP3   OH234614   1.236   5.158  16.965  0.0350  0.8825 -0.3250
 4400TIP3    H134615   1.150   5.199  16.975 -0.3188  0.0123  0.3507
 4400TIP3    H234616   1.293   5.207  17.025 -0.5081  0.0837  0.8894
 4401TIP3   OH234617   3.212   1.265   5.764 -0.6372  0.5092  0.1551
 4401TIP3    H134618   3.139   1.203   5.755 -1.2299  1.3345 -0.9829
 4401TIP3    H234619   3.278   1.234   5.704 -0.1691 -0.0476  0.9411
 4402TIP3   OH234620   0.406   6.496  16.935 -0.4817  0.5069  0.5034
 4402TIP3    H134621   0.432   6.417  16.983 -1.2346 -0.0968 -0.0577
 4402TIP3    H234622   0.481   6.515  16.879 -0.7971 -0.6326 -0.3624
 4403TIP3   OH234623   0.458   0.771   5.096 -0.5368  0.3821  0.3178
 4403TIP3    H134624   0.517   0.750   5.024  0.2452 -0.3409  1.1526
 4403TIP3    H234625   0.474   0.863   5.114  1.1184 -0.0556  1.2202
 4404TIP3   OH234626   2.232   6.542   4.831  0.1345  0.4754  0.0049
 4404TIP3    H134627   2.238   6.588   4.747 -1.2227  0.1766 -0.2837
 4404TIP3    H234628   2.312   6.490   4.837 -0.3478 -0.5293 -1.7392
 4405TIP3   OH234629   5.240   3.395   4.201  0.9243 -0.0024 -0.2563
 4405TIP3    H134630   5.173   3.361   4.259  0.3079  0.3009 -0.7768
 4405TIP3    H234631   5.323   3.378   4.247  0.5603 -1.1489  0.0063
 4406TIP3   OH234632   4.908   3.598  12.483  0.1955 -0.7641  0.4562
 4406TIP3    H134633   4.860   3.679  12.498 -0.6555 -0.9896 -0.8635
 4406TIP3    H234634   4.878   3.568  12.398  3.1166 -0.6439 -0.7228
 4407TIP3   OH234635   3.672   1.552   2.022 -0.3373 -0.0770 -0.0910
 4407TIP3    H134636   3.601   1.610   2.049  0.6225  0.7640  0.7113
 4407TIP3    H234637   3.694   1.579   1.933  0.7486  1.4854  0.6155
 4408TIP3   OH234638   4.245   5.855  15.406  0.0731 -0.5783 -0.1483
 4408TIP3    H134639   4.168   5.809  15.439  0.1146 -1.9695 -1.7932
 4408TIP3    H234640   4.214   5.898  15.326  0.8652 -0.7153 -0.5377
 4409TIP3   OH234641   2.988   3.562   3.113 -0.2562  0.0327 -0.3994
 4409TIP3    H134642   2.933   3.634   3.144 -0.6712 -0.1233 -0.7721
 4409TIP3    H234643   2.951   3.485   3.155  0.5131  0.0952  0.4218
 4410TIP3   OH234644   6.397   1.818  16.902 -0.2017 -0.0174  0.0773
 4410TIP3    H134645   6.464   1.886  16.912 -1.7312  1.4636  0.6162
 4410TIP3    H234646   6.356   1.837  16.818  1.0240 -1.8821 -1.0255
 4411TIP3   OH234647   2.677   1.266  16.617  0.1635 -0.4500  0.2747
 4411TIP3    H134648   2.633   1.347  16.641  1.6759  0.0594  1.4999
 4411TIP3    H234649   2.713   1.283  16.530 -1.4826 -0.6698 -0.4871
 4412TIP3   OH234650   2.534   4.059  16.967 -0.2273  0.0530 -0.0694
 4412TIP3    H134651   2.449   4.088  16.933 -0.2782  0.4527  0.3807
 4412TIP3    H234652   2.596   4.082  16.898 -0.3581  0.6531  0.0049
 4413TIP3   OH234653   2.950   6.512  11.268  0.1966  0.2482 -0.3301
 4413TIP3    H134654   2.891   6.438  11.253  2.6280 -1.7444 -0.7447
 4413TIP3    H234655   2.955   6.520  11.363  0.3792 -0.5635 -0.2642
 4414TIP3   OH234656   6.041   5.129  14.150  0.0884  0.4487  0.2642
 4414TIP3    H134657   5.965   5.078  14.123 -0.3131  0.9991  0.3304
 4414TIP3    H234658   6.062   5.097  14.237 -1.0055  1.3161  0.8706
 4415TIP3   OH234659   2.907   1.615   2.621 -0.1780 -0.6308 -0.1230
 4415TIP3    H134660   2.851   1.561   2.565 -0.6760 -0.9443  0.6540
 4415TIP3    H234661   2.983   1.635   2.567 -1.0818 -0.0861 -1.2608
 4416TIP3   OH234662   0.953   5.170  16.540  0.1444  0.3207 -0.0672
 4416TIP3    H134663   0.879   5.137  16.592  1.4236 -0.4410  1.3421
 4416TIP3    H234664   0.937   5.264  16.534 -1.9322 -0.0381 -1.4858
 4417TIP3   OH234665   3.989   2.582   4.287  0.3165 -0.4465  0.4239
 4417TIP3    H134666   4.047   2.651   4.255  1.0157 -2.1606 -2.3877
 4417TIP3    H234667   3.901   2.616   4.273  0.6495 -0.0133 -0.7318
 4418TIP3   OH234668   6.077   1.556   4.449 -0.1141 -0.0365  0.5007
 4418TIP3    H134669   6.058   1.599   4.532 -1.0980  0.3725  0.0691
 4418TIP3    H234670   5.993   1.552   4.403  0.9495  3.0600 -2.0619
 4419TIP3   OH234671   2.762   3.187   4.248 -0.0441  0.1889  0.0998
 4419TIP3    H134672   2.747   3.260   4.308 -1.5226  0.0287 -0.0304
 4419TIP3    H234673   2.688   3.192   4.187  0.0254 -1.2087 -0.1153
 4420TIP3   OH234674   4.530   3.201   4.608 -0.7699 -0.1530 -0.4486
 4420TIP3    H134675   4.542   3.110   4.635 -1.7987  0.0975  0.9801
 4420TIP3    H234676   4.619   3.237   4.608 -0.1043 -1.6046 -2.9451
 4421TIP3   OH234677   6.113   0.795  16.147 -0.1288  0.1973 -0.1927
 4421TIP3    H134678   6.162   0.874  16.125 -0.1379 -0.0726 -1.2405
 4421TIP3    H234679   6.049   0.785  16.076  0.3921 -1.1681 -0.5091
 4422TIP3   OH234680   4.198   2.242   2.110  0.3086 -0.0514  0.0757
 4422TIP3    H134681   4.145   2.300   2.165  0.4330 -0.0428  0.1887
 4422TIP3    H234682   4.155   2.157   2.116 -0.0062  0.0819 -0.2765
 4423TIP3   OH234683   0.777   4.070   4.285 -0.4868 -0.5545 -0.4211
 4423TIP3    H134684   0.707   4.133   4.272 -1.1384 -0.9153  1.1522
 4423TIP3    H234685   0.751   3.995   4.231 -1.7675 -1.0130  0.7826
 4424TIP3   OH234686   6.378   4.146   0.254  0.1701 -0.3924  0.1723
 4424TIP3    H134687   6.424   4.230   0.255  1.8483 -1.2812  0.0186
 4424TIP3    H234688   6.443   4.083   0.223 -1.3453 -1.6037 -0.6597
 4425TIP3   OH234689   1.202   3.753  14.936 -1.0205 -0.2007 -0.3458
 4425TIP3    H134690   1.296   3.754  14.956 -1.1521  1.8320  0.4175
 4425TIP3    H234691   1.163   3.700  15.006 -0.5287 -0.4106 -0.2247
 4426TIP3   OH234692   2.060   2.607   4.501 -0.6643 -0.5178  0.3292
 4426TIP3    H134693   2.101   2.669   4.439  0.8696 -2.5164 -0.7937
 4426TIP3    H234694   2.064   2.652   4.585 -0.4884  1.2894 -0.5832
 4427TIP3   OH234695   3.655   6.004  14.262 -0.5516  0.0439  0.0656
 4427TIP3    H134696   3.564   6.005  14.232 -0.2596  3.2900 -1.1004
 4427TIP3    H234697   3.689   6.090  14.238  2.9225 -1.1216  0.2899
 4428TIP3   OH234698   3.634   4.135  16.772  0.0480  0.0061  0.4170
 4428TIP3    H134699   3.609   4.088  16.852  1.4747  0.9388  1.4537
 4428TIP3    H234700   3.636   4.067  16.704 -1.1761 -0.8031  1.1596
 4429TIP3   OH234701   3.328   4.223  14.999 -0.8166 -0.1502 -0.1053
 4429TIP3    H134702   3.277   4.180  14.930 -0.0360  0.0990 -0.8543
 4429TIP3    H234703   3.322   4.317  14.978  0.8298 -0.1748 -0.8631
 4430TIP3   OH234704   3.294   2.633   4.904 -0.0286  0.1066 -0.2418
 4430TIP3    H134705   3.219   2.653   4.959 -0.4926 -0.4218 -0.6595
 4430TIP3    H234706   3.347   2.572   4.956  0.7120  1.3573  0.5057
 4431TIP3   OH234707   2.895   6.367   5.263 -0.0571  0.2297 -0.3727
 4431TIP3    H134708   2.842   6.335   5.336  0.2151 -2.0779 -1.1065
 4431TIP3    H234709   2.831   6.391   5.196 -0.2623 -0.6978 -0.5302
 4432TIP3   OH234710   0.023   0.525  12.587  0.1792  0.4625 -0.0880
 4432TIP3    H134711  -0.047   0.489  12.532  0.1339 -0.0943  0.3279
 4432TIP3    H234712   0.100   0.526  12.531  0.6387 -2.0066  0.4137
 4433TIP3   OH234713   2.103   0.009  11.781  0.3519 -0.2842  0.4935
 4433TIP3    H134714   2.156   0.078  11.820 -0.6623 -0.7889  2.9618
 4433TIP3    H234715   2.018   0.017  11.825 -1.4270 -0.0602 -2.6422
 4434TIP3   OH234716   3.041   0.415  17.175 -0.4275  0.1063 -0.2501
 4434TIP3    H134717   3.112   0.479  17.178 -0.2534  0.0647 -2.0338
 4434TIP3    H234718   2.984   0.448  17.105 -0.4350 -1.5671 -1.0646
 4435TIP3   OH234719   0.238   1.013  13.191  0.1899  0.4145  0.4496
 4435TIP3    H134720   0.203   0.946  13.250  0.1763 -0.1946 -0.2371
 4435TIP3    H234721   0.319   1.042  13.234  1.4468 -1.6921 -0.3195
 4436TIP3   OH234722   5.006   2.534   1.907 -0.5465 -0.0663  0.1192
 4436TIP3    H134723   4.988   2.623   1.936  1.1252  0.2367  0.3190
 4436TIP3    H234724   5.069   2.544   1.835 -2.6400 -0.9492 -1.9784
 4437TIP3   OH234725   4.178   3.916  10.047 -0.6136 -0.0187  0.4321
 4437TIP3    H134726   4.135   3.830  10.048  0.3824 -0.5318  0.5175
 4437TIP3    H234727   4.107   3.978  10.061 -1.3094 -0.8488  0.7090
 4438TIP3   OH234728   3.358   5.070  11.574  0.3841 -0.2885 -0.4186
 4438TIP3    H134729   3.392   5.086  11.486  1.8140  2.4029  0.4952
 4438TIP3    H234730   3.289   5.005  11.562  1.7434 -1.3830 -3.2411
 4439TIP3   OH234731   6.636   0.909  14.180  0.4563 -0.0995  0.0596
 4439TIP3    H134732   6.602   0.999  14.174  1.8448  0.4146 -0.4420
 4439TIP3    H234733   6.560   0.854  14.159 -0.1698  0.9903 -0.6589
 4440TIP3   OH234734   4.620   2.054  12.403  0.2788 -0.4985 -0.2086
 4440TIP3    H134735   4.555   2.101  12.352 -0.5373 -2.6474 -1.2621
 4440TIP3    H234736   4.585   2.055  12.493 -1.1964 -1.5133 -0.7328
 4441TIP3   OH234737   5.205   1.067  12.117  0.4155 -0.0624 -0.4257
 4441TIP3    H134738   5.184   1.016  12.195  1.6644  0.6467  0.4104
 4441TIP3    H234739   5.294   1.042  12.094  0.8439  1.3071 -0.3325
 4442TIP3   OH234740   4.482   0.301  14.199 -0.1618  0.1875  0.3156
 4442TIP3    H134741   4.471   0.369  14.133  1.3115  0.4212  0.2780
 4442TIP3    H234742   4.553   0.333  14.255  0.6145 -1.3353  0.2526
 4443TIP3   OH234743   4.969   2.186   0.336 -0.6832  0.1106  0.0713
 4443TIP3    H134744   4.983   2.091   0.340 -0.9672  0.0891  0.8148
 4443TIP3    H234745   5.045   2.223   0.382 -0.3957  0.2663 -0.5214
 4444TIP3   OH234746   4.968   3.913   6.259 -0.0482 -0.0240 -0.0730
 4444TIP3    H134747   4.919   3.851   6.205  2.0355 -1.8129 -0.0415
 4444TIP3    H234748   4.918   3.919   6.341 -1.8978  0.7741 -1.2007
 4445TIP3   OH234749   4.886   4.251   3.154  0.3745  0.0401 -0.3059
 4445TIP3    H134750   4.792   4.242   3.138  0.4277  0.9059 -1.1678
 4445TIP3    H234751   4.893   4.326   3.213  0.5196 -0.1601 -0.0622
 4446TIP3   OH234752   2.156   5.843  13.811  0.3044 -0.0476  0.1871
 4446TIP3    H134753   2.127   5.786  13.882  0.3141 -0.0964  0.1526
 4446TIP3    H234754   2.247   5.817  13.796  0.3707  0.1208  0.3100
 4447TIP3   OH234755   3.123   5.596   2.043  0.9025 -0.1463  0.0337
 4447TIP3    H134756   3.041   5.548   2.034  0.6390  0.4169 -0.6514
 4447TIP3    H234757   3.170   5.580   1.961  1.8419 -1.1151  0.7348
 4448TIP3   OH234758   6.024   3.377  13.260  0.0784  0.1657 -0.4426
 4448TIP3    H134759   6.114   3.377  13.292 -0.0107  1.5061 -0.1336
 4448TIP3    H234760   6.033   3.389  13.165  0.2688 -1.8022 -0.7179
 4449TIP3   OH234761   1.538   3.475  15.937 -0.5832 -0.2372  0.1013
 4449TIP3    H134762   1.447   3.495  15.959  0.0717  2.5168  0.6895
 4449TIP3    H234763   1.562   3.539  15.870  1.4738  0.4639  1.3998
 4450TIP3   OH234764   6.214   5.629   1.891 -0.0791  0.3635 -0.0474
 4450TIP3    H134765   6.280   5.560   1.891 -0.7754 -0.5015  3.1732
 4450TIP3    H234766   6.263   5.711   1.891  0.8466 -0.1769 -1.2703
 4451TIP3   OH234767   4.931   1.388   3.661 -0.2871  0.6375  0.2469
 4451TIP3    H134768   5.006   1.446   3.673 -1.0604  1.4675  1.2355
 4451TIP3    H234769   4.969   1.302   3.641  0.8772  1.7095 -2.5278
 4452TIP3   OH234770   0.754   5.371  16.874  0.2278 -0.0911 -0.3406
 4452TIP3    H134771   0.696   5.295  16.880  1.7976 -1.6142 -2.5071
 4452TIP3    H234772   0.723   5.419  16.797 -0.3624  1.1669  0.6492
 4453TIP3   OH234773   5.801   4.969   2.669 -0.1430 -0.3744 -0.1621
 4453TIP3    H134774   5.816   5.048   2.618 -2.7601 -0.8700 -1.8939
 4453TIP3    H234775   5.706   4.966   2.681  0.1847 -0.9616  3.7730
 4454TIP3   OH234776   3.372   2.747  14.132  0.3870 -0.0119  0.3291
 4454TIP3    H134777   3.346   2.740  14.040 -0.0170  0.4256  0.4066
 4454TIP3    H234778   3.321   2.680  14.177  0.1842  0.1330  0.3160
 4455TIP3   OH234779   1.650   5.545   2.259 -0.5260 -0.6447  0.6854
 4455TIP3    H134780   1.639   5.602   2.335 -2.0122 -0.5327  0.4337
 4455TIP3    H234781   1.700   5.471   2.291  1.1061  0.5956  1.1202
 4456TIP3   OH234782   1.127   3.655   0.007  0.4025 -0.3720 -0.3740
 4456TIP3    H134783   1.115   3.578  -0.050 -0.7844  0.0766 -0.7554
 4456TIP3    H234784   1.115   3.621   0.095  1.8640 -1.0001 -0.3967
 4457TIP3   OH234785   4.327   6.208  16.983  0.2498 -0.2881 -0.2146
 4457TIP3    H134786   4.370   6.284  17.022  1.4873 -0.2975 -1.4805
 4457TIP3    H234787   4.396   6.164  16.934 -0.5144 -2.0906  0.2648
 4458TIP3   OH234788   3.975   2.686  14.154  0.1550  0.3694 -0.6984
 4458TIP3    H134789   3.942   2.770  14.186  0.8152  0.6148 -0.6481
 4458TIP3    H234790   3.950   2.623  14.222 -1.1789  0.3400 -1.1777
 4459TIP3   OH234791   4.067   3.355   3.262 -0.1540 -0.3253 -0.0767
 4459TIP3    H134792   4.109   3.274   3.234  1.7791  0.9132 -0.9136
 4459TIP3    H234793   3.973   3.336   3.257  0.2378 -2.3016 -0.8106
 4460TIP3   OH234794   0.697   6.454   2.126 -0.0956  0.0358 -0.3396
 4460TIP3    H134795   0.687   6.385   2.060 -2.9208  0.4730 -0.4929
 4460TIP3    H234796   0.612   6.498   2.128  0.0666  0.4996  3.0984
 4461TIP3   OH234797   6.319   5.143  15.241  0.0046  0.0479  0.1863
 4461TIP3    H134798   6.374   5.065  15.234  0.3904  0.1764  1.4403
 4461TIP3    H234799   6.232   5.114  15.212  0.4672 -0.4476 -0.7461
 4462TIP3   OH234800   4.371   6.065   5.793  0.3349  0.2435  0.6080
 4462TIP3    H134801   4.405   5.982   5.828  2.1140  0.6266 -0.0849
 4462TIP3    H234802   4.318   6.101   5.863 -0.9561 -1.7359  0.7216
 4463TIP3   OH234803   0.353   3.365  13.030 -0.0351 -0.6160 -0.0839
 4463TIP3    H134804   0.333   3.287  12.979  0.2262 -0.6910 -0.0715
 4463TIP3    H234805   0.294   3.432  12.995  0.2986 -0.6076 -0.6284
 4464TIP3   OH234806   6.195   5.398   1.017 -0.1257 -0.3730  0.2532
 4464TIP3    H134807   6.267   5.339   0.997 -0.2184 -0.9139  1.4329
 4464TIP3    H234808   6.131   5.343   1.063 -0.5028  0.4977  0.7904
 4465TIP3   OH234809   5.423   5.090  13.990 -0.5471 -0.4356  0.1869
 4465TIP3    H134810   5.455   5.017  14.042 -0.7700 -0.9015 -0.3170
 4465TIP3    H234811   5.345   5.055  13.945 -1.1126  0.3459  0.5483
 4466TIP3   OH234812   3.553   2.072   2.893 -0.5387  0.3276 -0.2937
 4466TIP3    H134813   3.547   2.059   2.987  0.4252  1.0865 -0.1160
 4466TIP3    H234814   3.644   2.095   2.877 -0.5337 -0.4187 -1.4990
 4467TIP3   OH234815   3.416   5.653   1.831 -0.2089 -0.1612 -0.0032
 4467TIP3    H134816   3.466   5.643   1.750 -0.9347 -1.3595 -0.3227
 4467TIP3    H234817   3.440   5.740   1.864  1.9553 -0.6167 -0.2355
 4468TIP3   OH234818   3.844   2.161   1.114 -0.5833 -0.1874 -0.4590
 4468TIP3    H134819   3.799   2.195   1.192 -0.5723  0.9920 -0.9468
 4468TIP3    H234820   3.884   2.078   1.143 -1.0333 -0.0328  0.6344
 4469TIP3   OH234821   0.580   4.857   2.839  0.4367 -0.4302  0.4704
 4469TIP3    H134822   0.526   4.833   2.914 -1.4348  1.6795 -0.0965
 4469TIP3    H234823   0.631   4.932   2.869 -0.7294  0.7836 -0.4426
 4470TIP3   OH234824   1.530   1.914  14.945 -0.1156  0.1611 -0.2618
 4470TIP3    H134825   1.616   1.875  14.959  0.0248  0.6126  0.1325
 4470TIP3    H234826   1.529   1.993  14.999 -0.7876  0.1472 -0.2384
 4471TIP3   OH234827   4.214   2.377  15.700 -0.2106 -0.2388  0.3318
 4471TIP3    H134828   4.225   2.433  15.777  1.9181 -0.7754  0.4595
 4471TIP3    H234829   4.302   2.365  15.665 -0.9789 -1.0469 -1.4674
 4472TIP3   OH234830   3.695   5.072   0.484 -0.1237 -0.3543  0.1138
 4472TIP3    H134831   3.750   5.150   0.472  0.1386 -0.7800 -1.7674
 4472TIP3    H234832   3.753   4.999   0.462 -0.8711 -0.9497  0.1036
 4473TIP3   OH234833   3.013   5.056   4.777  0.5326  0.1914  0.0164
 4473TIP3    H134834   3.064   5.088   4.852 -1.5596  0.8207  1.2747
 4473TIP3    H234835   2.947   4.998   4.816 -0.9276  0.9207 -1.2405
 4474TIP3   OH234836   4.626   6.431   2.615  0.7899  0.8368 -0.5969
 4474TIP3    H134837   4.615   6.371   2.689 -1.7318 -0.7964 -2.1658
 4474TIP3    H234838   4.581   6.510   2.642 -0.8189 -0.0308 -0.6412
 4475TIP3   OH234839   3.709   6.553  16.588 -0.4576 -0.5391  0.3419
 4475TIP3    H134840   3.752   6.628  16.546 -1.2620  0.7157  1.6862
 4475TIP3    H234841   3.735   6.478  16.534  1.1472  0.5512 -0.4877
 4476TIP3   OH234842   0.601   5.016   1.430  0.1890  0.5479  0.0260
 4476TIP3    H134843   0.609   5.111   1.419  0.2111  0.3549 -1.9576
 4476TIP3    H234844   0.658   4.979   1.362  2.5208 -0.9634  2.5972
 4477TIP3   OH234845   5.075   3.608   1.943  0.1272 -0.1364 -0.4220
 4477TIP3    H134846   5.102   3.683   1.997 -1.3549  0.0602  0.0956
 4477TIP3    H234847   4.980   3.614   1.939  0.0507 -1.4172 -1.2433
 4478TIP3   OH234848   3.918   5.085  14.543 -0.1957 -0.2195 -0.4606
 4478TIP3    H134849   3.869   5.014  14.500  1.2585 -0.3122 -2.0839
 4478TIP3    H234850   3.877   5.165  14.511  0.5415 -0.3000 -1.6854
 4479TIP3   OH234851   0.473   3.755   1.311 -0.4241  0.4104 -0.0251
 4479TIP3    H134852   0.432   3.706   1.382 -0.3074  1.2742  0.6635
 4479TIP3    H234853   0.470   3.846   1.340  0.6157  0.6629 -0.6484
 4480TIP3   OH234854   2.205   0.824   3.033  0.2764 -0.0851  0.4999
 4480TIP3    H134855   2.268   0.877   2.983  0.0746 -0.0124  0.3187
 4480TIP3    H234856   2.138   0.802   2.969 -0.1995  0.3622  0.8401
 4481TIP3   OH234857   0.299   1.038   4.753 -0.0859  0.1583  0.0934
 4481TIP3    H134858   0.385   1.065   4.785 -0.3099  0.0694  0.7761
 4481TIP3    H234859   0.237   1.084   4.810 -0.4858 -0.2018 -0.0520
 4482TIP3   OH234860   0.954   4.723   3.583 -0.4470 -0.2186 -0.1618
 4482TIP3    H134861   0.879   4.675   3.549 -0.1013 -1.1369  0.3420
 4482TIP3    H234862   0.927   4.750   3.672 -0.4131 -0.0017 -0.2165
 4483TIP3   OH234863   4.310   1.692  16.625 -0.4641 -0.0830 -0.2775
 4483TIP3    H134864   4.236   1.738  16.665 -0.4904  0.2960 -0.7494
 4483TIP3    H234865   4.287   1.686  16.532  0.0490 -0.0574 -0.4106
 4484TIP3   OH234866   0.390   6.580  15.717  0.2249  0.5628 -0.8569
 4484TIP3    H134867   0.388   6.525  15.639  1.4978  1.5288 -1.6045
 4484TIP3    H234868   0.336   6.656  15.695 -1.7123 -0.4176  0.2530
 4485TIP3   OH234869   0.019   6.752   4.612  0.2722 -0.3511 -0.0227
 4485TIP3    H134870  -0.003   6.660   4.609 -0.2021 -0.2620  0.7110
 4485TIP3    H234871   0.103   6.756   4.658  0.4475 -0.4389 -0.3309
 4486TIP3   OH234872   3.079   5.527   0.215  0.4072  0.7437  0.4822
 4486TIP3    H134873   3.163   5.520   0.170  0.2396  0.7965  0.1563
 4486TIP3    H234874   3.014   5.499   0.150  0.0470  1.9882  0.2626
 4487TIP3   OH234875   5.373   0.029  13.523  0.2469  0.1624 -0.0555
 4487TIP3    H134876   5.354  -0.018  13.442 -0.9873  0.1585  0.2150
 4487TIP3    H234877   5.361  -0.037  13.592  0.0861  0.4725  0.2134
 4488TIP3   OH234878   1.436   4.955  16.932 -0.0028 -0.2977 -0.3373
 4488TIP3    H134879   1.371   5.022  16.911  0.8381  0.1784 -1.5301
 4488TIP3    H234880   1.443   4.957  17.027 -0.6089  0.7164 -0.3010
 4489TIP3   OH234881   5.057   0.563   5.284 -0.3674  0.1822 -0.5825
 4489TIP3    H134882   5.076   0.518   5.366  1.9520  0.3050 -0.9921
 4489TIP3    H234883   5.018   0.647   5.310 -2.5597 -1.0261  0.2438
 4490TIP3   OH234884   5.212   6.204   4.446 -0.5919 -0.2674  0.7362
 4490TIP3    H134885   5.264   6.264   4.392 -0.6105 -0.2670  0.7185
 4490TIP3    H234886   5.220   6.239   4.535  1.1765 -1.4709  1.0940
 4491TIP3   OH234887   6.067   4.245   4.806  0.3073 -0.4816 -0.3537
 4491TIP3    H134888   6.088   4.212   4.718  1.3022 -0.6399 -0.0728
 4491TIP3    H234889   6.063   4.340   4.796 -1.5071 -0.5805 -0.9473
 4492TIP3   OH234890   6.200   5.212  13.533  0.6480  0.9004  0.4236
 4492TIP3    H134891   6.131   5.267  13.569  0.7196  0.3404  1.4668
 4492TIP3    H234892   6.181   5.209  13.439 -0.2383  1.4577  0.5664
 4493TIP3   OH234893   5.015   3.731  14.776  0.3782  0.3836 -0.0768
 4493TIP3    H134894   5.029   3.823  14.756  1.8787 -0.0384 -1.1388
 4493TIP3    H234895   5.052   3.719  14.863  2.5272  0.3056 -0.9357
 4494TIP3   OH234896   4.251   1.712   0.722 -0.6430 -0.1922  0.4812
 4494TIP3    H134897   4.313   1.770   0.764 -0.4817  0.0752 -0.1110
 4494TIP3    H234898   4.191   1.770   0.675 -2.3842 -0.3336  2.3727
 4495TIP3   OH234899   1.787   4.325  15.189 -0.1845  0.0424  0.0133
 4495TIP3    H134900   1.793   4.238  15.230 -2.0421  0.0114  0.3400
 4495TIP3    H234901   1.873   4.363  15.200 -0.3620 -0.2421  3.3949
 4496TIP3   OH234902   6.694   4.816  10.361  0.2316 -0.0309 -0.6500
 4496TIP3    H134903   6.644   4.804  10.281  0.0775  0.0768 -0.5679
 4496TIP3    H234904   6.649   4.886  10.408  0.4501  0.0578 -0.5716
 4497TIP3   OH234905   6.464   6.458   2.149 -0.5654  0.1802  0.0382
 4497TIP3    H134906   6.527   6.403   2.102  0.7000  1.6862 -0.0937
 4497TIP3    H234907   6.478   6.436   2.241 -1.2736 -0.9413 -0.1103
 4498TIP3   OH234908   3.081   0.969  14.264  0.7703 -0.2758  0.6208
 4498TIP3    H134909   2.986   0.962  14.250  0.6422 -0.2059  1.3883
 4498TIP3    H234910   3.091   1.040  14.327  1.1922 -1.3574  1.8192
 4499TIP3   OH234911   5.493   6.783   4.331  0.6181 -0.2979 -0.0251
 4499TIP3    H134912   5.519   6.691   4.341  0.8637 -0.2662 -0.3735
 4499TIP3    H234913   5.542   6.829   4.399  0.9365 -0.3420 -0.2238
 4500TIP3   OH234914   6.026   2.824  14.429  0.0400 -0.1825 -0.0649
 4500TIP3    H134915   6.014   2.884  14.355 -1.0162  0.1379  0.3396
 4500TIP3    H234916   5.965   2.752  14.412  1.6567 -1.4332 -0.7990
 4501TIP3   OH234917   0.726   1.368  16.338  0.4345 -0.0991 -0.0837
 4501TIP3    H134918   0.669   1.305  16.382  0.6323  0.1608  0.5650
 4501TIP3    H234919   0.669   1.444  16.323  0.7321  0.3630  1.0441
 4502TIP3   OH234920   3.224   4.214   0.266 -0.0733  0.3142 -0.4607
 4502TIP3    H134921   3.251   4.122   0.272  0.2538  0.3376 -1.3599
 4502TIP3    H234922   3.252   4.252   0.349 -1.5433 -0.7169  0.5572
 4503TIP3   OH234923   2.335   1.591   3.725 -0.5083 -0.0150 -0.2053
 4503TIP3    H134924   2.425   1.602   3.694 -0.6130 -0.2646 -0.6003
 4503TIP3    H234925   2.345   1.569   3.818 -0.2076  1.1656  0.0642
 4504TIP3   OH234926   1.140   6.790   1.272 -0.0523 -0.1830  0.3591
 4504TIP3    H134927   1.085   6.864   1.245  1.5865  0.6114 -1.0325
 4504TIP3    H234928   1.089   6.713   1.248 -0.5763  0.5239 -0.9486
 4505TIP3   OH234929   0.660   5.277   1.434 -0.0783  0.8798  0.4670
 4505TIP3    H134930   0.697   5.352   1.388  0.2888  0.4410  0.0311
 4505TIP3    H234931   0.728   5.250   1.495  0.3581  0.0586 -0.3525
 4506TIP3   OH234932   0.495   1.328   1.678  0.0344 -0.2306  0.5479
 4506TIP3    H134933   0.422   1.380   1.710  0.1254  0.6092 -0.5756
 4506TIP3    H234934   0.567   1.348   1.738 -0.2306  0.0933  0.7560
 4507TIP3   OH234935   2.249   4.545   1.319 -0.0955 -0.1049 -0.1487
 4507TIP3    H134936   2.226   4.624   1.271 -0.5943  0.9038  1.6634
 4507TIP3    H234937   2.200   4.475   1.276 -1.3463  0.9312 -0.4441
 4508TIP3   OH234938   5.333   5.216  12.770  0.4343 -0.0718  0.6942
 4508TIP3    H134939   5.388   5.212  12.691 -0.0099 -0.0266  0.3734
 4508TIP3    H234940   5.248   5.182  12.741 -0.4574  2.1474  0.5027
 4509TIP3   OH234941   1.660   0.793   3.473  0.3863 -0.6533  0.3847
 4509TIP3    H134942   1.746   0.754   3.489  0.9923 -0.4027 -1.9589
 4509TIP3    H234943   1.666   0.880   3.513  0.9901 -0.8823  0.8107
 4510TIP3   OH234944   4.687   1.728  12.320  0.7764 -0.1853  0.0827
 4510TIP3    H134945   4.641   1.764  12.396  1.7145  3.4594 -0.8365
 4510TIP3    H234946   4.621   1.674  12.276 -0.9841  0.6950  1.4917
 4511TIP3   OH234947   4.451   2.867   0.077  0.2251 -0.4127  0.0012
 4511TIP3    H134948   4.402   2.787   0.094 -0.9126  0.1775 -0.4310
 4511TIP3    H234949   4.528   2.860   0.134  0.2554 -1.8947 -0.1794
 4512TIP3   OH234950   1.072   4.746  16.410  0.1674 -0.2358  0.8857
 4512TIP3    H134951   1.001   4.731  16.471 -1.5333  1.7773 -0.4589
 4512TIP3    H234952   1.127   4.813  16.452 -0.6397  0.6658  0.5457
 4513TIP3   OH234953   6.673   5.386  12.389 -0.5155 -0.9437  0.1464
 4513TIP3    H134954   6.630   5.357  12.309  0.1637  2.7323 -1.7873
 4513TIP3    H234955   6.767   5.377  12.371 -0.3597 -0.1503  0.4973
 4514TIP3   OH234956   3.940   1.473   4.000 -0.0493 -0.3413 -0.4039
 4514TIP3    H134957   3.915   1.513   3.916 -0.5270 -0.3704 -0.2750
 4514TIP3    H234958   3.897   1.527   4.066 -0.7636 -1.1058 -0.2309
 4515TIP3   OH234959   6.524   1.835   3.291  0.1112  0.8630  0.4657
 4515TIP3    H134960   6.451   1.793   3.335 -0.3527  1.6401  0.4411
 4515TIP3    H234961   6.576   1.874   3.361 -0.4573  1.8280  0.3631
 4516TIP3   OH234962   2.973   2.117  11.068  0.7415  0.3818 -0.4216
 4516TIP3    H134963   2.960   2.143  10.977  0.8358  2.0757  0.0025
 4516TIP3    H234964   2.884   2.114  11.104  0.8053  1.8225 -0.0727
 4517TIP3   OH234965   4.224   3.548  11.436 -0.2559 -0.3192  0.3216
 4517TIP3    H134966   4.153   3.596  11.393  0.4143 -1.2099 -1.8894
 4517TIP3    H234967   4.179   3.484  11.491 -1.2175 -0.7932 -0.9578
 4518TIP3   OH234968   0.461   5.489  10.977  0.3166 -0.5885  0.7429
 4518TIP3    H134969   0.473   5.484  11.071 -0.3495  0.1196  0.8771
 4518TIP3    H234970   0.381   5.438  10.960  0.5098 -0.8277  0.5408
 4519TIP3   OH234971   1.488   6.761  13.112  0.2103  0.1355 -0.5261
 4519TIP3    H134972   1.457   6.709  13.187 -0.0126  0.9875 -0.0206
 4519TIP3    H234973   1.486   6.700  13.039  2.2064 -1.2913  0.4913
 4520TIP3   OH234974   5.013   1.885  12.745 -0.3662  0.1599 -0.1099
 4520TIP3    H134975   5.082   1.939  12.784 -0.6205 -0.3607  1.0966
 4520TIP3    H234976   4.940   1.890  12.807 -1.4944  0.8254 -1.4408
 4521TIP3   OH234977   1.963   3.494  12.135 -0.0998 -0.1045 -0.3375
 4521TIP3    H134978   2.027   3.513  12.066 -0.1229 -1.6428 -0.8121
 4521TIP3    H234979   1.993   3.545  12.210 -0.3029  1.9422 -1.5803
 4522TIP3   OH234980   2.306   0.324   4.416 -0.0706  0.2946 -0.3863
 4522TIP3    H134981   2.290   0.351   4.326  0.0199  0.6420 -0.3007
 4522TIP3    H234982   2.340   0.403   4.459 -1.4669  0.5362  0.3143
 4523TIP3   OH234983   1.616   4.496  12.972  0.4728  0.1519 -0.1430
 4523TIP3    H134984   1.690   4.456  13.017  0.5094  1.4484  1.0197
 4523TIP3    H234985   1.649   4.513  12.884  1.0733 -0.6085 -0.0790
 4524TIP3   OH234986   1.719   6.127  15.177  0.7160 -0.3396 -0.4156
 4524TIP3    H134987   1.748   6.046  15.134  1.3342 -0.3350 -0.0240
 4524TIP3    H234988   1.653   6.098  15.240 -0.6121 -0.2834 -1.7294
 4525TIP3   OH234989   4.314   0.298  12.628  0.0370 -0.0400 -0.0166
 4525TIP3    H134990   4.284   0.375  12.677  1.9222  0.2127  0.8025
 4525TIP3    H234991   4.294   0.224  12.686  0.3334  0.0587  0.2130
 4526TIP3   OH234992   1.926   3.295   4.141 -0.2219 -0.2482  0.2254
 4526TIP3    H134993   1.882   3.273   4.059 -0.4951 -0.4126  0.4129
 4526TIP3    H234994   1.891   3.232   4.205  0.7096 -0.7537  0.2553
 4527TIP3   OH234995   5.931   3.905  16.467 -0.5281  0.5266  0.3728
 4527TIP3    H134996   5.923   3.811  16.451  2.6099  0.1890  0.1595
 4527TIP3    H234997   5.909   3.916  16.559  1.4539 -0.8935  1.0854
 4528TIP3   OH234998   0.093   2.300  14.353 -0.0030 -0.0756  0.9583
 4528TIP3    H134999   0.174   2.257  14.381 -1.4028 -1.8398  2.6393
 4528TIP3    H235000   0.064   2.249  14.278  0.5647  0.7352  0.1753
 4529TIP3   OH235001   0.207   5.277   3.110  0.6579  0.1150 -0.0415
 4529TIP3    H135002   0.168   5.268   3.197 -2.0314  1.8025 -0.9482
 4529TIP3    H235003   0.207   5.371   3.093 -0.3062 -0.2432 -2.4249
 4530TIP3   OH235004   0.230   5.170   5.437 -0.0859  0.4621 -0.0397
 4530TIP3    H135005   0.229   5.192   5.530  0.4937  0.2747  0.0122
 4530TIP3    H235006   0.203   5.078   5.435 -0.4325  0.5633 -0.0868
 4531TIP3   OH235007   2.571   2.410  12.973 -0.9098 -0.0068 -0.1359
 4531TIP3    H135008   2.584   2.502  12.997 -0.7288  0.1414 -0.7926
 4531TIP3    H235009   2.652   2.384  12.930 -0.8907 -0.5316  0.1994
 4532TIP3   OH235010   2.569   6.509  16.514 -0.2264  0.3963 -0.6054
 4532TIP3    H135011   2.579   6.584  16.573  1.8072 -0.2081 -0.0915
 4532TIP3    H235012   2.477   6.510  16.490 -0.9339  1.2678  1.7999
 4533TIP3   OH235013   5.015   0.974   5.668 -0.0131 -0.7012  0.1773
 4533TIP3    H135014   5.086   0.910   5.661  1.1555  0.5362  0.3461
 4533TIP3    H235015   5.037   1.027   5.744 -0.5429  0.3867 -0.4009
 4534TIP3   OH235016   1.720   2.598  16.985  0.1738 -0.4159 -0.1976
 4534TIP3    H135017   1.662   2.535  16.943 -1.4953  1.1288 -0.2996
 4534TIP3    H235018   1.762   2.548  17.056  0.1183 -2.0266 -1.2446
 4535TIP3   OH235019   3.079   6.210   1.324  0.1515  0.1635 -0.7132
 4535TIP3    H135020   2.997   6.230   1.368  0.6456 -0.0169  0.3230
 4535TIP3    H235021   3.053   6.169   1.242 -0.7919  0.2766 -0.4854
 4536TIP3   OH235022   4.037   6.103   3.694  0.3096 -0.1748 -0.5331
 4536TIP3    H135023   3.984   6.023   3.693 -0.6919  0.4711 -1.6794
 4536TIP3    H235024   4.104   6.086   3.760 -1.0728 -1.1946  0.6903
 4537TIP3   OH235025   3.933   2.873   3.825  0.0008  0.3801 -0.1591
 4537TIP3    H135026   4.025   2.874   3.853 -0.5796 -0.5005  2.0068
 4537TIP3    H235027   3.937   2.867   3.730  2.2173 -1.4023 -0.0408
 4538TIP3   OH235028   6.499   2.510   3.468  0.2235 -0.0987  0.6634
 4538TIP3    H135029   6.552   2.487   3.392  2.3195  0.0838  1.9900
 4538TIP3    H235030   6.488   2.605   3.462  1.0031  0.0121  0.9575
 4539TIP3   OH235031   0.372   2.367   4.097  0.0251  0.1830  0.0329
 4539TIP3    H135032   0.341   2.317   4.172 -0.9365  2.0583  0.9483
 4539TIP3    H235033   0.308   2.350   4.028 -0.5029  0.4207  0.4591
 4540TIP3   OH235034   0.153   0.603  11.690 -0.0684  0.1882  0.2780
 4540TIP3    H135035   0.144   0.556  11.773 -0.2660  0.1073  0.2137
 4540TIP3    H235036   0.073   0.657  11.685 -0.5153 -0.5129 -0.2958
 4541TIP3   OH235037   0.877   0.242  11.140 -0.4778  0.3292 -0.2234
 4541TIP3    H135038   0.793   0.282  11.165 -0.2163  0.1047  1.0606
 4541TIP3    H235039   0.875   0.241  11.044 -3.0241 -1.8712 -0.2706
 4542TIP3   OH235040   1.410   3.296   5.013 -0.4614 -0.2004 -0.4522
 4542TIP3    H135041   1.407   3.202   4.999  0.9656 -0.3286  0.0186
 4542TIP3    H235042   1.497   3.323   4.984  0.5575  0.3706  2.6927
 4543TIP3   OH235043   6.090   1.245   4.490  0.5600 -0.1919 -0.1045
 4543TIP3    H135044   6.062   1.154   4.495 -1.4590  0.4199  0.9099
 4543TIP3    H235045   6.020   1.289   4.440  2.2304  0.5700 -1.9003
 4544TIP3   OH235046   2.122   6.641   2.051  0.6139 -0.1876  0.0332
 4544TIP3    H135047   2.207   6.601   2.034  0.2632 -0.8550 -0.1939
 4544TIP3    H235048   2.129   6.730   2.016  1.3394 -0.1100  0.3635
 4545TIP3   OH235049   0.466   2.462   5.198 -0.2336 -0.8902  0.2675
 4545TIP3    H135050   0.524   2.538   5.194  0.0764 -1.1498 -0.2185
 4545TIP3    H235051   0.386   2.490   5.154 -0.9458 -0.1444  1.9244
 4546TIP3   OH235052   1.039   5.549  16.037  0.4579  0.3975 -0.2207
 4546TIP3    H135053   1.082   5.494  16.102  1.1438  1.2464  0.0472
 4546TIP3    H235054   1.110   5.586  15.985  0.0480  1.6333  0.0732
 4547TIP3   OH235055   3.528   2.987   4.105  0.0403 -0.2719 -0.0397
 4547TIP3    H135056   3.547   3.051   4.036 -1.5821  0.9683  0.6000
 4547TIP3    H235057   3.432   2.985   4.110  0.0784  0.3656  2.7558
 4548TIP3   OH235058   3.651   4.653  10.008  0.0263 -0.5024 -0.3851
 4548TIP3    H135059   3.560   4.637   9.983 -0.6201  1.7919  0.2739
 4548TIP3    H235060   3.693   4.685   9.928  0.2915 -1.5959 -0.6992
 4549TIP3   OH235061   5.144   5.814   0.590 -0.0095 -0.0383  0.1588
 4549TIP3    H135062   5.173   5.896   0.549  0.5570 -0.6140 -0.6216
 4549TIP3    H235063   5.141   5.835   0.684 -1.1244  1.2395 -0.1264
 4550TIP3   OH235064   6.075   1.853   6.028  0.1223 -0.3437 -0.4834
 4550TIP3    H135065   6.012   1.817   5.965 -1.6982  1.6400  0.0977
 4550TIP3    H235066   6.028   1.924   6.071  2.1119 -0.1111  1.4730
 4551TIP3   OH235067   5.655   3.489   0.761  0.0560  0.5425  0.4107
 4551TIP3    H135068   5.585   3.554   0.758 -0.4884 -0.0361  0.4153
 4551TIP3    H235069   5.709   3.516   0.836  0.4591  1.6030 -0.2394
 4552TIP3   OH235070   0.490   4.016  14.732 -0.2784 -0.3271 -0.5308
 4552TIP3    H135071   0.528   4.084  14.676  1.0290  0.1657  0.8822
 4552TIP3    H235072   0.404   4.052  14.756  0.0217  0.4179 -0.5264
 4553TIP3   OH235073   1.351   5.627  11.322  0.5920 -0.1794 -0.5573
 4553TIP3    H135074   1.343   5.619  11.417 -1.1023  0.4066 -0.6281
 4553TIP3    H235075   1.366   5.720  11.308 -3.7649  0.6404 -1.0449
 4554TIP3   OH235076   4.415   4.518  15.442 -0.0341  0.4420 -0.0322
 4554TIP3    H135077   4.483   4.584  15.425  2.8213 -1.7548  1.9246
 4554TIP3    H235078   4.399   4.524  15.536 -1.3675 -0.2288 -0.1954
 4555TIP3   OH235079   4.143   3.370  10.128  0.2645  0.4866 -0.0819
 4555TIP3    H135080   4.087   3.448  10.124 -0.2332  0.2191  1.2381
 4555TIP3    H235081   4.162   3.359  10.221 -0.1873 -1.3363 -0.1752
 4556TIP3   OH235082   0.811   6.418  17.166 -0.3323 -0.8151  0.8894
 4556TIP3    H135083   0.746   6.488  17.176 -0.7837 -0.6021 -2.6029
 4556TIP3    H235084   0.896   6.463  17.171 -0.6199  0.2050 -1.8208
 4557TIP3   OH235085   5.811   0.727  12.562 -0.0255  0.2161 -0.5737
 4557TIP3    H135086   5.893   0.699  12.521 -0.6873 -0.8920 -1.2013
 4557TIP3    H235087   5.782   0.802  12.510  0.0471 -0.0649 -1.0214
 4558TIP3   OH235088   2.555   0.050  16.625 -0.1652 -0.3842  0.0079
 4558TIP3    H135089   2.475   0.041  16.677 -2.4307  2.6087 -2.6425
 4558TIP3    H235090   2.586   0.138  16.643  1.9427 -1.0767  0.0526
 4559TIP3   OH235091   3.025   1.349   0.479  0.0298 -0.2453 -0.5563
 4559TIP3    H135092   2.976   1.284   0.528 -0.0201  0.0301 -0.2350
 4559TIP3    H235093   3.115   1.342   0.513  0.0776 -0.3175 -0.6972
 4560TIP3   OH235094   1.414   5.666   5.865  0.5959 -0.3370 -0.3955
 4560TIP3    H135095   1.397   5.572   5.873 -3.3596  0.2804  0.5025
 4560TIP3    H235096   1.494   5.680   5.915  0.5966 -3.0627  0.5209
 4561TIP3   OH235097   2.787   2.138   1.488 -0.1267  0.2384  0.5582
 4561TIP3    H135098   2.875   2.107   1.469  0.5414  1.7559  1.0264
 4561TIP3    H235099   2.743   2.139   1.403  1.0511  1.6489 -0.0804
 4562TIP3   OH235100   0.203   2.121  10.622 -0.0708 -0.0726  0.4695
 4562TIP3    H135101   0.201   2.130  10.527  0.0580 -0.1537  0.4590
 4562TIP3    H235102   0.293   2.143  10.647 -0.0474 -0.2588  0.5513
 4563TIP3   OH235103   3.840   5.177   2.838  0.1655  0.0058  1.1579
 4563TIP3    H135104   3.757   5.132   2.824 -0.4611  1.3322  0.4803
 4563TIP3    H235105   3.907   5.110   2.823 -0.7373 -0.6400 -0.0735
 4564TIP3   OH235106   4.468   1.187  14.823 -0.2728 -0.3573  0.4018
 4564TIP3    H135107   4.402   1.252  14.800  0.6776  1.0038  1.3812
 4564TIP3    H235108   4.418   1.107  14.839 -1.5103  0.2289 -0.4018
 4565TIP3   OH235109   3.588   2.917   3.392  0.3096 -0.0504 -0.0875
 4565TIP3    H135110   3.520   2.917   3.459 -0.9608  1.2217 -1.2990
 4565TIP3    H235111   3.661   2.870   3.431 -0.1692  1.1265  2.3998
 4566TIP3   OH235112   5.563   0.116  12.939  0.0827  1.0714  0.2257
 4566TIP3    H135113   5.623   0.117  12.864 -1.3128  0.7639 -0.9365
 4566TIP3    H235114   5.612   0.160  13.009  1.4181  1.3826 -0.8547
 4567TIP3   OH235115   6.001   6.709   0.972 -0.4717  0.7076 -0.1612
 4567TIP3    H135116   6.076   6.666   0.931 -0.6293 -0.6751  0.9481
 4567TIP3    H235117   6.039   6.773   1.032 -0.2038  0.7536 -0.3806
 4568TIP3   OH235118   2.189   2.865   5.460 -0.2878  0.1487  0.3602
 4568TIP3    H135119   2.116   2.848   5.518  0.7651  2.4721  2.5168
 4568TIP3    H235120   2.259   2.806   5.491 -0.9674 -1.7441 -1.4172
 4569TIP3   OH235121   0.132   4.169  10.942  0.3887  0.0804 -0.4689
 4569TIP3    H135122   0.058   4.220  10.975 -0.7292 -1.2613 -0.8180
 4569TIP3    H235123   0.110   4.151  10.851  1.1194 -0.3955 -0.5591
 4570TIP3   OH235124   3.375   0.424  12.443 -0.0019 -0.1033  0.0076
 4570TIP3    H135125   3.451   0.467  12.402 -0.3146 -0.4043 -0.9086
 4570TIP3    H235126   3.339   0.368  12.374  0.4959 -1.9995  1.2091
 4571TIP3   OH235127   2.435   0.134   0.462  0.4725 -0.5277 -0.3620
 4571TIP3    H135128   2.432   0.038   0.459  1.8538 -0.6298  0.5684
 4571TIP3    H235129   2.343   0.160   0.466  0.0799 -1.9106  1.2261
 4572TIP3   OH235130   4.659   4.391   1.254 -0.1900 -0.1588  0.5106
 4572TIP3    H135131   4.645   4.366   1.163  2.0424  0.7887 -0.1591
 4572TIP3    H235132   4.677   4.485   1.251 -0.2083 -0.0867  1.9501
 4573TIP3   OH235133   1.350   0.375  12.212  0.5188  0.5723 -0.1391
 4573TIP3    H135134   1.266   0.416  12.192 -0.5167 -0.4870  1.7416
 4573TIP3    H235135   1.386   0.352  12.126 -1.9243 -0.4767 -0.9827
 4574TIP3   OH235136   4.223   6.454   1.449  0.3400 -0.0913  0.1528
 4574TIP3    H135137   4.305   6.469   1.403  0.6656 -0.7096  0.5181
 4574TIP3    H235138   4.226   6.362   1.476 -0.0064  0.1449  1.0578
 4575TIP3   OH235139   0.876   4.778  10.512 -0.3483  0.3135  0.3632
 4575TIP3    H135140   0.821   4.774  10.434 -1.1103 -2.6685  0.9321
 4575TIP3    H235141   0.912   4.689  10.520  3.1111  1.6265  1.0737
 4576TIP3   OH235142   2.294   1.339  13.177  0.2782  0.0092  0.3135
 4576TIP3    H135143   2.328   1.392  13.105 -1.2551 -0.4770 -0.8152
 4576TIP3    H235144   2.234   1.398  13.224 -0.6791 -0.4002 -0.3609
 4577TIP3   OH235145   0.152   3.303   5.182  0.2810 -0.4236  0.1118
 4577TIP3    H135146   0.125   3.258   5.102  0.0687  1.6744 -1.0586
 4577TIP3    H235147   0.076   3.353   5.209  1.1855  1.0745  0.0160
 4578TIP3   OH235148   2.022   5.498  14.202  0.0149  0.1349 -0.1338
 4578TIP3    H135149   2.055   5.433  14.263 -1.2494 -0.3936  0.0027
 4578TIP3    H235150   2.101   5.531  14.157  0.5992 -2.2454 -0.9889
 4579TIP3   OH235151   2.344   3.349  16.404 -0.7320 -0.5551 -0.2062
 4579TIP3    H135152   2.276   3.282  16.398 -0.0710 -1.3080  0.4069
 4579TIP3    H235153   2.356   3.379  16.314 -0.6712 -1.6579 -0.5863
 4580TIP3   OH235154   1.076   6.112  11.157 -0.1694  0.1479  0.7972
 4580TIP3    H135155   1.089   6.017  11.154  0.9051  0.3032  0.3158
 4580TIP3    H235156   1.137   6.143  11.224  0.8367  0.7004 -0.3431
 4581TIP3   OH235157   6.687   1.419  11.268 -0.5748 -0.1031 -0.4707
 4581TIP3    H135158   6.753   1.359  11.234  0.0819  0.8264 -0.8692
 4581TIP3    H235159   6.699   1.500  11.218 -0.4829  0.8456  1.0256
 4582TIP3   OH235160   2.875   6.650  15.623  0.3624  0.3045  0.2799
 4582TIP3    H135161   2.859   6.610  15.709  0.4404 -0.4259 -0.0370
 4582TIP3    H235162   2.824   6.731  15.625 -2.2268 -1.1974 -0.1209
 4583TIP3   OH235163   2.621   2.681  13.013  0.1762  0.4672  1.0575
 4583TIP3    H135164   2.598   2.739  13.086 -1.5314  0.5203  0.5105
 4583TIP3    H235165   2.702   2.717  12.979 -0.4891  2.1511  1.1666
 4584TIP3   OH235166   1.459   3.221  16.763 -0.0654  0.0106 -0.2544
 4584TIP3    H135167   1.517   3.177  16.826  0.1464 -0.7766 -0.9673
 4584TIP3    H235168   1.395   3.154  16.739 -0.6500  0.5618 -0.2527
 4585TIP3   OH235169   6.740   2.291   3.980  0.7738 -0.1553 -0.2888
 4585TIP3    H135170   6.713   2.383   3.977 -0.4684 -0.4907 -0.0595
 4585TIP3    H235171   6.667   2.244   3.939  0.4865 -1.2181  1.3789
 4586TIP3   OH235172   1.861   6.033  16.745 -0.0262 -0.2684 -0.2259
 4586TIP3    H135173   1.880   5.952  16.698 -1.1621 -1.4173  1.1906
 4586TIP3    H235174   1.840   6.005  16.834  1.2251  1.7395  0.7922
 4587TIP3   OH235175   5.743   1.731  12.082  0.0817  0.6407 -0.0514
 4587TIP3    H135176   5.763   1.771  12.166  1.8747 -0.3038  0.0102
 4587TIP3    H235177   5.674   1.667  12.102  0.5152  0.4056  0.7226
 4588TIP3   OH235178   5.707   3.058  12.665  0.5655  0.1765 -0.5476
 4588TIP3    H135179   5.723   2.978  12.715 -1.1850  0.4480  0.5303
 4588TIP3    H235180   5.629   3.038  12.612  0.4641  0.9784 -0.7135
 4589TIP3   OH235181   6.357   1.649  15.356 -1.0392  0.5225  0.3418
 4589TIP3    H135182   6.407   1.723  15.322 -1.2303  0.2318 -0.6084
 4589TIP3    H235183   6.409   1.617  15.430  0.7044 -0.3312 -1.1509
 4590TIP3   OH235184   1.536   3.784   1.715 -0.2574 -0.2729 -0.3824
 4590TIP3    H135185   1.624   3.783   1.678  0.8871  2.7313  1.8653
 4590TIP3    H235186   1.482   3.740   1.649  2.8460 -2.2497 -1.8456
 4591TIP3   OH235187   2.495   5.713  15.822 -0.0540 -0.7820 -0.6027
 4591TIP3    H135188   2.402   5.711  15.797 -0.6052 -1.9820  1.3552
 4591TIP3    H235189   2.511   5.627  15.859  1.4221 -0.0355  0.5683
 4592TIP3   OH235190   4.162   1.300   0.149  0.6006 -0.2445 -0.2456
 4592TIP3    H135191   4.086   1.248   0.175  0.2218 -0.0425 -0.9148
 4592TIP3    H235192   4.124   1.380   0.111  1.1616  0.3090  0.3395
 4593TIP3   OH235193   0.108   1.700   1.817 -0.2344 -0.1824  0.0365
 4593TIP3    H135194   0.149   1.722   1.901 -1.2165  2.3527 -0.0823
 4593TIP3    H235195   0.029   1.754   1.813  0.4717  0.8207 -3.0902
 4594TIP3   OH235196   1.936   2.492   2.681  0.7128  0.3698  0.1731
 4594TIP3    H135197   1.869   2.509   2.615  1.2807  0.5502 -0.3660
 4594TIP3    H235198   1.932   2.568   2.739  0.7991  0.6260 -0.1533
 4595TIP3   OH235199   4.692   0.900  11.407 -0.3557 -0.2385  0.4274
 4595TIP3    H135200   4.682   0.994  11.421 -0.5335 -0.1849 -0.0392
 4595TIP3    H235201   4.768   0.876  11.460 -0.1114  0.2280  0.2991
 4596TIP3   OH235202   5.276   2.392  13.822 -0.6490  0.2016  0.0053
 4596TIP3    H135203   5.254   2.456  13.891 -1.7301  0.2518 -0.3608
 4596TIP3    H235204   5.233   2.312  13.850  1.4886 -0.7009  0.9515
 4597TIP3   OH235205   6.196   6.693  11.680  0.8026  0.1029 -0.0157
 4597TIP3    H135206   6.113   6.667  11.640  1.7413  0.3504 -2.2902
 4597TIP3    H235207   6.185   6.786  11.699  1.0314  0.5427 -1.7977
 4598TIP3   OH235208   2.634   5.342  13.164  0.2877 -0.5057  0.2545
 4598TIP3    H135209   2.703   5.277  13.152 -0.6760 -1.4949 -0.1428
 4598TIP3    H235210   2.563   5.311  13.108  0.1609  1.4517 -0.7187
 4599TIP3   OH235211   4.718   1.327  17.023  0.6332 -0.4814 -0.2450
 4599TIP3    H135212   4.690   1.253  17.076  0.6300 -0.2794  0.0385
 4599TIP3    H235213   4.810   1.310  17.004  0.2727 -1.3029 -1.4346
 4600TIP3   OH235214   4.799   6.457  12.740 -0.4742  0.2890 -0.1675
 4600TIP3    H135215   4.844   6.504  12.671 -1.4706 -0.0017 -1.0459
 4600TIP3    H235216   4.799   6.517  12.815  0.2144  0.7869 -0.5678
 4601TIP3   OH235217   6.119   0.735   3.949 -0.2086  0.5065  0.0295
 4601TIP3    H135218   6.079   0.803   4.002 -1.6894 -0.3264  0.0231
 4601TIP3    H235219   6.210   0.732   3.979  0.3148  3.3838 -0.8904
 4602TIP3   OH235220   3.456   5.810   2.459 -0.2659 -0.6219  0.0204
 4602TIP3    H135221   3.438   5.900   2.488 -1.1475 -0.7976  0.0294
 4602TIP3    H235222   3.405   5.800   2.379 -0.3371 -1.1817  0.1317
 4603TIP3   OH235223   2.362   0.077  12.618  0.1267  0.0032 -0.0319
 4603TIP3    H135224   2.405   0.133  12.682  1.4648  0.8536 -1.5945
 4603TIP3    H235225   2.422   0.005  12.604 -0.8353 -0.9835  0.7207
 4604TIP3   OH235226   6.026   0.225   2.980  0.7981 -0.3176 -0.2977
 4604TIP3    H135227   6.026   0.258   3.070  2.6209  1.0482 -0.7444
 4604TIP3    H235228   5.986   0.296   2.929 -1.6431 -1.6923 -0.4425
 4605TIP3   OH235229   0.586   4.921  14.816 -0.1229  0.0088  0.8750
 4605TIP3    H135230   0.523   4.863  14.773  1.0844 -1.8085  1.4677
 4605TIP3    H235231   0.624   4.972  14.745 -1.2538  0.1637  0.3556
 4606TIP3   OH235232   1.285   3.960   2.804  0.8519  0.2372  0.0979
 4606TIP3    H135233   1.298   4.041   2.755  0.2636 -0.1967 -0.7989
 4606TIP3    H235234   1.298   3.891   2.740 -1.1646 -0.3222  0.2342
 4607TIP3   OH235235   5.046   4.863  10.494 -0.4654  0.8197  0.0804
 4607TIP3    H135236   5.047   4.925  10.567  1.0673 -1.0075  1.7082
 4607TIP3    H235237   5.124   4.885  10.443 -0.1400  0.4840  0.4325
 4608TIP3   OH235238   4.381   0.104  14.946  0.2761  0.3698  0.1759
 4608TIP3    H135239   4.374   0.173  15.011 -1.1744 -0.4497  0.9298
 4608TIP3    H235240   4.332   0.136  14.870 -1.6508 -0.3734  1.0476
 4609TIP3   OH235241   2.156   4.220  12.686 -0.3019 -0.0418 -0.3157
 4609TIP3    H135242   2.111   4.298  12.721  0.9541  0.6189 -0.1217
 4609TIP3    H235243   2.160   4.235  12.592 -0.5300 -0.1198 -0.3372
 4610TIP3   OH235244   5.806   0.871   3.698 -0.6139 -0.0692 -0.3681
 4610TIP3    H135245   5.829   0.945   3.755 -2.0947 -0.9593  1.5026
 4610TIP3    H235246   5.724   0.898   3.656 -0.8567 -0.4097 -0.1174
 4611TIP3   OH235247   6.537   0.446  14.347  0.1775 -0.1994 -0.0454
 4611TIP3    H135248   6.557   0.353  14.337  0.5328  0.0871 -2.5324
 4611TIP3    H235249   6.576   0.488  14.271 -1.6867  1.7219 -0.0442
 4612TIP3   OH235250   1.512   0.508   1.006 -0.8119 -0.3176 -0.1673
 4612TIP3    H135251   1.468   0.583   0.965 -1.3312 -0.0001  0.9437
 4612TIP3    H235252   1.460   0.488   1.083 -1.3502 -2.5620 -1.0201
 4613TIP3   OH235253   4.328   2.468   6.333 -0.1801 -0.0543  0.3856
 4613TIP3    H135254   4.404   2.436   6.381 -0.2241  1.1399  1.3200
 4613TIP3    H235255   4.254   2.453   6.392 -0.3790  0.5663  0.3058
 4614TIP3   OH235256   2.060   4.152   0.506  0.3666 -0.6259 -0.2385
 4614TIP3    H135257   2.058   4.208   0.583  1.3682 -1.3694  0.3496
 4614TIP3    H235258   1.968   4.140   0.483  0.0950  0.2971  0.3222
 4615TIP3   OH235259   5.596   6.563  11.612 -0.0263  0.7028 -0.0297
 4615TIP3    H135260   5.537   6.538  11.541  1.9351  0.2391 -1.5862
 4615TIP3    H235261   5.579   6.656  11.625 -1.7830  0.3702  0.2741
 4616TIP3   OH235262   1.758   4.863   3.318 -0.0048 -0.2320 -0.4936
 4616TIP3    H135263   1.769   4.789   3.258 -0.4905 -0.6939 -0.0204
 4616TIP3    H235264   1.693   4.919   3.276 -3.0002 -2.2245  1.0997
 4617TIP3   OH235265   3.185   0.603   2.551 -0.1368 -0.2260  0.2396
 4617TIP3    H135266   3.204   0.688   2.592 -1.3467 -1.0011  2.5587
 4617TIP3    H235267   3.116   0.565   2.605 -1.3553 -1.6796 -2.1590
 4618TIP3   OH235268   2.141   4.285  15.114 -0.2506 -0.1694 -0.3000
 4618TIP3    H135269   2.085   4.326  15.048  0.6833  0.5190 -0.6928
 4618TIP3    H235270   2.212   4.247  15.063 -0.5703 -1.4071  0.1528
 4619TIP3   OH235271   2.750   3.986  12.066  0.3010  0.3976  0.2351
 4619TIP3    H135272   2.775   3.913  12.010 -1.4632  0.7951 -1.1768
 4619TIP3    H235273   2.683   3.949  12.124 -0.2597  0.7615 -0.1717
 4620TIP3   OH235274   1.463   4.872  10.822  0.3446  0.3852  0.0174
 4620TIP3    H135275   1.464   4.817  10.900 -0.2369  0.0754 -0.1919
 4620TIP3    H235276   1.536   4.932  10.835  1.5996 -1.0337 -0.1862
 4621TIP3   OH235277   5.886   2.737  12.107 -0.2270 -0.8744 -0.2338
 4621TIP3    H135278   5.820   2.770  12.168  2.5517 -0.8148  3.0161
 4621TIP3    H235279   5.933   2.815  12.077  1.0386 -1.1714  0.8887
 4622TIP3   OH235280   5.904   0.602  12.802  0.4045 -0.5619  0.6749
 4622TIP3    H135281   5.961   0.676  12.826 -0.4931  0.5045 -0.3489
 4622TIP3    H235282   5.864   0.629  12.719 -0.1153 -2.1211  0.3916
 4623TIP3   OH235283   4.031   4.321  15.599  0.8946  0.1948 -0.5444
 4623TIP3    H135284   3.995   4.339  15.512  1.0696 -0.5000 -0.7663
 4623TIP3    H235285   4.086   4.397  15.619  0.2559  0.7075 -0.7130
 4624TIP3   OH235286   1.727   3.541  14.041  0.3617 -0.1295 -0.0108
 4624TIP3    H135287   1.714   3.633  14.063  1.1196  0.0563 -0.2915
 4624TIP3    H235288   1.788   3.509  14.107  3.0390  0.5548 -1.9628
 4625TIP3   OH235289   0.552   1.421  15.550  0.0102  0.2876  0.0318
 4625TIP3    H135290   0.521   1.395  15.637  0.0585  0.2511  0.0377
 4625TIP3    H235291   0.545   1.341  15.498 -2.4654  0.8800 -0.6745
 4626TIP3   OH235292   0.657   2.639   5.122 -0.5703  0.3362 -0.3560
 4626TIP3    H135293   0.743   2.681   5.114 -0.9154  1.4070  1.1790
 4626TIP3    H235294   0.615   2.655   5.038  0.5537  0.1918 -0.9677
 4627TIP3   OH235295   3.169   0.982  14.922 -0.0436  0.0000 -0.1712
 4627TIP3    H135296   3.233   0.940  14.864 -0.5670 -0.2747 -0.5578
 4627TIP3    H235297   3.087   0.936  14.904 -0.0141 -0.8020  1.5218
 4628TIP3   OH235298   4.999   3.993   0.703  0.1143 -0.0686  0.8354
 4628TIP3    H135299   5.070   4.026   0.648  0.1650  1.4087  1.7617
 4628TIP3    H235300   5.043   3.941   0.770  0.0852 -1.4722 -0.1819
 4629TIP3   OH235301   2.884   6.572  16.786 -0.3378 -0.1660 -0.0168
 4629TIP3    H135302   2.884   6.533  16.873  0.8075  0.0848  0.1164
 4629TIP3    H235303   2.958   6.633  16.788 -1.1459  0.8543 -0.7222
 4630TIP3   OH235304   4.364   4.884  10.791 -0.0645  0.0803  0.2042
 4630TIP3    H135305   4.347   4.799  10.833  0.5272 -0.7719 -1.1903
 4630TIP3    H235306   4.284   4.934  10.804  0.0987 -0.1064  2.3370
 4631TIP3   OH235307   6.070   4.848  12.967 -0.3174  0.8656 -0.2305
 4631TIP3    H135308   6.094   4.903  13.041  1.1495 -1.7532  1.3771
 4631TIP3    H235309   5.974   4.850  12.966 -0.3849  0.7728  1.9219
 4632TIP3   OH235310   3.081   0.901  10.956 -0.1479 -0.4504  0.3821
 4632TIP3    H135311   3.096   0.954  10.877  0.8147 -0.6064  0.4429
 4632TIP3    H235312   3.154   0.839  10.956 -0.3523 -0.6912  1.2044
 4633TIP3   OH235313   2.208   2.341  10.239 -0.5094 -0.4233 -0.2976
 4633TIP3    H135314   2.123   2.381  10.258  0.1855  0.2316  1.8197
 4633TIP3    H235315   2.216   2.272  10.305  0.1159 -1.2677 -1.2394
 4634TIP3   OH235316   1.079   6.495   2.387  0.7774  0.5177  0.1024
 4634TIP3    H135317   1.024   6.425   2.421  1.1476 -0.5093 -1.3109
 4634TIP3    H235318   1.132   6.523   2.462  0.9637 -1.0567  0.5827
 4635TIP3   OH235319   5.556   1.137  12.987 -0.1375 -0.1469 -0.1272
 4635TIP3    H135320   5.498   1.160  13.059 -1.2506 -1.6769 -0.4773
 4635TIP3    H235321   5.594   1.220  12.958  0.5445  0.4849  2.3570
 4636TIP3   OH235322   5.535   4.965   1.891  0.1542 -0.0760 -0.1642
 4636TIP3    H135323   5.570   4.965   1.980  0.3563 -0.7488 -0.2445
 4636TIP3    H235324   5.562   5.050   1.856  1.6206 -0.5276 -0.1843
 4637TIP3   OH235325   2.091   2.960  12.236  0.1386 -0.1045  0.3896
 4637TIP3    H135326   2.065   2.938  12.326 -0.8416  1.9570  0.6736
 4637TIP3    H235327   2.026   3.024  12.208  1.4531  0.5974 -1.1770
 4638TIP3   OH235328   6.358   3.748   4.958  0.3306 -0.2043 -0.6686
 4638TIP3    H135329   6.298   3.822   4.950  1.6069  1.0991  1.2044
 4638TIP3    H235330   6.301   3.673   4.976 -0.7859  1.0803  1.5956
 4639TIP3   OH235331   1.277   4.939  14.334  0.3696 -0.5760  0.3012
 4639TIP3    H135332   1.257   4.858  14.287 -1.9235  0.9228 -1.5385
 4639TIP3    H235333   1.343   4.983  14.280  0.0347 -0.2666  0.1388
 4640TIP3   OH235334   6.288   6.674  13.657 -0.5667 -0.3365 -0.0144
 4640TIP3    H135335   6.336   6.611  13.603 -0.9103  0.2887 -1.0708
 4640TIP3    H235336   6.221   6.710  13.599 -1.1312  0.1475  0.9135
 4641TIP3   OH235337   5.661   5.955  12.878  0.4877  0.1702  0.0170
 4641TIP3    H135338   5.756   5.945  12.880  0.4522 -0.7124 -1.3461
 4641TIP3    H235339   5.628   5.870  12.906  0.1217 -0.0177 -0.9466
 4642TIP3   OH235340   3.005   3.227  13.259  0.0964 -0.1736  0.3835
 4642TIP3    H135341   2.976   3.196  13.345 -2.1783 -0.4706 -0.4120
 4642TIP3    H235342   2.987   3.321  13.259 -1.3907 -0.4163 -0.2358
 4643TIP3   OH235343   3.139   6.523  12.410 -0.0302  0.0220 -0.0726
 4643TIP3    H135344   3.052   6.485  12.402 -0.7287  1.1449  1.6077
 4643TIP3    H235345   3.126   6.617  12.403  0.9403  0.2487  0.7801
 4644TIP3   OH235346   0.965   6.168   4.492  0.1201 -0.2731  0.0829
 4644TIP3    H135347   0.995   6.217   4.568  2.4771 -0.9892 -0.3131
 4644TIP3    H235348   1.016   6.203   4.419 -1.0848 -0.5646 -0.9285
 4645TIP3   OH235349   6.368   2.200  15.445  0.1992  0.0817 -0.2103
 4645TIP3    H135350   6.285   2.238  15.418  0.7772  1.4560 -0.1520
 4645TIP3    H235351   6.344   2.127  15.502 -0.9934 -1.3636 -2.4269
 4646TIP3   OH235352   0.506   1.667   2.079 -0.4768  0.3852 -0.0613
 4646TIP3    H135353   0.490   1.754   2.044 -1.1821  0.2652 -0.0553
 4646TIP3    H235354   0.579   1.633   2.027  0.4889  1.3514  0.6056
 4647TIP3   OH235355   3.813   0.504   5.650 -0.2787  0.1315  0.2058
 4647TIP3    H135356   3.824   0.553   5.569  1.3053 -0.1372  0.2416
 4647TIP3    H235357   3.776   0.568   5.711 -1.3154  0.3796 -0.6437
 4648TIP3   OH235358   1.150   0.332   3.319  0.2107  0.5438 -0.4010
 4648TIP3    H135359   1.092   0.298   3.251 -1.1963 -1.3508  1.6050
 4648TIP3    H235360   1.238   0.322   3.282 -0.5400  0.5589 -2.3128
 4649TIP3   OH235361   4.986   3.361   4.824 -0.2058 -0.2869  0.3483
 4649TIP3    H135362   5.030   3.277   4.809  0.5397 -0.0120  0.9327
 4649TIP3    H235363   5.036   3.402   4.895  1.3834  2.0150 -1.9473
 4650TIP3   OH235364   3.205   3.422  16.621  0.0349 -0.0564 -0.5222
 4650TIP3    H135365   3.243   3.386  16.701 -1.1155  0.7684  0.4369
 4650TIP3    H235366   3.242   3.511  16.616 -1.3891  0.6209  0.2209
 4651TIP3   OH235367   2.378   1.125   2.369  0.5983  0.5765 -0.2839
 4651TIP3    H135368   2.389   1.149   2.277 -0.0592  1.2931 -0.1926
 4651TIP3    H235369   2.287   1.095   2.374  1.0134 -0.7474 -0.1200
 4652TIP3   OH235370   3.524   1.868   2.702 -0.3642 -0.5927  0.1539
 4652TIP3    H135371   3.489   1.782   2.725 -2.4383 -0.2602 -1.4598
 4652TIP3    H235372   3.514   1.920   2.782 -1.6690 -1.1172  0.3578
 4653TIP3   OH235373   3.849   0.309   6.070 -0.0311  0.4690  0.2404
 4653TIP3    H135374   3.790   0.351   6.007  0.4821  2.1232  0.8447
 4653TIP3    H235375   3.816   0.219   6.076 -0.7192  0.5487 -1.6066
 4654TIP3   OH235376   4.311   1.650   1.046 -0.0424 -0.1176  0.1182
 4654TIP3    H135377   4.307   1.716   0.977 -0.4689  0.8883  1.0522
 4654TIP3    H235378   4.403   1.648   1.072  0.2905 -1.1790 -1.0831
 4655TIP3   OH235379   0.819   6.059  11.540 -0.3827 -0.1758 -0.3706
 4655TIP3    H135380   0.804   6.089  11.450 -1.8031  0.2912  0.0020
 4655TIP3    H235381   0.747   5.999  11.558 -1.4336  1.4261  1.1730
 4656TIP3   OH235382   3.863   3.224   1.600  0.5659  0.6433  0.1306
 4656TIP3    H135383   3.831   3.195   1.514  1.4689 -0.1691  0.0461
 4656TIP3    H235384   3.948   3.264   1.582  0.0824  1.8549  0.4724
 4657TIP3   OH235385   2.630   2.165   3.631 -0.2929 -0.2040  0.1543
 4657TIP3    H135386   2.538   2.178   3.610 -0.3826 -1.6965 -0.5169
 4657TIP3    H235387   2.675   2.167   3.546  0.1237 -0.6937  0.3547
 4658TIP3   OH235388   5.568   6.326  15.240 -0.2643 -0.1581 -0.3998
 4658TIP3    H135389   5.640   6.270  15.269  0.5433  0.7502 -0.6058
 4658TIP3    H235390   5.495   6.302  15.298  0.7155  0.1567  1.0346
 4659TIP3   OH235391   0.054   2.398   4.224 -0.1558  0.1785  0.0879
 4659TIP3    H135392   0.025   2.352   4.145 -0.0928 -0.4681  0.4261
 4659TIP3    H235393   0.121   2.340   4.262 -1.1492 -0.2077  1.3384
 4660TIP3   OH235394   0.905   4.985  14.134  0.1340  0.6096 -0.0505
 4660TIP3    H135395   0.916   5.009  14.226  0.2825  0.8429 -0.1299
 4660TIP3    H235396   0.993   4.989  14.097  0.9645 -3.9110  0.8338
 4661TIP3   OH235397   5.878   4.739  12.038  0.1924  0.2071  0.5528
 4661TIP3    H135398   5.917   4.755  12.124 -1.5523  0.3278  1.3573
 4661TIP3    H235399   5.933   4.790  11.978  1.8523 -0.4166  1.4679
 4662TIP3   OH235400   4.169   2.601   2.329 -0.0411  0.4091 -0.3919
 4662TIP3    H135401   4.230   2.630   2.397  0.5327  2.1135 -1.5769
 4662TIP3    H235402   4.097   2.664   2.334 -0.7138 -0.3428 -0.4117
 4663TIP3   OH235403   6.589   6.581   1.675 -0.3674  0.4593  0.0177
 4663TIP3    H135404   6.506   6.580   1.627 -1.1804  0.3291  1.3557
 4663TIP3    H235405   6.645   6.642   1.626 -0.6904 -0.6015 -1.7732
 4664TIP3   OH235406   1.008   2.781  13.440 -0.4636 -0.9036  0.2126
 4664TIP3    H135407   0.989   2.741  13.355  1.4566  0.4204 -0.9257
 4664TIP3    H235408   1.013   2.875  13.421  0.8063 -0.6580  1.6177
 4665TIP3   OH235409   0.225   3.320   2.585  0.0550 -0.0017 -0.0228
 4665TIP3    H135410   0.133   3.299   2.605 -0.0255 -0.3295 -0.7130
 4665TIP3    H235411   0.268   3.318   2.671 -0.6422  0.5013  0.3564
 4666TIP3   OH235412   5.363   2.421  16.073  0.3378 -0.4139 -0.2548
 4666TIP3    H135413   5.404   2.349  16.024 -1.4185 -0.9120 -1.0899
 4666TIP3    H235414   5.294   2.452  16.015 -1.1926 -0.3583  1.5245
 4667TIP3   OH235415   5.147   5.838  13.856 -0.5114  0.1157 -0.1342
 4667TIP3    H135416   5.195   5.908  13.812  0.7525  1.3836  3.0168
 4667TIP3    H235417   5.176   5.758  13.812  1.4125  1.2043 -0.9360
 4668TIP3   OH235418   6.392   6.433   3.774  1.1357 -0.3179  0.3601
 4668TIP3    H135419   6.400   6.406   3.865 -1.9390  0.3645  0.9378
 4668TIP3    H235420   6.381   6.528   3.778  0.2238 -0.3675 -0.6399
 4669TIP3   OH235421   3.328   0.550  14.866 -0.1985  0.1974  0.1054
 4669TIP3    H135422   3.348   0.557  14.772 -0.0441  0.2203  0.1387
 4669TIP3    H235423   3.342   0.457  14.886  1.4706  0.4855  0.4718
 4670TIP3   OH235424   4.846   3.742  11.286  0.2695  0.4506  0.4413
 4670TIP3    H135425   4.790   3.692  11.345  2.8480 -2.2397  0.8530
 4670TIP3    H235426   4.922   3.766  11.339  1.5922 -0.0266 -1.1596
 4671TIP3   OH235427   1.679   3.843  13.232  0.4284  0.0608  0.0435
 4671TIP3    H135428   1.741   3.783  13.273 -0.5483 -0.5148  0.7303
 4671TIP3    H235429   1.699   3.929  13.271  0.2149 -0.2829  0.9443
 4672TIP3   OH235430   1.491   1.077   5.746  0.0765  0.3525  0.7219
 4672TIP3    H135431   1.525   1.048   5.831  1.3102  0.1588  0.1712
 4672TIP3    H235432   1.420   1.137   5.769  0.2588  0.1529  1.8926
 4673TIP3   OH235433   4.973   4.884  11.067  0.3637 -0.2007 -0.0076
 4673TIP3    H135434   4.942   4.975  11.067  1.1801  0.0996  1.0418
 4673TIP3    H235435   4.929   4.843  11.141  2.7694  0.3903  1.8707
 4674TIP3   OH235436   6.587   3.092   1.957 -0.0200  0.0812 -0.1783
 4674TIP3    H135437   6.611   3.046   1.876 -0.1711 -0.6397  0.1707
 4674TIP3    H235438   6.666   3.137   1.984  0.4212 -0.7526 -0.0352
 4675TIP3   OH235439   2.311   4.110   5.218  0.0470 -0.2732  0.4843
 4675TIP3    H135440   2.291   4.045   5.285  0.8936 -2.9008 -1.6080
 4675TIP3    H235441   2.406   4.104   5.206 -0.0981 -0.0455 -1.0437
 4676TIP3   OH235442   5.964   0.264  16.923  0.0275 -0.4206  0.2297
 4676TIP3    H135443   5.911   0.187  16.942  0.3154 -0.6623  0.0685
 4676TIP3    H235444   5.917   0.309  16.853 -0.5278 -0.0466  0.8368
 4677TIP3   OH235445   2.762   4.761   4.554  0.0391 -0.0079  0.1141
 4677TIP3    H135446   2.666   4.769   4.554  0.0399  0.1399 -0.8130
 4677TIP3    H235447   2.792   4.843   4.515  0.5178 -0.2866 -0.1013
 4678TIP3   OH235448   2.365   2.190   5.460  0.5752 -0.0822  0.1561
 4678TIP3    H135449   2.316   2.118   5.500  0.4238  0.2247  0.5306
 4678TIP3    H235450   2.373   2.255   5.530  1.7033 -0.2143  0.1681
 4679TIP3   OH235451   2.050   6.666   5.342  0.3099 -0.4476  0.6154
 4679TIP3    H135452   2.073   6.582   5.380  3.5580  0.4603  0.9603
 4679TIP3    H235453   2.042   6.649   5.248 -0.2405 -1.3253  0.8138
 4680TIP3   OH235454   4.523   0.487  13.716 -0.3529 -0.3064  0.1656
 4680TIP3    H135455   4.609   0.473  13.757  0.2290 -0.8873 -1.1741
 4680TIP3    H235456   4.507   0.406  13.667 -1.3077  0.1140 -0.2352
 4681TIP3   OH235457   3.333   1.110   1.706 -0.1874 -0.2805 -0.0878
 4681TIP3    H135458   3.333   1.024   1.747 -0.1166  0.3224  1.2506
 4681TIP3    H235459   3.275   1.162   1.762  1.8478  1.2388  0.7314
 4682TIP3   OH235460   2.414   1.276   1.979  0.6425 -0.4511 -0.6783
 4682TIP3    H135461   2.373   1.362   1.975  0.8381 -0.2569  0.7531
 4682TIP3    H235462   2.343   1.217   2.004  0.2029 -0.9706 -3.0072
 4683TIP3   OH235463   6.181   5.321   1.849 -0.3517  0.3990  0.4040
 4683TIP3    H135464   6.256   5.261   1.855 -0.0801  0.8546  1.8855
 4683TIP3    H235465   6.134   5.309   1.931 -0.1902  2.3507  0.8178
 4684TIP3   OH235466   5.835   4.672  13.195  0.2501 -0.1271  0.2295
 4684TIP3    H135467   5.834   4.729  13.119 -1.5956  0.7388  0.8551
 4684TIP3    H235468   5.848   4.584  13.160  2.8655  0.5680 -0.7753
 4685TIP3   OH235469   3.705   4.662   1.306 -0.1418  0.0677  0.3366
 4685TIP3    H135470   3.758   4.721   1.359 -0.1785 -0.3366  0.8337
 4685TIP3    H235471   3.615   4.690   1.321 -0.0521  1.2908 -1.1583
 4686TIP3   OH235472   2.211   5.049  14.326 -0.1120  0.2920  0.7681
 4686TIP3    H135473   2.217   5.043  14.422  1.4981  1.0346  0.7352
 4686TIP3    H235474   2.262   4.975  14.294 -0.5677  0.1040  0.4681
 4687TIP3   OH235475   1.334   3.931  16.116  0.6382 -0.3799 -0.5234
 4687TIP3    H135476   1.275   3.955  16.045 -0.3260 -1.4568 -0.1208
 4687TIP3    H235477   1.422   3.940  16.079  0.2200  0.7462 -1.2979
 4688TIP3   OH235478   3.165   5.490  15.083  0.1721  0.3179 -0.2737
 4688TIP3    H135479   3.207   5.423  15.029  0.5998  0.1697  0.2336
 4688TIP3    H235480   3.185   5.573  15.040  1.4802  0.3032  0.2598
 4689TIP3   OH235481   5.132   2.336   2.086 -0.7972 -0.0207 -0.3349
 4689TIP3    H135482   5.097   2.400   2.024  0.8054  2.3364  1.0524
 4689TIP3    H235483   5.196   2.385   2.137  1.1372 -2.9618  0.2897
 4690TIP3   OH235484   5.897   1.989   1.913  0.4674  0.0442 -0.3964
 4690TIP3    H135485   5.840   2.065   1.928 -2.0765 -1.6963 -0.5238
 4690TIP3    H235486   5.889   1.972   1.819 -0.1972 -1.2014 -0.1407
 4691TIP3   OH235487   4.286   0.243  11.266 -0.2342  0.5235  0.1819
 4691TIP3    H135488   4.378   0.264  11.280  0.0080 -0.5401  0.3026
 4691TIP3    H235489   4.280   0.149  11.285 -1.6200  0.8430  1.5600
 4692TIP3   OH235490   1.098   3.592  12.363 -0.1488 -0.1621 -0.5857
 4692TIP3    H135491   1.058   3.529  12.423 -0.7731  1.0782  0.3412
 4692TIP3    H235492   1.099   3.675  12.411  3.4453 -0.0270 -0.5660
 4693TIP3   OH235493   0.893   6.397   2.650  0.0073 -0.2336  0.3777
 4693TIP3    H135494   0.808   6.434   2.627 -0.2414 -0.5983  0.6885
 4693TIP3    H235495   0.876   6.304   2.662  0.2488 -0.1599  1.3869
 4694TIP3   OH235496   5.718   1.039   1.658  0.2108  0.2629  0.0232
 4694TIP3    H135497   5.763   1.019   1.576  2.7781  1.8582  0.9198
 4694TIP3    H235498   5.759   0.980   1.722  0.1637  0.9179  0.6618
 4695TIP3   OH235499   0.640   4.064   3.211  0.8133  0.3839 -0.1435
 4695TIP3    H135500   0.694   4.142   3.199 -2.4007  2.8555 -0.0019
 4695TIP3    H235501   0.619   4.036   3.122  1.6827 -0.1080 -0.1967
 4696TIP3   OH235502   2.573   1.716   5.872 -0.1791  0.3139  0.3303
 4696TIP3    H135503   2.504   1.717   5.938 -0.5639  1.4728 -0.0633
 4696TIP3    H235504   2.618   1.799   5.882  0.3303  0.1238 -0.2799
 4697TIP3   OH235505   4.482   5.945   2.097 -0.2173 -0.4022  0.2840
 4697TIP3    H135506   4.485   5.853   2.123  0.1518 -0.2988  0.5987
 4697TIP3    H235507   4.573   5.974   2.097 -0.3899  0.1833  0.9781
 4698TIP3   OH235508   2.848   5.135  17.146 -0.0649 -0.0875  0.0823
 4698TIP3    H135509   2.841   5.057  17.092  0.4772 -0.1330  0.0665
 4698TIP3    H235510   2.828   5.106  17.235  0.7425 -0.3792  0.1762
 4699TIP3   OH235511   5.861   6.240  16.923 -0.9380 -0.2261  0.0963
 4699TIP3    H135512   5.767   6.249  16.940 -1.0362 -0.1419 -0.4500
 4699TIP3    H235513   5.866   6.224  16.829 -0.3490  0.7001 -0.0493
 4700TIP3   OH235514   3.803   4.487  11.302 -0.5038  0.1639  0.2663
 4700TIP3    H135515   3.827   4.469  11.393 -4.7079 -0.7755  1.3911
 4700TIP3    H235516   3.796   4.582  11.296  2.1099  0.4289  0.0997
 4701TIP3   OH235517   0.306   0.016  11.784  0.3171 -0.1153 -0.2996
 4701TIP3    H135518   0.332   0.096  11.830 -0.8629  1.0931 -1.6309
 4701TIP3    H235519   0.281   0.046  11.697 -2.5410 -1.5529 -0.0887
 4702TIP3   OH235520   1.929   0.628  11.146 -0.0601 -0.5882  0.8955
 4702TIP3    H135521   1.986   0.625  11.223 -0.9391 -0.9807  1.5437
 4702TIP3    H235522   1.907   0.537  11.128  0.6862 -0.5663 -0.2595
 4703TIP3   OH235523   3.262   3.868  15.306 -0.1466 -0.2713 -0.7031
 4703TIP3    H135524   3.328   3.876  15.374 -1.5005  1.0348  0.5353
 4703TIP3    H235525   3.251   3.956  15.272 -2.5759 -0.0180  0.5013
 4704TIP3   OH235526   3.270   5.036   5.723 -0.1975  0.1825  0.2118
 4704TIP3    H135527   3.273   4.982   5.802  0.2725  0.0758  0.1297
 4704TIP3    H235528   3.181   5.071   5.720 -0.5606 -0.7163  0.1794
 4705TIP3   OH235529   6.066   1.509  15.269 -0.0098  0.3939 -0.6855
 4705TIP3    H135530   6.090   1.449  15.340 -0.1174 -0.7833 -1.6012
 4705TIP3    H235531   6.149   1.547  15.240 -0.1307  2.1513  1.1131
 4706TIP3   OH235532   5.819   1.867   0.265 -0.6645 -0.6237 -0.6250
 4706TIP3    H135533   5.759   1.920   0.318  2.0445  0.6033  1.4051
 4706TIP3    H235534   5.888   1.927   0.238  1.2870 -2.5512 -0.2407
 4707TIP3   OH235535   6.323   4.857  15.036 -0.4394  0.1652 -0.3458
 4707TIP3    H135536   6.315   4.761  15.041  0.6804  0.0535 -0.4319
 4707TIP3    H235537   6.396   4.878  15.094 -0.6899  0.9686 -0.3190
 4708TIP3   OH235538   2.362   5.221   2.386 -0.2476  0.1342 -0.2868
 4708TIP3    H135539   2.438   5.177   2.349 -0.5497 -2.3463  1.7501
 4708TIP3    H235540   2.398   5.281   2.451  0.0405 -0.5720  0.2235
 4709TIP3   OH235541   6.664   5.017  16.388  0.1564 -0.0771  0.0923
 4709TIP3    H135542   6.592   5.069  16.351 -0.0355 -0.0017  0.5652
 4709TIP3    H235543   6.740   5.040  16.335  0.4400  1.8623  1.2519
 4710TIP3   OH235544   2.853   6.113   2.865 -0.3009 -0.2196 -0.7201
 4710TIP3    H135545   2.801   6.173   2.812 -2.0135  0.0485  1.1358
 4710TIP3    H235546   2.791   6.076   2.927  1.6553 -0.1618  1.4152
 4711TIP3   OH235547   3.288   5.442   2.758  0.3373  0.3029  0.0362
 4711TIP3    H135548   3.382   5.444   2.740  0.8510 -2.0472  1.8431
 4711TIP3    H235549   3.277   5.501   2.833  0.8016 -0.9366  1.1300
 4712TIP3   OH235550   5.793   2.166  16.463  0.0408 -0.1606  0.7060
 4712TIP3    H135551   5.873   2.165  16.515  0.5948 -1.9797 -0.1062
 4712TIP3    H235552   5.822   2.155  16.373 -1.1062 -0.9080  0.4063
 4713TIP3   OH235553   2.978   0.477  11.216 -0.5008 -0.1276 -0.6302
 4713TIP3    H135554   2.937   0.402  11.173  0.4355  0.0498 -1.8731
 4713TIP3    H235555   3.070   0.452  11.225 -0.2524  0.7433 -0.7361
 4714TIP3   OH235556   3.917   0.721  15.187 -0.1619 -0.2964  0.4423
 4714TIP3    H135557   3.885   0.809  15.167  0.3258 -0.3524 -0.6563
 4714TIP3    H235558   3.838   0.670  15.203 -0.4330  0.4395  1.6068
 4715TIP3   OH235559   0.511   2.039  16.285 -0.3684 -0.2459 -0.7178
 4715TIP3    H135560   0.442   2.000  16.231  0.0127 -0.9063 -0.7339
 4715TIP3    H235561   0.572   2.078  16.223 -0.4931 -0.0541 -0.7204
 4716TIP3   OH235562   1.308   5.517   5.156  0.0489 -0.2890  0.2626
 4716TIP3    H135563   1.393   5.473   5.145  0.5287  0.1299  1.9991
 4716TIP3    H235564   1.244   5.448   5.140  0.7109 -0.7565 -0.5010
 4717TIP3   OH235565   1.463   4.934  13.267  0.0050 -0.1649  0.0888
 4717TIP3    H135566   1.489   4.851  13.227 -0.0648 -0.5771  0.8750
 4717TIP3    H235567   1.503   5.001  13.211  0.7344 -0.7394 -0.0975
 4718TIP3   OH235568   3.637   6.384   1.208  0.2501  0.5021 -0.4730
 4718TIP3    H135569   3.603   6.296   1.193  0.4466  0.4781 -0.7737
 4718TIP3    H235570   3.591   6.414   1.288  0.4456 -0.0009 -0.1683
 4719TIP3   OH235571   1.725   1.632   6.566 -0.2485  0.0868 -0.2430
 4719TIP3    H135572   1.777   1.577   6.508  0.5197 -1.4965  1.7913
 4719TIP3    H235573   1.679   1.570   6.623 -2.0435  1.5289 -0.0218
 4720TIP3   OH235574   4.955   5.439   0.305  0.0917  0.2292  0.1667
 4720TIP3    H135575   4.880   5.383   0.323  0.1117 -1.0094 -3.0491
 4720TIP3    H235576   4.941   5.472   0.216  3.0185  0.4917 -0.3118
 4721TIP3   OH235577   4.757   0.445   5.362 -0.0971 -0.4745 -0.2787
 4721TIP3    H135578   4.825   0.400   5.311  2.2426  1.2507  1.0837
 4721TIP3    H235579   4.751   0.532   5.322  0.8008  0.4394  1.4669
 4722TIP3   OH235580   0.712   5.225  12.004 -0.1480 -0.1200 -0.0760
 4722TIP3    H135581   0.757   5.295  11.956 -0.0473 -0.8844 -1.1460
 4722TIP3    H235582   0.623   5.227  11.971 -0.8654  1.1673  1.7924
 4723TIP3   OH235583   2.494   3.719   5.468 -0.4487  0.0926 -0.2744
 4723TIP3    H135584   2.478   3.807   5.432 -0.4413 -0.5694 -2.0103
 4723TIP3    H235585   2.552   3.678   5.404  0.5460 -0.7830  1.1474
 4724TIP3   OH235586   5.462   6.527  14.325 -0.4465 -0.2573  0.2446
 4724TIP3    H135587   5.418   6.454  14.283 -0.3541 -0.0886 -0.1453
 4724TIP3    H235588   5.540   6.543  14.271 -0.5070  0.1782  0.2819
 4725TIP3   OH235589   4.825   4.532  15.095 -0.6358 -0.6361 -0.1412
 4725TIP3    H135590   4.862   4.582  15.168 -0.3127 -2.4509  1.0062
 4725TIP3    H235591   4.735   4.564  15.088 -0.5713 -0.1954  0.8420
 4726TIP3   OH235592   5.622   4.347   5.232 -0.5368  0.1620  0.3032
 4726TIP3    H135593   5.528   4.354   5.216 -0.3300 -0.6778 -1.6400
 4726TIP3    H235594   5.649   4.435   5.259 -1.8368  0.4559  0.7191
 4727TIP3   OH235595   6.654   1.663   0.321 -0.0981  0.0163 -0.1736
 4727TIP3    H135596   6.586   1.715   0.363  0.7527 -0.4641  1.9225
 4727TIP3    H235597   6.611   1.580   0.301 -0.3231 -0.0509  0.5468
 4728TIP3   OH235598   2.359   1.718  12.718 -0.3196  0.5008  0.7602
 4728TIP3    H135599   2.453   1.713  12.730 -0.1427 -0.1143 -0.6810
 4728TIP3    H235600   2.333   1.628  12.695 -1.3607  0.5113  1.8447
 4729TIP3   OH235601   1.510   0.938   0.505 -0.2661  0.3440 -0.2786
 4729TIP3    H135602   1.416   0.946   0.488 -0.6433 -0.6159  1.1242
 4729TIP3    H235603   1.529   1.007   0.568 -0.1514  0.2184 -0.1748
 4730TIP3   OH235604   5.932   1.711  14.227  0.1982  0.1813  0.2465
 4730TIP3    H135605   5.886   1.639  14.271  1.1362 -0.5135  0.1164
 4730TIP3    H235606   5.907   1.789  14.276 -1.4946 -0.0933 -0.1028
 4731TIP3   OH235607   1.812   5.260  12.822 -0.6695 -0.3608 -0.2241
 4731TIP3    H135608   1.784   5.172  12.848 -1.4108 -0.2069 -0.4864
 4731TIP3    H235609   1.859   5.293  12.898  0.9633 -1.5499 -0.6610
 4732TIP3   OH235610   6.802   3.625   5.001  0.0679  0.0453 -0.3301
 4732TIP3    H135611   6.897   3.631   5.000 -0.0029  2.9575 -0.6224
 4732TIP3    H235612   6.778   3.634   5.093  0.0842 -0.0097 -0.3211
 4733TIP3   OH235613   1.569   2.888  16.475  0.1647 -0.1107  1.1206
 4733TIP3    H135614   1.482   2.851  16.460  0.2120  1.0739 -3.1043
 4733TIP3    H235615   1.629   2.817  16.455  0.1639  0.5056 -1.2956
 4734TIP3   OH235616   2.378   3.358  16.773 -0.2520  0.0224 -0.1951
 4734TIP3    H135617   2.284   3.350  16.783 -0.4672  1.3931 -0.8147
 4734TIP3    H235618   2.392   3.365  16.679  0.2389  1.7253 -0.0432
 4735TIP3   OH235619   6.523   5.376  14.735  0.3192  0.1073  0.6063
 4735TIP3    H135620   6.502   5.305  14.675  1.9088 -0.6497  0.8994
 4735TIP3    H235621   6.466   5.448  14.707 -1.0017 -1.1078  0.0216
 4736TIP3   OH235622   4.842   6.426   4.866 -0.1911  0.0893  0.2441
 4736TIP3    H135623   4.789   6.347   4.863 -0.6407  0.3392  1.2355
 4736TIP3    H235624   4.825   6.469   4.782 -1.4301  0.0667  0.4544
 4737TIP3   OH235625   0.633   1.059   0.660 -0.0111  0.6109 -0.0357
 4737TIP3    H135626   0.720   1.018   0.659 -1.0186 -1.8352  1.8298
 4737TIP3    H235627   0.603   1.055   0.569  2.5516  3.4531 -1.1688
 4738TIP3   OH235628   1.491   5.615  12.853 -0.2492  0.5551 -0.0851
 4738TIP3    H135629   1.440   5.567  12.919 -0.4999 -2.1256 -2.0404
 4738TIP3    H235630   1.582   5.592  12.871 -0.1245  1.5291  0.5681
 4739TIP3   OH235631   5.672   6.212  15.756  0.2087 -0.0545  0.0920
 4739TIP3    H135632   5.705   6.195  15.668 -1.0831 -2.1339 -0.0615
 4739TIP3    H235633   5.589   6.258  15.741 -0.3285 -0.9834  0.1819
 4740TIP3   OH235634   4.053   6.007   5.712 -0.6602  0.1356  0.2890
 4740TIP3    H135635   4.128   5.964   5.753  0.9801  1.1137 -1.5074
 4740TIP3    H235636   3.977   5.957   5.743  0.7661 -1.3968  1.5510
 4741TIP3   OH235637   0.057   6.402  12.032  0.2449  0.5297 -0.2249
 4741TIP3    H135638   0.083   6.462  11.962  1.8764  2.4201  1.8826
 4741TIP3    H235639   0.102   6.320  12.011 -1.2269  0.2260 -2.6045
 4742TIP3   OH235640   4.148   0.735  16.656  0.3097  0.1738  0.1908
 4742TIP3    H135641   4.204   0.724  16.733  0.4411  0.3395  0.1191
 4742TIP3    H235642   4.151   0.828  16.637  0.1176  0.1629  0.1026
 4743TIP3   OH235643   4.153   1.945   3.134 -0.0367 -0.1935  0.8783
 4743TIP3    H135644   4.229   1.890   3.153  0.5327  0.4135  0.3699
 4743TIP3    H235645   4.078   1.886   3.147  0.5652 -1.1357  0.2046
 4744TIP3   OH235646   3.391   0.079  11.471 -0.9343  0.7501  0.1579
 4744TIP3    H135647   3.432   0.081  11.385 -1.8420 -0.2227 -0.3214
 4744TIP3    H235648   3.317   0.019  11.461  0.0938 -0.9680  2.1040
 4745TIP3   OH235649   3.702   2.384  10.884 -0.0524 -0.4871 -0.2162
 4745TIP3    H135650   3.686   2.290  10.872 -0.4463 -0.6104  1.1665
 4745TIP3    H235651   3.786   2.388  10.929 -0.4583 -0.2208  0.5241
 4746TIP3   OH235652   2.277   5.527   5.106  0.9365  0.1803  0.3276
 4746TIP3    H135653   2.343   5.458   5.116  0.7179 -0.4828 -2.2338
 4746TIP3    H235654   2.294   5.586   5.179  3.5171 -0.6635  0.5282
 4747TIP3   OH235655   1.889   2.362  14.948  0.4958  0.0564 -0.0485
 4747TIP3    H135656   1.889   2.450  14.985 -0.9021  0.2800 -0.4841
 4747TIP3    H235657   1.936   2.308  15.012 -1.5192  0.4886  1.9228
 4748TIP3   OH235658   4.246   0.054  14.384  0.0301 -0.1926 -0.6878
 4748TIP3    H135659   4.314   0.016  14.329 -0.5916 -1.0454 -0.8913
 4748TIP3    H235660   4.291   0.081  14.464  0.3708 -2.1751 -0.1633
 4749TIP3   OH235661   4.257   5.448  14.561  0.4664  0.1196 -0.5247
 4749TIP3    H135662   4.348   5.476  14.576  0.0586  0.6737  1.1722
 4749TIP3    H235663   4.257   5.355  14.586  0.0821  0.7222  2.0607
 4750TIP3   OH235664   5.424   4.622  10.582  0.3104  0.4048  0.1539
 4750TIP3    H135665   5.397   4.591  10.669 -3.0682  2.1399 -0.1178
 4750TIP3    H235666   5.427   4.717  10.590  0.9756  0.5407 -1.4177
 4751TIP3   OH235667   1.373   5.263   0.498  0.0859 -0.0271 -0.2994
 4751TIP3    H135668   1.435   5.206   0.453 -0.4395  0.2145 -1.3560
 4751TIP3    H235669   1.412   5.350   0.492 -0.4851  0.1771 -1.2463
 4752TIP3   OH235670   0.399   6.551   4.269 -0.6513 -0.1233 -0.0368
 4752TIP3    H135671   0.324   6.592   4.312 -0.7616 -0.7565  0.3986
 4752TIP3    H235672   0.411   6.601   4.188 -0.2743  1.2678  0.8445
 4753TIP3   OH235673   4.152   4.722  13.078 -0.5619  0.4837 -0.4157
 4753TIP3    H135674   4.061   4.752  13.073 -0.7530  0.0972  0.7060
 4753TIP3    H235675   4.156   4.649  13.017 -1.5272 -0.7761  0.9639
 4754TIP3   OH235676   2.351   5.499   3.036  0.0779 -0.0540  0.0826
 4754TIP3    H135677   2.269   5.499   3.086  0.8471  0.5103  1.3950
 4754TIP3    H235678   2.404   5.567   3.077  1.8875 -1.5867  0.3960
 4755TIP3   OH235679   4.864   3.207  13.715  0.3523  0.4152 -0.1806
 4755TIP3    H135680   4.911   3.199  13.631  2.0370 -0.4092  0.7875
 4755TIP3    H235681   4.818   3.124  13.725  1.9863 -0.4362  0.7151
 4756TIP3   OH235682   0.127   4.276   3.497  0.4001  0.1057 -0.0513
 4756TIP3    H135683   0.050   4.298   3.444  0.0625 -3.7326 -1.5058
 4756TIP3    H235684   0.093   4.263   3.586 -0.9658 -2.3332 -0.8315
 4757TIP3   OH235685   4.116   1.386  15.219  0.6000 -0.1558 -0.3848
 4757TIP3    H135686   4.164   1.456  15.264  0.8515 -1.1802  0.9779
 4757TIP3    H235687   4.024   1.400  15.244  0.6092 -0.1312 -0.3639
 4758TIP3   OH235688   4.132   1.330   5.403 -0.3277 -0.1972  0.4156
 4758TIP3    H135689   4.133   1.385   5.325 -1.2455  0.4970  0.8752
 4758TIP3    H235690   4.224   1.326   5.430 -0.3073  1.7091  0.7763
 4759TIP3   OH235691   2.802   3.552   5.769  0.2091 -0.0731  0.2016
 4759TIP3    H135692   2.800   3.500   5.849 -0.3507 -1.5900 -0.7663
 4759TIP3    H235693   2.717   3.537   5.728  0.9530 -0.3438 -1.3183
 4760TIP3   OH235694   6.644   1.864   5.027  0.5935 -1.0045  0.0841
 4760TIP3    H135695   6.600   1.888   5.109  0.9386 -0.1103  0.0191
 4760TIP3    H235696   6.604   1.919   4.961 -0.3974 -2.4380 -0.5636
 4761TIP3   OH235697   4.184   0.624   1.901 -0.4448  0.4458 -0.3333
 4761TIP3    H135698   4.195   0.667   1.816  0.4723  0.1503 -0.3750
 4761TIP3    H235699   4.246   0.670   1.958 -0.0880 -0.2396 -0.1624
 4762TIP3   OH235700   0.339   0.336  15.436  0.5893 -0.3129 -0.0671
 4762TIP3    H135701   0.318   0.243  15.445  0.8949 -0.3643  0.1404
 4762TIP3    H235702   0.256   0.382  15.449  0.3568 -0.5782 -0.5930
 4763TIP3   OH235703   3.360   1.217   5.063 -0.0732 -0.3868 -0.0863
 4763TIP3    H135704   3.411   1.274   5.005 -1.9444  1.9124  0.3660
 4763TIP3    H235705   3.269   1.235   5.040 -0.9056  0.6485  3.4740
 4764TIP3   OH235706   3.104   4.178   0.597 -0.4102  0.1825 -0.2952
 4764TIP3    H135707   3.033   4.213   0.544  1.2026  1.4274 -1.7127
 4764TIP3    H235708   3.131   4.251   0.652  1.4746  0.5574 -1.6447
 4765TIP3   OH235709   1.392   5.855   2.215  0.0774  0.4467 -0.1127
 4765TIP3    H135710   1.383   5.773   2.166 -1.7470  0.9091 -0.6158
 4765TIP3    H235711   1.483   5.880   2.202  0.3171 -0.8040 -1.0685
 4766TIP3   OH235712   0.472   3.437   5.638 -0.0279 -0.4855  0.3598
 4766TIP3    H135713   0.482   3.354   5.685  0.6908 -0.5327  0.1404
 4766TIP3    H235714   0.393   3.425   5.586 -0.7348 -0.5014  1.4062
 4767TIP3   OH235715   4.536   5.487  16.823  0.5973 -0.0882 -0.2106
 4767TIP3    H135716   4.501   5.402  16.795  2.9494 -0.6814 -1.6144
 4767TIP3    H235717   4.572   5.526  16.743  0.3851  1.8523  0.5775
 4768TIP3   OH235718   2.647   4.987  14.823 -0.3725  0.6085  0.0582
 4768TIP3    H135719   2.628   4.897  14.797  2.5414 -0.2499  0.5139
 4768TIP3    H235720   2.633   4.989  14.917  0.2651  0.4168  0.1586
 4769TIP3   OH235721   0.985   3.803   1.425  0.2910  0.0929  0.3582
 4769TIP3    H135722   1.031   3.725   1.395  3.0470  1.9878 -0.7777
 4769TIP3    H235723   0.958   3.848   1.345  1.2198  1.6278  0.8585
 4770TIP3   OH235724   6.618   4.584  14.538  0.0941 -0.0984 -0.0693
 4770TIP3    H135725   6.650   4.656  14.592  0.9160 -0.3564 -0.2086
 4770TIP3    H235726   6.612   4.510  14.598  0.3103 -0.1980 -0.1703
 4771TIP3   OH235727   1.858   1.464   6.359  0.1699 -0.7599  0.5257
 4771TIP3    H135728   1.780   1.412   6.376 -1.8383  1.6994 -0.5281
 4771TIP3    H235729   1.892   1.431   6.275 -1.8600  0.4130 -0.8241
 4772TIP3   OH235730   1.449   4.133  15.693  0.0296 -0.2394  0.0105
 4772TIP3    H135731   1.535   4.143  15.650  0.1487 -0.5809  0.1698
 4772TIP3    H235732   1.456   4.187  15.772 -0.7221  1.6660 -1.1421
 4773TIP3   OH235733   1.981   4.077   3.248  0.0178  0.0949 -0.3492
 4773TIP3    H135734   1.887   4.059   3.243  0.1440 -0.7549  0.0171
 4773TIP3    H235735   2.014   4.009   3.307  1.0593 -0.4118 -1.4863
 4774TIP3   OH235736   5.744   4.312  16.543 -0.5814  0.5048 -0.6804
 4774TIP3    H135737   5.779   4.381  16.488 -1.2706  1.1036 -0.3880
 4774TIP3    H235738   5.818   4.253  16.558 -0.2058  0.7190 -1.6354
 4775TIP3   OH235739   0.234   5.089  15.798 -0.5221  0.3376 -0.0550
 4775TIP3    H135740   0.301   5.131  15.745  0.3233 -0.4481  0.3562
 4775TIP3    H235741   0.270   5.002  15.818 -1.6882 -0.1255  0.1294
 4776TIP3   OH235742   4.391   6.306  11.182  0.6067  0.0436 -0.0407
 4776TIP3    H135743   4.452   6.260  11.239 -0.8047 -1.2814  0.4561
 4776TIP3    H235744   4.333   6.238  11.148 -0.2649  1.1767 -0.9230
 4777TIP3   OH235745   1.781   0.618   3.165  0.3024 -0.8344 -0.3473
 4777TIP3    H135746   1.866   0.630   3.208 -0.0339 -0.8669  0.3497
 4777TIP3    H235747   1.762   0.524   3.175 -0.9766 -0.4193  1.8049
 4778TIP3   OH235748   0.372   4.257   2.582 -0.3141  0.1928 -0.1101
 4778TIP3    H135749   0.428   4.334   2.572 -0.5790  0.6842  1.7767
 4778TIP3    H235750   0.333   4.268   2.668 -0.4727 -2.0044  0.1345
 4779TIP3   OH235751   3.628   0.028   2.371 -0.3836  0.4201 -0.2383
 4779TIP3    H135752   3.683   0.103   2.391 -0.5766  1.0634 -1.9968
 4779TIP3    H235753   3.538   0.061   2.376 -0.5256 -0.0036  0.1484
 4780TIP3   OH235754   3.737   0.008   1.684 -0.1855  0.1865  0.0271
 4780TIP3    H135755   3.791   0.087   1.684 -1.2892  0.9532 -0.1360
 4780TIP3    H235756   3.737  -0.021   1.775  0.5029  0.1569  0.0280
 4781TIP3   OH235757   0.711   3.029   0.802  0.3471  0.6021  0.0039
 4781TIP3    H135758   0.632   3.002   0.754 -0.2136  2.6472 -0.3110
 4781TIP3    H235759   0.692   3.005   0.893 -0.2047  0.1344 -0.2274
 4782TIP3   OH235760   3.449   1.140  15.320 -0.2556 -0.2022  0.1129
 4782TIP3    H135761   3.492   1.161  15.238  0.9140 -1.1829  0.4514
 4782TIP3    H235762   3.475   1.212  15.379  2.1396 -1.4463  0.7115
 4783TIP3   OH235763   3.299   1.906   5.732  0.0587  0.0644  0.0629
 4783TIP3    H135764   3.376   1.909   5.789 -0.2009 -1.1826  0.5216
 4783TIP3    H235765   3.245   1.980   5.759  0.0044 -0.4317  1.3728
 4784TIP3   OH235766   4.041   6.271  15.490  0.1142  0.8531  0.0714
 4784TIP3    H135767   4.021   6.179  15.470  1.8855  0.8177 -1.8745
 4784TIP3    H235768   3.978   6.295  15.558 -1.6099 -1.2489 -0.6689
 4785TIP3   OH235769   3.784   5.400   5.329  0.3477 -0.2530  0.0258
 4785TIP3    H135770   3.699   5.436   5.353 -0.7166 -1.3167 -1.9370
 4785TIP3    H235771   3.789   5.316   5.376  1.1913  0.6208  1.6081
 4786TIP3   OH235772   1.308   4.695   3.159 -0.0825 -0.1760 -0.6738
 4786TIP3    H135773   1.361   4.711   3.081  0.9927 -1.9774 -0.3662
 4786TIP3    H235774   1.352   4.744   3.228  0.4444 -0.5928 -0.7017
 4787TIP3   OH235775   4.826   1.635  12.013  0.1237  0.1866 -1.0285
 4787TIP3    H135776   4.871   1.574  11.955  1.2113 -0.1958  0.1633
 4787TIP3    H235777   4.846   1.603  12.101 -1.1332  0.9826 -0.4205
 4788TIP3   OH235778   2.978   2.794   4.293  0.0750  0.0885 -0.1624
 4788TIP3    H135779   2.918   2.767   4.362  0.3798  0.9994  0.4792
 4788TIP3    H235780   3.033   2.718   4.277  0.5442  0.1265  1.1901
 4789TIP3   OH235781   5.255   1.567   0.014 -0.0938  0.3041  0.5906
 4789TIP3    H135782   5.333   1.569  -0.042 -0.5656 -0.7555 -0.1512
 4789TIP3    H235783   5.210   1.649  -0.004  0.5158  0.6258  0.5254
 4790TIP3   OH235784   2.349   2.684   5.618 -0.0695  0.1748 -0.0283
 4790TIP3    H135785   2.291   2.627   5.669  2.2411 -1.0187  1.4287
 4790TIP3    H235786   2.406   2.623   5.571  0.5288  1.3025 -0.8005
 4791TIP3   OH235787   5.328   0.039  10.702 -0.0138 -0.0139 -0.8155
 4791TIP3    H135788   5.261  -0.011  10.655  0.2382 -0.8282 -0.3272
 4791TIP3    H235789   5.282   0.075  10.778 -0.2887  0.8509 -1.3657
 4792TIP3   OH235790   5.497   0.173   0.216  0.9316 -0.2503 -0.1162
 4792TIP3    H135791   5.439   0.189   0.290 -1.6774 -0.9451 -1.8429
 4792TIP3    H235792   5.548   0.096   0.241  0.8981  0.1919  1.3608
 4793TIP3   OH235793   0.708   4.623  14.594 -0.2608  0.0306  0.5202
 4793TIP3    H135794   0.774   4.650  14.657  0.1237  0.5356 -0.0852
 4793TIP3    H235795   0.700   4.528  14.606 -1.2192  0.2893  2.2834
 4794TIP3   OH235796   4.250   3.549  12.510  0.2028 -0.2102  0.6215
 4794TIP3    H135797   4.169   3.598  12.497  0.7868  1.0890  1.7062
 4794TIP3    H235798   4.312   3.588  12.449 -0.5919 -2.9774 -2.2510
 4795TIP3   OH235799   3.356   2.398  16.810  0.6263  0.0240  0.3124
 4795TIP3    H135800   3.394   2.310  16.798 -0.8863 -0.8143  1.3562
 4795TIP3    H235801   3.266   2.389  16.778  0.6073  1.3660 -0.0456
 4796TIP3   OH235802   6.123   6.161  15.143 -0.3691  0.0637  0.3550
 4796TIP3    H135803   6.167   6.211  15.074  2.4614 -1.6559  0.7671
 4796TIP3    H235804   6.048   6.121  15.100  0.6634 -0.0087 -1.4677
 4797TIP3   OH235805   3.226   0.198   2.077 -0.2375  0.2350 -0.4432
 4797TIP3    H135806   3.274   0.215   1.996  1.6329  0.3195  0.6199
 4797TIP3    H235807   3.197   0.284   2.106 -1.7516  0.1066 -1.4683
 4798TIP3   OH235808   5.472   5.270  12.549 -0.2428  0.3047 -0.2014
 4798TIP3    H135809   5.467   5.364  12.534 -1.3739  0.2522 -0.2762
 4798TIP3    H235810   5.550   5.242  12.502  0.8902  1.3937  0.9481
 4799TIP3   OH235811   5.360   2.645  15.751  0.0898 -0.4457 -0.1775
 4799TIP3    H135812   5.363   2.741  15.748  2.9589 -0.4247  0.5449
 4799TIP3    H235813   5.323   2.625  15.837  3.4112  0.1952  1.5794
 4800TIP3   OH235814   6.537   4.047   0.597 -0.5522 -0.2433 -0.2817
 4800TIP3    H135815   6.625   4.037   0.562  0.2336 -2.5191  2.0190
 4800TIP3    H235816   6.538   4.132   0.642 -1.1383  2.0102 -4.0859
 4801TIP3   OH235817   1.838   4.823  16.001  0.2125 -0.1543 -0.0943
 4801TIP3    H135818   1.915   4.824  15.945  0.3544  3.0502 -0.0275
 4801TIP3    H235819   1.863   4.873  16.079 -2.1255  1.9120 -0.5177
 4802TIP3   OH235820   2.972   1.501  14.019 -0.0622  0.1074 -0.3227
 4802TIP3    H135821   2.898   1.464  13.971 -0.3442 -2.6485  1.9510
 4802TIP3    H235822   3.036   1.429  14.023  1.4523  1.4277  0.3754
 4803TIP3   OH235823   4.008   0.174  11.962 -0.2615  0.4882  0.0448
 4803TIP3    H135824   4.096   0.208  11.947 -0.7624  1.1062 -1.7424
 4803TIP3    H235825   3.997   0.105  11.896 -0.0656 -1.7248  2.1977
 4804TIP3   OH235826   6.477   5.564  13.377  0.3892 -0.2830 -0.5971
 4804TIP3    H135827   6.495   5.536  13.467  1.0515 -0.0952 -0.6652
 4804TIP3    H235828   6.397   5.615  13.383  0.7648  0.2464 -0.0088
 4805TIP3   OH235829   6.455   1.544  12.387 -0.4312 -0.0356  0.4081
 4805TIP3    H135830   6.413   1.630  12.383  0.4719  0.4114  0.3011
 4805TIP3    H235831   6.542   1.558  12.350 -0.7845 -1.3277 -0.9887
 4806TIP3   OH235832   3.199   2.636   2.593 -0.2631 -0.3578  0.1489
 4806TIP3    H135833   3.185   2.678   2.678 -0.5881  1.4075 -0.7341
 4806TIP3    H235834   3.294   2.626   2.586  0.1692  3.1850 -0.8809
 4807TIP3   OH235835   1.587   4.933  13.533  0.0855 -0.9441 -0.0989
 4807TIP3    H135836   1.646   5.003  13.504 -0.1888  0.1882  1.8606
 4807TIP3    H235837   1.524   4.924  13.462 -0.0257  1.0128 -0.3081
 4808TIP3   OH235838   3.334   2.100   6.214 -0.7738  0.0344 -0.3874
 4808TIP3    H135839   3.305   2.149   6.137 -0.2749 -0.3246 -0.8157
 4808TIP3    H235840   3.427   2.123   6.224 -0.3043 -1.4126 -1.0821
 4809TIP3   OH235841   4.236   1.788   2.260  0.1615  0.3131  0.2616
 4809TIP3    H135842   4.196   1.847   2.198 -0.7636  0.1133  0.6563
 4809TIP3    H235843   4.199   1.702   2.240 -0.3633  0.2932  1.2499
 4810TIP3   OH235844   6.195   5.826  10.694  0.2813 -0.1565  0.2252
 4810TIP3    H135845   6.146   5.868  10.623  0.6505 -0.8173 -0.4369
 4810TIP3    H235846   6.286   5.855  10.680  0.1536  0.8268  1.2675
 4811TIP3   OH235847   3.936   3.976   1.141 -0.6589  0.3591  0.3120
 4811TIP3    H135848   3.954   4.010   1.053  0.1497  1.2001  0.7858
 4811TIP3    H235849   4.015   3.995   1.191 -0.2031 -2.1274  0.6705
 4812TIP3   OH235850   3.890   4.541  16.838  0.0211 -0.5814  0.0721
 4812TIP3    H135851   3.870   4.548  16.744 -0.8087 -1.9659  0.1168
 4812TIP3    H235852   3.985   4.526  16.842  0.3463  1.2022 -0.4337
 4813TIP3   OH235853   5.012   6.275  16.021 -0.1763 -0.6901 -0.0332
 4813TIP3    H135854   4.996   6.332  16.097 -0.6261  1.5113 -1.6634
 4813TIP3    H235855   5.095   6.231  16.041 -0.3668 -0.2880  1.7826
 4814TIP3   OH235856   2.976   1.543  10.826  0.0265  1.0505 -0.2374
 4814TIP3    H135857   2.938   1.513  10.908 -0.5292  0.0300 -0.8409
 4814TIP3    H235858   3.023   1.623  10.849 -0.2151  0.8493  1.0398
 4815TIP3   OH235859   6.583   3.565  15.909 -0.1373  0.6879 -0.0482
 4815TIP3    H135860   6.559   3.552  15.818  0.3661 -0.2163 -0.0576
 4815TIP3    H235861   6.660   3.509  15.923 -0.8480 -0.0256  1.2041
 4816TIP3   OH235862   3.073   6.080   3.589  0.4099  0.0104 -0.0567
 4816TIP3    H135863   3.025   6.023   3.529 -0.4403  2.3797 -1.7543
 4816TIP3    H235864   3.024   6.075   3.671 -0.1976 -0.9341 -0.4601
 4817TIP3   OH235865   6.131   3.385   4.582  0.1243  0.3317  0.6433
 4817TIP3    H135866   6.157   3.475   4.601 -0.1845  0.4376  0.5852
 4817TIP3    H235867   6.097   3.352   4.665  2.2491 -0.4693  1.2394
 4818TIP3   OH235868   4.931   1.084   3.199  0.4890 -0.0198 -0.5482
 4818TIP3    H135869   4.908   0.997   3.230  0.2290  0.8109  1.7738
 4818TIP3    H235870   4.853   1.115   3.152  1.1425 -1.5687 -2.8355
 4819TIP3   OH235871   5.046   2.964   6.089  0.1273  0.2280  0.7161
 4819TIP3    H135872   5.112   2.929   6.028 -0.1780  0.5887  0.1636
 4819TIP3    H235873   5.004   2.887   6.126  0.5926 -0.0027  0.7691
 4820TIP3   OH235874   3.427   0.064   3.899 -0.3276  0.1409 -0.2493
 4820TIP3    H135875   3.388  -0.016   3.936  0.8818 -0.1074  0.5382
 4820TIP3    H235876   3.454   0.038   3.811  2.9619 -1.3791  1.0369
 4821TIP3   OH235877   5.456   2.916  17.089 -0.0799 -0.6535 -0.0954
 4821TIP3    H135878   5.402   2.993  17.102 -0.8376 -1.3464  0.9925
 4821TIP3    H235879   5.463   2.907  16.993  1.3566  1.6364 -0.2729
 4822TIP3   OH235880   1.865   1.156   5.171  0.3353 -0.0541 -0.7399
 4822TIP3    H135881   1.870   1.085   5.235  1.9422  0.0663 -0.7004
 4822TIP3    H235882   1.935   1.138   5.108  0.7830  1.4722 -0.7333
 4823TIP3   OH235883   3.913   4.330   6.114 -0.3729  0.2656  0.0417
 4823TIP3    H135884   3.869   4.245   6.119  0.7188 -0.2664  1.5231
 4823TIP3    H235885   3.846   4.391   6.083 -1.3907 -0.9824 -0.2935
 4824TIP3   OH235886   3.689   5.543  14.659 -0.0593 -0.3634  0.0312
 4824TIP3    H135887   3.720   5.626  14.624 -1.3775  0.4182  0.6501
 4824TIP3    H235888   3.717   5.543  14.751 -1.7442  0.3292  0.5842
 4825TIP3   OH235889   4.745   3.376   2.118  0.1619  0.0887  0.6004
 4825TIP3    H135890   4.649   3.378   2.123  0.1747 -0.6543  1.3239
 4825TIP3    H235891   4.766   3.285   2.097  0.6699  0.5367 -1.0176
 4826TIP3   OH235892   6.429   1.848   4.741 -0.2623 -0.3291 -0.2761
 4826TIP3    H135893   6.388   1.902   4.809  1.7392 -0.7504  1.3936
 4826TIP3    H235894   6.486   1.909   4.694  0.6557 -0.5916  0.4579
 4827TIP3   OH235895   5.862   5.000   0.360 -0.3252 -0.4330  0.2942
 4827TIP3    H135896   5.909   4.920   0.381  0.8127 -0.3405 -1.6373
 4827TIP3    H235897   5.796   4.973   0.296  0.6904  0.2532 -1.1083
 4828TIP3   OH235898   4.013   3.673  12.429 -0.4215  0.3276  0.1405
 4828TIP3    H135899   3.993   3.759  12.465 -0.6315  0.9677 -1.4174
 4828TIP3    H235900   3.937   3.619  12.450 -0.2220  0.4712  1.2601
 4829TIP3   OH235901   1.933   2.173  15.167  0.2793 -0.2406 -0.3980
 4829TIP3    H135902   1.890   2.092  15.141  0.0932 -0.2996  0.0861
 4829TIP3    H235903   1.881   2.205  15.241 -0.9040  1.4048 -1.8741
 4830TIP3   OH235904   2.448   4.778   3.814 -0.0471  0.5562 -0.3152
 4830TIP3    H135905   2.484   4.746   3.732 -0.9350 -1.0594 -0.1152
 4830TIP3    H235906   2.466   4.709   3.878  1.2286  2.0577  1.0529
 4831TIP3   OH235907   6.694   6.075   1.485 -0.0384 -0.9234 -0.5530
 4831TIP3    H135908   6.775   6.029   1.460 -0.0762 -1.3321  0.0556
 4831TIP3    H235909   6.686   6.059   1.579 -0.1185  0.2491 -0.3497
 4832TIP3   OH235910   4.542   2.185   6.107 -0.1724  0.5118  0.5328
 4832TIP3    H135911   4.508   2.154   6.023  1.2989  0.3106 -0.0079
 4832TIP3    H235912   4.473   2.163   6.170 -0.2680 -1.6015 -0.2325
 4833TIP3   OH235913   6.372   0.810  15.630 -0.0037 -0.1835  0.0265
 4833TIP3    H135914   6.381   0.832  15.722 -0.0652  0.1872 -0.0553
 4833TIP3    H235915   6.390   0.892  15.584  0.4942 -0.4765 -0.3099
 4834TIP3   OH235916   0.949   2.028   2.311  0.3908 -0.1850 -0.8569
 4834TIP3    H135917   1.033   2.033   2.355  0.1373 -0.1156 -0.3794
 4834TIP3    H235918   0.885   2.052   2.378 -0.1846 -2.1516 -0.6360
 4835TIP3   OH235919   5.328   0.722  10.547  0.5315  0.2935  0.1556
 4835TIP3    H135920   5.352   0.758  10.461  0.4242 -1.0788 -0.4716
 4835TIP3    H235921   5.299   0.798  10.597  2.9023  1.5329 -0.1836
 4836TIP3   OH235922   3.063   0.601  14.946  0.6424  0.5666 -0.2442
 4836TIP3    H135923   3.001   0.612  14.873 -0.2128 -3.8985 -0.5011
 4836TIP3    H235924   3.147   0.584  14.904  0.4845 -0.3699 -0.2207
 4837TIP3   OH235925   3.089   5.284   2.661 -0.0627 -0.4741  0.2663
 4837TIP3    H135926   3.123   5.200   2.693 -0.7249 -0.5630  0.7592
 4837TIP3    H235927   3.165   5.343   2.665  0.2669 -0.9019  0.4631
 4838TIP3   OH235928   5.916   6.266  16.232 -0.1138 -0.0527 -0.1581
 4838TIP3    H135929   5.867   6.266  16.149  0.2642  0.0058 -0.3814
 4838TIP3    H235930   5.849   6.252  16.299 -0.1741 -2.7420 -0.6435
 4839TIP3   OH235931   0.441   6.642   1.021 -0.2889  0.0837  0.6018
 4839TIP3    H135932   0.517   6.700   1.014  1.1083 -1.6029  0.8925
 4839TIP3    H235933   0.374   6.682   0.966  0.9609  1.4061 -0.0192
 4840TIP3   OH235934   5.401   3.595  15.508  0.2696 -0.0994  0.1939
 4840TIP3    H135935   5.473   3.637  15.461 -1.0109  1.9548 -0.0667
 4840TIP3    H235936   5.324   3.645  15.483 -0.7586 -0.0994  3.0277
 4841TIP3   OH235937   5.724   6.611  16.246  0.2837 -0.5157  0.3593
 4841TIP3    H135938   5.657   6.543  16.243 -0.9574  0.6220  1.2060
 4841TIP3    H235939   5.772   6.602  16.164 -0.0392 -2.1933  0.3160
 4842TIP3   OH235940   3.012   3.717  16.754 -0.0083  0.0341  0.5159
 4842TIP3    H135941   2.965   3.645  16.712  0.5422 -0.0585  0.0497
 4842TIP3    H235942   2.950   3.751  16.820 -0.2216 -0.9452  0.8354
 4843TIP3   OH235943   5.441   0.451   0.195 -0.1209  0.2624 -0.2260
 4843TIP3    H135944   5.416   0.456   0.287  1.2119  1.8041  0.0955
 4843TIP3    H235945   5.465   0.359   0.181 -2.3470 -0.4571  0.3696
 4844TIP3   OH235946   5.685   3.853   3.393 -0.1994 -0.2121 -0.7867
 4844TIP3    H135947   5.669   3.911   3.319  1.1226  1.5231  0.1971
 4844TIP3    H235948   5.713   3.912   3.463 -1.5815 -1.7657  1.1781
 4845TIP3   OH235949   1.294   0.228   3.936 -0.1906 -0.4654 -0.2575
 4845TIP3    H135950   1.356   0.244   3.864  0.6899 -0.7200  0.4318
 4845TIP3    H235951   1.329   0.151   3.981 -1.1897 -0.8040 -0.0370
 4846TIP3   OH235952   5.617   0.736   1.338  0.0572 -0.2788 -0.1327
 4846TIP3    H135953   5.661   0.724   1.422  4.1200 -2.7733 -2.2373
 4846TIP3    H235954   5.560   0.660   1.330  0.9037 -0.9279 -0.2018
 4847TIP3   OH235955   2.192   6.027  14.554 -0.0809 -0.3255 -0.2725
 4847TIP3    H135956   2.260   6.060  14.496  0.4033 -0.3647  0.2586
 4847TIP3    H235957   2.134   6.102  14.567  1.3721  0.5789  1.4466
 4848TIP3   OH235958   5.146   4.149   3.414  0.3036 -0.5982 -0.4634
 4848TIP3    H135959   5.122   4.240   3.430  0.9824 -0.3697 -0.6826
 4848TIP3    H235960   5.238   4.153   3.389  0.6023 -1.4468  0.4393
 4849TIP3   OH235961   3.110   0.463  10.590  0.2483  0.1524  0.0793
 4849TIP3    H135962   3.102   0.421  10.675 -1.1217  2.1992  1.0463
 4849TIP3    H235963   3.150   0.548  10.609  0.0418  0.5952 -1.3390
 4850TIP3   OH235964   4.993   1.663   5.420  0.2309 -0.3449 -0.0487
 4850TIP3    H135965   4.966   1.585   5.468 -1.0032 -0.2596 -0.5540
 4850TIP3    H235966   5.047   1.712   5.481 -0.8770 -0.4848  1.0759
 4851TIP3   OH235967   2.294   6.428   2.329 -0.2114  0.3955 -0.0299
 4851TIP3    H135968   2.330   6.426   2.417  1.4077 -0.2214 -0.6707
 4851TIP3    H235969   2.241   6.348   2.323  0.4393 -0.0556  0.0922
 4852TIP3   OH235970   5.356   6.515  11.130 -0.2244 -0.5821  0.4325
 4852TIP3    H135971   5.444   6.525  11.094 -0.2647 -1.4709  0.0517
 4852TIP3    H235972   5.361   6.555  11.216  0.2913  0.2187  0.0452
 4853TIP3   OH235973   5.860   2.343   1.442 -0.2906 -0.1490 -0.1693
 4853TIP3    H135974   5.841   2.257   1.478  2.4036 -1.7976 -2.2570
 4853TIP3    H235975   5.776   2.375   1.409 -1.0146 -3.2376 -1.7044
 4854TIP3   OH235976   5.724   6.328  11.445  0.0885 -0.3897  0.0622
 4854TIP3    H135977   5.640   6.283  11.442  0.3391 -0.8607 -0.0333
 4854TIP3    H235978   5.715   6.401  11.384 -0.2510 -0.4373  0.0563
 4855TIP3   OH235979   3.217   5.098   2.281 -0.2182  0.2075  0.6223
 4855TIP3    H135980   3.261   5.173   2.322 -1.6896  0.4475  1.8248
 4855TIP3    H235981   3.211   5.123   2.189  0.8877  0.7781  0.6773
 4856TIP3   OH235982   2.634   3.236  15.027 -0.1056  0.3148 -0.4461
 4856TIP3    H135983   2.575   3.282  15.086  0.2103 -1.1586  1.0781
 4856TIP3    H235984   2.721   3.267  15.051 -0.0020 -0.0405 -0.3573
 4857TIP3   OH235985   2.006   3.863   1.997  0.7982  0.3838 -0.2992
 4857TIP3    H135986   1.940   3.808   2.039  1.4695 -0.6214 -0.5334
 4857TIP3    H235987   1.975   3.953   2.011  0.0038 -0.0199  0.6148
 4858TIP3   OH235988   0.513   5.697  13.960 -0.2042 -0.6118  0.0014
 4858TIP3    H135989   0.577   5.659  14.021 -0.1099 -1.9270 -0.8738
 4858TIP3    H235990   0.498   5.786  13.993  0.6353 -0.9297  1.3199
 4859TIP3   OH235991   4.299   4.147  15.472 -0.0262  0.0374 -0.2828
 4859TIP3    H135992   4.223   4.123  15.526  0.1033  0.6503  0.1871
 4859TIP3    H235993   4.262   4.180  15.391 -0.2934  0.8346  0.1493
 4860TIP3   OH235994   6.576   4.167  13.388 -0.2051  0.3067 -0.4579
 4860TIP3    H135995   6.564   4.072  13.396  0.9642  0.1288 -0.6482
 4860TIP3    H235996   6.666   4.177  13.358 -0.0411  1.5314  0.4061
 4861TIP3   OH235997   5.794   6.772  16.784 -0.2018 -0.0116  0.7506
 4861TIP3    H135998   5.779   6.782  16.690 -1.5196  1.1578  1.0511
 4861TIP3    H235999   5.706   6.758  16.821  0.2942 -0.4493  1.8156
 4862TIP3   OH236000   2.530   0.990   5.321  0.6005 -0.7820 -0.0811
 4862TIP3    H136001   2.549   0.897   5.329 -0.0243 -0.7543  3.3151
 4862TIP3    H236002   2.595   1.033   5.377 -0.3527  0.5946  0.0369
 4863TIP3   OH236003   6.444   3.356   1.257 -0.0939 -0.4275 -0.3737
 4863TIP3    H136004   6.352   3.368   1.279 -0.2484 -0.2749 -1.0910
 4863TIP3    H236005   6.445   3.348   1.162  0.5139 -1.4809 -0.2920
 4864TIP3   OH236006   3.588   5.643   5.020 -0.3215 -0.4329  0.3520
 4864TIP3    H136007   3.618   5.733   5.029 -0.5994 -0.2703 -0.2703
 4864TIP3    H236008   3.498   5.644   5.052  0.9146 -1.3837  4.3787
 4865TIP3   OH236009   1.352   3.331  15.628  0.2199 -0.0612  0.3489
 4865TIP3    H136010   1.401   3.405  15.663 -0.7399  0.3166  0.9351
 4865TIP3    H236011   1.419   3.269  15.600  1.0590  1.4544 -1.1481
 4866TIP3   OH236012   4.719   3.606  11.497  0.0507 -0.1935 -0.3371
 4866TIP3    H136013   4.694   3.517  11.472  0.0881 -0.5467  0.8593
 4866TIP3    H236014   4.637   3.648  11.523  0.3775 -0.7807  1.8133
 4867TIP3   OH236015   6.602   3.065  15.676 -0.4027 -0.3061 -0.1106
 4867TIP3    H136016   6.613   2.976  15.642 -0.8393 -0.2716 -0.3497
 4867TIP3    H236017   6.678   3.113  15.644 -0.4170 -0.4706 -0.3954
 4868TIP3   OH236018   3.527   3.816   1.992 -0.3610  0.0346  0.4724
 4868TIP3    H136019   3.584   3.762   1.938  1.1584  1.9040  0.0874
 4868TIP3    H236020   3.445   3.821   1.943 -0.0837 -0.8245 -0.1010
 4869TIP3   OH236021   5.913   2.436  13.161  0.3697  0.2434  0.3397
 4869TIP3    H136022   5.842   2.427  13.097  1.0194 -1.0351 -0.2480
 4869TIP3    H236023   5.974   2.365  13.139  1.4735  0.8642  1.2844
 4870TIP3   OH236024   3.668   4.648  16.986  0.3338 -0.2104 -0.3885
 4870TIP3    H136025   3.589   4.647  16.932 -0.2486 -2.8097  0.3987
 4870TIP3    H236026   3.731   4.596  16.936  0.8448  0.0469 -0.0157
 4871TIP3   OH236027   6.654   2.982   0.851  0.4083 -0.7725 -0.2734
 4871TIP3    H136028   6.607   2.904   0.823  0.3549 -1.0506  0.5554
 4871TIP3    H236029   6.605   3.013   0.927  0.3594  0.1398 -0.6590
 4872TIP3   OH236030   2.241   2.260   1.580  0.1605 -0.7165  0.6685
 4872TIP3    H136031   2.152   2.274   1.548  1.0149  1.6641 -0.9732
 4872TIP3    H236032   2.268   2.346   1.613  3.6325  0.3497 -3.9243
 4873TIP3   OH236033   4.917   1.386  12.735 -0.4016  0.3875  0.1045
 4873TIP3    H136034   4.947   1.359  12.648  1.6122 -0.4742  1.0130
 4873TIP3    H236035   4.886   1.306  12.776 -1.0199  0.7341  0.3250
 4874TIP3   OH236036   2.996   6.153  14.075 -0.4878 -0.4140  0.1135
 4874TIP3    H136037   2.986   6.061  14.052 -1.9874  0.3275 -2.6319
 4874TIP3    H236038   3.056   6.189  14.009 -1.6844  1.0091 -0.2636
 4875TIP3   OH236039   0.354   5.435   5.351 -0.0263 -0.1756 -0.8074
 4875TIP3    H136040   0.402   5.501   5.300 -0.5784  0.0938 -0.9887
 4875TIP3    H236041   0.387   5.446   5.441 -1.3630  1.6059 -0.4529
 4876TIP3   OH236042   5.941   0.293  13.945  0.5335  0.4415  0.1436
 4876TIP3    H136043   6.014   0.245  13.983  0.5533 -0.6656 -1.2227
 4876TIP3    H236044   5.941   0.267  13.853 -1.2263  0.8744 -0.0068
 4877TIP3   OH236045   1.235   5.361   2.968  0.7316  0.0842 -0.3008
 4877TIP3    H136046   1.197   5.430   3.021  1.8057 -0.4199  1.2032
 4877TIP3    H236047   1.326   5.388   2.956  0.3327  0.5911 -2.6389
 4878TIP3   OH236048   5.789   1.918   1.670 -0.4604  0.5658  0.0585
 4878TIP3    H136049   5.717   1.857   1.654  0.3480 -0.7642  1.2480
 4878TIP3    H236050   5.754   2.003   1.645 -2.8724  0.1489  1.6763
 4879TIP3   OH236051   1.652   0.703  17.048 -0.5768  0.0492  0.0626
 4879TIP3    H136052   1.562   0.712  17.078 -0.4428 -2.0011  1.2853
 4879TIP3    H236053   1.648   0.636  16.980 -0.1560  1.1041 -1.0486
 4880TIP3   OH236054   2.743   2.360   5.386  0.0001 -0.3528 -0.2748
 4880TIP3    H136055   2.706   2.272   5.382 -0.7199 -0.2771  2.6001
 4880TIP3    H236056   2.799   2.359   5.464  0.6476  1.5125 -0.6553
 4881TIP3   OH236057   2.133   0.733   0.670  0.6061 -0.0136  0.0640
 4881TIP3    H136058   2.185   0.747   0.591  1.7480  3.2388  1.2400
 4881TIP3    H236059   2.197   0.713   0.738 -0.0394  0.4480  0.8167
 4882TIP3   OH236060   2.331   5.353   2.819  0.3908  0.0008 -0.0028
 4882TIP3    H136061   2.243   5.321   2.838  1.0290 -1.7471  0.3190
 4882TIP3    H236062   2.358   5.396   2.900  0.0781 -0.0883  0.1518
 4883TIP3   OH236063   0.640   6.232   5.830 -0.2842  0.3400 -0.2693
 4883TIP3    H136064   0.650   6.141   5.804 -0.8569 -0.3132  1.6087
 4883TIP3    H236065   0.547   6.251   5.818 -0.1688  0.6772 -0.6486
 4884TIP3   OH236066   4.163   4.246  11.528 -0.3266 -0.2424  0.4642
 4884TIP3    H136067   4.168   4.200  11.612  0.9775 -2.3815 -0.7015
 4884TIP3    H236068   4.208   4.329  11.543  0.5623 -0.9143  1.6855
 4885TIP3   OH236069   4.555   5.348  15.746  0.6578 -0.4652 -0.1208
 4885TIP3    H136070   4.638   5.397  15.752  0.9372 -0.8016 -1.0033
 4885TIP3    H236071   4.560   5.305  15.660 -0.5561 -0.2726 -0.2962
 4886TIP3   OH236072   5.703   1.522   3.391 -0.1894  0.6369  0.9730
 4886TIP3    H136073   5.649   1.581   3.444 -0.0920  1.5280  0.0983
 4886TIP3    H236074   5.773   1.495   3.450  1.4161  3.6371  0.6265
 4887TIP3   OH236075   5.374   1.879  16.350 -0.2867 -0.2396 -0.1257
 4887TIP3    H136076   5.369   1.973  16.332 -1.9082 -0.3513 -0.4424
 4887TIP3    H236077   5.311   1.840  16.289  0.8764 -1.6216 -0.4925
 4888TIP3   OH236078   5.351   1.935  13.425 -0.1867 -0.6284  0.3206
 4888TIP3    H136079   5.260   1.913  13.447  0.1436 -1.4360  0.8599
 4888TIP3    H236080   5.404   1.881  13.482  0.6476  0.5267  0.6664
 4889TIP3   OH236081   5.236   2.815  16.098 -0.0700 -0.1658  0.3123
 4889TIP3    H136082   5.206   2.876  16.031  0.2266 -1.0790 -0.6751
 4889TIP3    H236083   5.319   2.781  16.064  0.6744  0.1928  1.6813
 4890TIP3   OH236084   1.560   2.100  12.733  0.3523 -0.3392 -0.1648
 4890TIP3    H136085   1.603   2.032  12.787  1.0159 -0.6840 -1.0957
 4890TIP3    H236086   1.618   2.110  12.658 -0.2618  0.5610 -0.5286
 4891TIP3   OH236087   2.471   3.584   4.998 -0.2890  0.6779 -0.0804
 4891TIP3    H136088   2.457   3.634   4.918  0.5797 -0.8499 -1.2517
 4891TIP3    H236089   2.539   3.520   4.974  0.1677  0.3389  1.9571
 4892TIP3   OH236090   2.605   1.626  12.797 -0.2002 -0.2204  0.5729
 4892TIP3    H136091   2.649   1.544  12.777  1.5321  1.1356 -1.6688
 4892TIP3    H236092   2.675   1.684  12.828 -0.9756  1.0355  0.0521
 4893TIP3   OH236093   0.819   4.577  15.373  0.2971 -0.0292 -0.1344
 4893TIP3    H136094   0.762   4.609  15.303  0.9957 -0.9638 -1.1838
 4893TIP3    H236095   0.839   4.486  15.347  1.9729  0.1650  0.3513
 4894TIP3   OH236096   1.421   4.191  16.659  0.1359 -0.8450  0.1654
 4894TIP3    H136097   1.440   4.270  16.610 -0.8291 -0.4997  0.3370
 4894TIP3    H236098   1.451   4.211  16.748  2.7136 -1.7879 -0.4008
 4895TIP3   OH236099   0.536   6.750   3.321  0.4773  0.4817  0.1486
 4895TIP3    H136100   0.486   6.696   3.383  0.3301  0.2173 -0.1958
 4895TIP3    H236101   0.500   6.838   3.332  0.7954  0.5399  0.7954
 4896TIP3   OH236102   5.371   0.407  11.924 -0.2849  0.7702 -0.6276
 4896TIP3    H136103   5.411   0.320  11.926 -3.2303 -0.7805  2.5931
 4896TIP3    H236104   5.319   0.408  11.843  0.6911  0.0109 -1.2801
 4897TIP3   OH236105   6.445   1.359   0.261 -0.3073 -0.3774  0.3144
 4897TIP3    H136106   6.407   1.289   0.209 -1.4429 -1.2187  2.1723
 4897TIP3    H236107   6.535   1.330   0.279 -0.0342 -0.2571 -0.7984
 4898TIP3   OH236108   4.510   6.541  16.666  0.2428 -0.1505 -0.0112
 4898TIP3    H136109   4.577   6.478  16.640  0.9993  0.3536  0.6647
 4898TIP3    H236110   4.428   6.500  16.640  0.8201 -0.6478 -1.1414
 4899TIP3   OH236111   5.211   2.036  12.113  0.0160  0.2363  0.0170
 4899TIP3    H136112   5.129   1.992  12.135  0.1644  0.0783  0.2512
 4899TIP3    H236113   5.247   2.064  12.197  0.0282  0.6147 -0.1134
 4900TIP3   OH236114   4.917   0.975  16.508 -0.1590 -0.1978 -0.3013
 4900TIP3    H136115   4.984   0.910  16.485  0.8866  1.3714 -1.9865
 4900TIP3    H236116   4.854   0.969  16.436  0.4141  1.2035 -0.9605
 4901TIP3   OH236117   2.872   5.395  11.593  0.0778  0.3281  0.2096
 4901TIP3    H136118   2.781   5.385  11.620  0.9607 -0.0947  3.3693
 4901TIP3    H236119   2.903   5.470  11.643  1.6850 -0.0376 -0.1957
 4902TIP3   OH236120   4.854   3.041   0.201  0.4871  0.2898 -0.3710
 4902TIP3    H136121   4.824   2.998   0.121  1.3619 -0.0235 -0.5412
 4902TIP3    H236122   4.829   3.133   0.191  0.0765  0.1408 -0.7366
 4903TIP3   OH236123   4.977   4.673  15.305  0.8064  0.2125 -0.2675
 4903TIP3    H136124   5.027   4.751  15.278 -0.0336  1.1824  0.8886
 4903TIP3    H236125   4.955   4.690  15.397 -2.4236  0.2675 -0.9533
 4904TIP3   OH236126   6.210   6.696  12.277 -0.2046  0.2335 -0.1871
 4904TIP3    H136127   6.305   6.688  12.273 -0.2023  0.3983 -0.4465
 4904TIP3    H236128   6.195   6.779  12.323 -0.2132  0.9886 -1.5121
 4905TIP3   OH236129   6.451   2.406   0.489  0.0386  0.4038 -0.4070
 4905TIP3    H136130   6.500   2.335   0.449 -0.9190 -0.0817 -0.7562
 4905TIP3    H236131   6.493   2.421   0.573  0.6855 -0.0847 -0.6349
 4906TIP3   OH236132   6.635   4.322  15.388  0.7025  0.0335  0.3721
 4906TIP3    H136133   6.611   4.399  15.337 -0.4130 -0.1573  0.5778
 4906TIP3    H236134   6.720   4.295  15.353  0.1152  0.0819 -1.1698
 4907TIP3   OH236135   1.018   0.784   5.225 -0.4484 -0.2959  0.0643
 4907TIP3    H136136   1.076   0.859   5.229 -0.8136 -0.0354  0.7165
 4907TIP3    H236137   0.953   0.808   5.159 -0.6289  0.0135  0.3501
 4908TIP3   OH236138   4.153   5.268   5.273  0.2091 -0.6413  0.1168
 4908TIP3    H136139   4.242   5.292   5.246 -0.8327  1.4837 -1.7618
 4908TIP3    H236140   4.131   5.330   5.342 -0.1699 -0.4642 -0.1592
 4909TIP3   OH236141   4.468   3.261  11.772  0.0325 -0.3472 -0.3293
 4909TIP3    H136142   4.531   3.333  11.777 -1.0406  0.6817 -0.8902
 4909TIP3    H236143   4.500   3.206  11.701  0.8290 -0.3947  0.0577
 4910TIP3   OH236144   2.113   3.220  14.737  0.0608  0.0698 -0.4272
 4910TIP3    H136145   2.030   3.188  14.772 -0.8950  1.4150 -1.3705
 4910TIP3    H236146   2.093   3.248  14.648  1.2019  1.6378 -0.2422
 4911TIP3   OH236147   5.052   1.954  16.430  0.1773  0.2082 -0.4436
 4911TIP3    H136148   5.079   1.931  16.341 -0.2559  0.2682 -0.5911
 4911TIP3    H236149   5.090   1.885  16.485  0.7304  0.3562 -0.6308
 4912TIP3   OH236150   0.448   4.791   3.085 -0.0457 -0.0946  0.4743
 4912TIP3    H136151   0.369   4.844   3.079  0.1053 -0.0022 -1.0970
 4912TIP3    H236152   0.422   4.714   3.136 -1.0434  0.1126  0.2863
 4913TIP3   OH236153   0.911   0.236  15.945  0.1158 -0.6548 -0.0720
 4913TIP3    H136154   0.885   0.295  15.874 -0.2423 -0.9632 -0.2028
 4913TIP3    H236155   0.871   0.152  15.922 -1.9364 -0.2314  1.6306
 4914TIP3   OH236156   4.429   4.118  12.801  0.1379 -0.6833 -0.2196
 4914TIP3    H136157   4.438   4.028  12.832  0.9616 -0.6156 -0.2297
 4914TIP3    H236158   4.518   4.154  12.807 -0.2899  0.3150  0.3497
 4915TIP3   OH236159   2.006   5.216   4.809  0.1066  0.2479 -0.2521
 4915TIP3    H136160   2.082   5.262   4.845 -1.1882  2.2959  0.0526
 4915TIP3    H236161   1.955   5.284   4.765  0.2493 -1.6955 -3.7497
 4916TIP3   OH236162   6.041   1.487  13.383  0.4819  0.0916  0.6437
 4916TIP3    H136163   5.983   1.438  13.325  1.8577  0.2523 -0.9398
 4916TIP3    H236164   6.025   1.450  13.470  0.0099 -1.7732 -0.1814
 4917TIP3   OH236165   4.665   1.292  14.072 -0.4299  0.1627  0.1713
 4917TIP3    H136166   4.596   1.262  14.132  0.5034  1.1668  1.8382
 4917TIP3    H236167   4.624   1.290  13.986 -2.0610 -0.6935  0.9102
 4918TIP3   OH236168   4.832   4.492   5.064  0.2282  0.5041 -0.1803
 4918TIP3    H136169   4.764   4.462   5.126 -0.0178  1.5703  0.0784
 4918TIP3    H236170   4.815   4.585   5.053  1.7559  0.8331  0.0101
 4919TIP3   OH236171   2.095   3.473  15.523  0.4337  0.7015 -0.0670
 4919TIP3    H136172   2.128   3.403  15.579  0.9886  1.8529  1.1112
 4919TIP3    H236173   2.005   3.488  15.554 -0.0036 -0.0548 -0.9136
 4920TIP3   OH236174   1.133   1.787  14.227  0.0971  0.7526  0.7000
 4920TIP3    H136175   1.088   1.869  14.206 -0.6380 -0.5254 -3.7725
 4920TIP3    H236176   1.221   1.814  14.254 -0.3541  3.0377  0.0727
 4921TIP3   OH236177   4.838   6.115   5.534 -0.2458 -0.1742  0.0949
 4921TIP3    H136178   4.901   6.185   5.519  2.1509 -1.8887  1.4609
 4921TIP3    H236179   4.788   6.144   5.611 -1.2727  1.2518 -1.0681
 4922TIP3   OH236180   1.078   1.398  13.835  0.3377  0.4241  0.2190
 4922TIP3    H136181   1.144   1.331  13.820 -0.6873 -1.0335  1.8385
 4922TIP3    H236182   1.117   1.457  13.899  0.4692  0.1865  0.3570
 4923TIP3   OH236183   0.709   0.984  13.760 -0.2489  0.5789  0.9559
 4923TIP3    H136184   0.694   0.895  13.727  1.8737  0.2412  0.7593
 4923TIP3    H236185   0.626   1.030  13.745 -0.6963 -0.7537 -0.9550
 4924TIP3   OH236186   6.030   4.660  14.242 -0.3482 -0.3122 -0.3712
 4924TIP3    H136187   5.996   4.594  14.302  1.9855 -1.6048 -0.3650
 4924TIP3    H236188   6.010   4.744  14.285 -1.9198 -1.0550  0.4168
 4925TIP3   OH236189   6.808   4.948  12.194 -0.5552 -0.0216  0.2246
 4925TIP3    H136190   6.857   5.004  12.135 -1.7607  0.7760 -0.0659
 4925TIP3    H236191   6.843   4.969  12.281 -0.0767  0.1852 -0.0137
 4926TIP3   OH236192   2.277   4.858   2.232 -0.5943  0.8389  0.3797
 4926TIP3    H136193   2.187   4.890   2.232 -0.5108  1.0748  0.4955
 4926TIP3    H236194   2.331   4.937   2.230 -0.3873  0.7144  0.9533
 4927TIP3   OH236195   1.812   1.797   5.626 -0.2837  0.7344  0.6728
 4927TIP3    H136196   1.846   1.735   5.562  1.6621  1.4938  0.8916
 4927TIP3    H236197   1.831   1.757   5.711 -1.1568  0.5769  0.8011
 4928TIP3   OH236198   2.522   4.909   1.992 -0.4866 -0.1696  0.3858
 4928TIP3    H136199   2.514   4.843   2.061 -0.6880  1.4294  1.9914
 4928TIP3    H236200   2.613   4.904   1.964 -0.1620 -0.2511  1.4260
 4929TIP3   OH236201   4.197   5.204  13.730  0.5512 -0.2312  0.0961
 4929TIP3    H136202   4.214   5.144  13.658  0.9771  1.2236 -1.0516
 4929TIP3    H236203   4.232   5.288  13.701 -1.5274  1.0019  0.9502
 4930TIP3   OH236204   5.444   1.652  16.795  0.3584 -0.0771 -0.5621
 4930TIP3    H136205   5.468   1.621  16.882 -1.9752  0.8421  0.4676
 4930TIP3    H236206   5.489   1.736  16.786 -1.2299  0.9874  0.7975
 4931TIP3   OH236207   3.390   6.231   4.556  0.2352 -0.0997  0.1577
 4931TIP3    H136208   3.452   6.269   4.617  1.7890 -0.9213 -0.8500
 4931TIP3    H236209   3.437   6.159   4.514 -1.8989 -1.7986  0.4655
 4932TIP3   OH236210   4.416   5.766  15.798 -0.1980  0.1876  0.7363
 4932TIP3    H136211   4.380   5.723  15.720 -1.6281  0.0527  1.4223
 4932TIP3    H236212   4.464   5.842  15.764 -1.0050  0.2733 -0.2690
 4933TIP3   OH236213   1.074   0.753   4.399  0.0863 -0.2831  0.2945
 4933TIP3    H136214   1.095   0.666   4.434 -0.9662 -0.2972  0.9556
 4933TIP3    H236215   1.056   0.737   4.306  0.5297 -0.6573  0.2692
 4934TIP3   OH236216   6.445   4.297  15.820  0.1750  0.2651  0.2274
 4934TIP3    H136217   6.488   4.382  15.814  0.0874  0.2755 -0.2368
 4934TIP3    H236218   6.481   4.246  15.747  1.6598 -0.7398  1.5772
 4935TIP3   OH236219   2.022   0.951   3.538 -0.2276 -0.2717 -0.2101
 4935TIP3    H136220   2.081   0.880   3.565  0.0048  0.0871  0.2381
 4935TIP3    H236221   1.946   0.942   3.595 -0.7172 -0.8690 -0.9348
 4936TIP3   OH236222   4.564   2.989   1.251  0.3604 -0.4424  0.3476
 4936TIP3    H136223   4.550   3.074   1.211  1.4755 -0.0669  0.7137
 4936TIP3    H236224   4.538   3.001   1.342  0.6649 -0.4419  0.4364
 4937TIP3   OH236225   3.489   1.304   0.742  0.1795 -1.2619  0.0768
 4937TIP3    H136226   3.483   1.375   0.806 -2.7227 -0.9062 -0.4380
 4937TIP3    H236227   3.581   1.303   0.716  0.8574  0.5056  2.0718
 4938TIP3   OH236228   2.063   5.473   1.311  0.0354 -0.2908  0.6469
 4938TIP3    H136229   2.001   5.400   1.315 -0.7658  0.2532 -0.9242
 4938TIP3    H236230   2.095   5.472   1.221 -1.3340  2.3181  0.0450
 4939TIP3   OH236231   1.567   1.506  13.745 -0.4083  0.1401 -0.1529
 4939TIP3    H136232   1.485   1.523  13.699 -0.0467 -0.3270 -0.9999
 4939TIP3    H236233   1.545   1.512  13.838 -2.7232 -5.2599  0.0073
 4940TIP3   OH236234   1.899   1.232  14.759 -0.2182 -0.6092  0.1670
 4940TIP3    H136235   1.841   1.304  14.735  1.1995  0.5246 -0.0328
 4940TIP3    H236236   1.848   1.153  14.742 -1.6804  0.3275  0.0133
 4941TIP3   OH236237   6.589   1.850  11.180 -0.8573  0.2691  0.2065
 4941TIP3    H136238   6.602   1.757  11.161  0.8717  0.8200 -1.6607
 4941TIP3    H236239   6.613   1.895  11.099 -3.6800  2.2710  0.3438
 4942TIP3   OH236240   2.637   6.677   5.340  0.2407 -0.1867  0.2752
 4942TIP3    H136241   2.694   6.707   5.269  0.8223  0.0206  0.8198
 4942TIP3    H236242   2.680   6.709   5.420  0.3950 -1.6819  0.8213
 4943TIP3   OH236243   0.043   4.074   0.002  0.3334  0.9673 -0.5949
 4943TIP3    H136244  -0.044   4.046   0.031  0.7072 -3.5771 -2.9734
 4943TIP3    H236245   0.100   4.060   0.078 -0.4539  0.3730 -0.1027
 4944TIP3   OH236246   1.417   3.783  14.021 -0.0715  0.0650 -0.2433
 4944TIP3    H136247   1.348   3.838  14.058 -1.1446 -1.3541 -0.0394
 4944TIP3    H236248   1.423   3.709  14.080  1.1838 -0.1754 -0.6342
 4945TIP3   OH236249   6.642   6.373  13.105 -0.0712  0.7225 -0.6885
 4945TIP3    H136250   6.567   6.331  13.063  0.5567 -0.4319 -0.6934
 4945TIP3    H236251   6.650   6.328  13.189  1.6791 -0.4061 -1.4206
 4946TIP3   OH236252   5.873   6.177  11.050  0.5219  0.1574  0.5031
 4946TIP3    H136253   5.875   6.246  11.115  1.2644  0.2177  0.4196
 4946TIP3    H236254   5.880   6.222  10.966  0.8794 -0.0024  0.4430
 4947TIP3   OH236255   1.125   1.444   2.123  0.3999  0.0773 -0.7126
 4947TIP3    H136256   1.130   1.502   2.047 -0.2009  0.6023 -0.3626
 4947TIP3    H236257   1.061   1.377   2.097  1.5666 -0.8189 -1.3596
 4948TIP3   OH236258   1.569   3.441  13.273 -0.6607 -0.1493 -0.2773
 4948TIP3    H136259   1.562   3.474  13.363 -1.2921  1.1214 -0.7672
 4948TIP3    H236260   1.522   3.506  13.220  0.2149 -0.5595 -1.5980
 4949TIP3   OH236261   3.103   2.908   0.929 -0.2163 -0.1417 -0.2710
 4949TIP3    H136262   3.173   2.877   0.871 -0.5335  1.2463 -1.4481
 4949TIP3    H236263   3.149   2.952   1.000  0.1462  1.4506 -1.4366
 4950TIP3   OH236264   0.973   0.792  11.355 -0.7165 -0.3591 -0.7240
 4950TIP3    H136265   1.055   0.795  11.404  0.2552 -0.8890 -2.2565
 4950TIP3    H236266   0.957   0.699  11.340 -0.0577 -0.1531 -2.8900
 4951TIP3   OH236267   3.848   2.282  13.465  0.0076 -0.1046 -0.2863
 4951TIP3    H136268   3.767   2.305  13.511  0.6017  0.1409  0.6634
 4951TIP3    H236269   3.870   2.194  13.496  0.3861  0.0425 -0.1300
 4952TIP3   OH236270   2.225   4.797  11.221  0.3127  0.6680  0.2866
 4952TIP3    H136271   2.159   4.841  11.168 -0.6840 -1.3248 -0.2064
 4952TIP3    H236272   2.285   4.759  11.157  1.2551  1.3929  0.7101
 4953TIP3   OH236273   2.219   4.888   3.742  0.1661  0.1184  0.3639
 4953TIP3    H136274   2.305   4.850   3.761  1.4699  2.6848  0.0790
 4953TIP3    H236275   2.184   4.912   3.827 -0.4428 -1.1973  0.5048
 4954TIP3   OH236276   5.348   6.752   3.752 -0.4549 -0.3654  0.8299
 4954TIP3    H136277   5.373   6.812   3.823  0.8865 -0.6844  0.6534
 4954TIP3    H236278   5.295   6.685   3.795 -2.8674  1.4119  0.8720
 4955TIP3   OH236279   6.312   1.112  13.783  0.3444  0.0384  0.2060
 4955TIP3    H136280   6.316   1.124  13.878 -1.9123  2.1614  0.1347
 4955TIP3    H236281   6.230   1.064  13.769  0.2275  0.5020 -0.7193
 4956TIP3   OH236282   6.428   1.292  16.902 -0.1217 -0.4588  0.0061
 4956TIP3    H136283   6.505   1.240  16.881 -0.4527 -1.4059  1.0234
 4956TIP3    H236284   6.446   1.328  16.990  0.8704  2.6822 -1.3319
 4957TIP3   OH236285   1.144   0.983  16.522 -0.2997  0.4996 -0.2141
 4957TIP3    H136286   1.187   1.059  16.562 -0.7261  0.2932  0.6421
 4957TIP3    H236287   1.182   0.908  16.567  1.1560  0.0757 -1.9934
 4958TIP3   OH236288   0.596   2.546   5.490 -0.1018 -0.0954  0.2078
 4958TIP3    H136289   0.610   2.461   5.449 -0.0029 -0.2376  0.5344
 4958TIP3    H236290   0.553   2.527   5.574 -3.7200  0.3847 -1.3285
 4959TIP3   OH236291   3.235   2.839  14.471 -0.0197 -0.7065 -0.2239
 4959TIP3    H136292   3.246   2.759  14.522  2.3046 -0.3087  0.0369
 4959TIP3    H236293   3.301   2.832  14.401 -1.6763 -0.2678 -1.9072
 4960TIP3   OH236294   1.827   1.180  11.322 -0.3640  0.6113 -0.2993
 4960TIP3    H136295   1.794   1.090  11.318 -0.4060  0.5765  0.5200
 4960TIP3    H236296   1.767   1.229  11.267 -1.8847  0.5523  1.1860
 4961TIP3   OH236297   4.656   5.928   2.713 -0.3874  0.2297 -0.1647
 4961TIP3    H136298   4.750   5.928   2.698 -0.3852  0.7734 -0.1551
 4961TIP3    H236299   4.618   5.906   2.629 -0.2895  1.0876 -0.4439
 4962TIP3   OH236300   4.627   0.320  14.596 -0.4911 -0.3053  0.2055
 4962TIP3    H136301   4.719   0.302  14.615 -0.3617 -1.7907 -1.5802
 4962TIP3    H236302   4.629   0.389  14.530 -0.7172  0.4103  0.9308
 4963TIP3   OH236303   5.455   0.622  11.727 -0.0596 -0.0864  0.0194
 4963TIP3    H136304   5.550   0.615  11.732  0.0597  1.0372 -0.3292
 4963TIP3    H236305   5.423   0.534  11.748  1.0652 -0.6061 -0.3801
 4964TIP3   OH236306   1.217   6.727   0.278 -0.2799 -0.1058 -0.2893
 4964TIP3    H136307   1.213   6.690   0.190  0.2427 -1.6493  0.3032
 4964TIP3    H236308   1.147   6.682   0.326  0.7309 -0.7808  0.6002
 4965TIP3   OH236309   4.378   3.837   2.819  0.2285 -0.0842  0.1962
 4965TIP3    H136310   4.315   3.863   2.751 -0.1599  0.0185  0.5873
 4965TIP3    H236311   4.385   3.913   2.875 -0.1412 -0.4652  0.7743
 4966TIP3   OH236312   1.787   6.117  16.472  0.2217 -0.4252 -0.4413
 4966TIP3    H136313   1.698   6.129  16.441  0.3867  1.7291 -0.2461
 4966TIP3    H236314   1.779   6.112  16.567  0.3414  0.5562 -0.3658
 4967TIP3   OH236315   1.098   4.276  13.867  0.3312 -0.1637 -0.1516
 4967TIP3    H136316   1.122   4.336  13.796  1.2876 -2.8333 -2.2342
 4967TIP3    H236317   1.094   4.332  13.945  1.1678  2.5726 -1.9188
 4968TIP3   OH236318   0.837   0.180   0.533 -0.3138 -0.3211 -0.4497
 4968TIP3    H136319   0.924   0.205   0.502 -0.2217  0.0735  0.1246
 4968TIP3    H236320   0.791   0.263   0.546 -0.6355 -0.5146 -0.3429
 4969TIP3   OH236321   0.402   3.829   5.487 -0.0555  0.4056 -0.2621
 4969TIP3    H136322   0.489   3.792   5.503  0.4782  1.3589 -0.8228
 4969TIP3    H236323   0.374   3.863   5.572 -0.3957 -0.9148  0.1750
 4970TIP3   OH236324   2.521   6.582   5.692 -0.0999  0.3559  0.5661
 4970TIP3    H136325   2.615   6.601   5.693 -0.1600  0.6853  0.2492
 4970TIP3    H236326   2.515   6.488   5.706  0.3269  0.1490 -0.5586
 4971TIP3   OH236327   3.819   5.342   0.751  0.0583  0.3344 -0.1597
 4971TIP3    H136328   3.878   5.283   0.705  1.1099  0.0978  1.4396
 4971TIP3    H236329   3.750   5.362   0.686  0.1720 -1.8623 -1.0380
 4972TIP3   OH236330   2.762   1.418  15.330 -0.0616  0.4394 -0.8188
 4972TIP3    H136331   2.690   1.467  15.290  0.0853  1.6884  0.3562
 4972TIP3    H236332   2.719   1.351  15.384 -0.4607  2.0471  0.9767
 4973TIP3   OH236333   1.349   2.876  15.349 -0.0423  0.8748  0.0312
 4973TIP3    H136334   1.380   2.927  15.274  0.0334 -1.9903 -2.0826
 4973TIP3    H236335   1.265   2.839  15.320  0.4479 -1.0975  0.9317
 4974TIP3   OH236336   5.442   5.987  12.045  0.7400  0.6384  0.3263
 4974TIP3    H136337   5.370   6.013  12.102  2.4804  0.0902  2.9668
 4974TIP3    H236338   5.492   6.068  12.032  0.8734  0.5671  0.3918
 4975TIP3   OH236339   4.284   2.358   5.773 -0.3176  0.6986  0.1953
 4975TIP3    H136340   4.365   2.408   5.766  0.2725 -0.3630 -0.8191
 4975TIP3    H236341   4.240   2.372   5.688 -1.3439  1.4801  0.8283
 4976TIP3   OH236342   2.869   6.384  16.996  0.3935 -0.7514  0.8534
 4976TIP3    H136343   2.778   6.387  17.026  0.2242 -0.8051  0.3636
 4976TIP3    H236344   2.921   6.374  17.076 -0.0534 -1.0515  1.1114
 4977TIP3   OH236345   3.384   2.147  15.085  0.3596 -0.2753 -0.3196
 4977TIP3    H136346   3.422   2.234  15.097  3.4419 -1.2250 -2.0526
 4977TIP3    H236347   3.414   2.097  15.162 -1.6688  0.1953  0.8355
 4978TIP3   OH236348   0.303   1.178  12.196  0.0373 -0.3288 -0.3178
 4978TIP3    H136349   0.218   1.140  12.176  0.5937 -0.6916 -2.1542
 4978TIP3    H236350   0.367   1.114  12.166  0.9737  0.9794 -1.2388
 4979TIP3   OH236351   5.327   5.921  14.943  0.0230  0.2309  0.3826
 4979TIP3    H136352   5.375   5.837  14.938 -0.7085 -0.1457 -1.0777
 4979TIP3    H236353   5.390   5.982  14.980  0.7403 -0.8598  1.0198
 4980TIP3   OH236354   6.805   6.120  16.175  0.0624  0.4091  0.1433
 4980TIP3    H136355   6.760   6.158  16.251  0.4622  1.9254 -0.3353
 4980TIP3    H236356   6.877   6.181  16.158  1.6092 -1.3033  0.1623
 4981TIP3   OH236357   1.826   6.006  11.760 -0.3198  0.1392  0.6900
 4981TIP3    H136358   1.781   6.059  11.694 -0.5655  1.0887  1.5876
 4981TIP3    H236359   1.909   6.051  11.775  0.6718 -1.2123 -0.4356
 4982TIP3   OH236360   5.163   1.463   3.071  0.1344 -0.2655  0.4683
 4982TIP3    H136361   5.098   1.463   3.142 -0.7716 -1.9298 -0.3068
 4982TIP3    H236362   5.147   1.382   3.023  1.0932  0.5395 -1.3317
 4983TIP3   OH236363   0.320   4.964  14.125  0.9016  0.2949 -0.1364
 4983TIP3    H136364   0.387   4.967  14.057  0.0515  1.2974 -0.9661
 4983TIP3    H236365   0.312   4.871  14.146  2.1774  0.1032 -0.3767
 4984TIP3   OH236366   5.844   3.919  15.719 -0.7262  0.3636  0.1495
 4984TIP3    H136367   5.843   3.864  15.798  2.4470 -0.2057 -0.0722
 4984TIP3    H236368   5.865   3.858  15.648  1.6890  1.5513 -0.2798
 4985TIP3   OH236369   6.346   0.165   2.223 -0.3459 -0.0731  0.0311
 4985TIP3    H136370   6.376   0.095   2.166 -1.4698 -0.3695 -0.2334
 4985TIP3    H236371   6.271   0.203   2.177 -0.5525  0.4475  0.7744
 4986TIP3   OH236372   2.758   3.063  13.262  0.7691  0.4282  0.0569
 4986TIP3    H136373   2.819   3.022  13.201  0.9103  0.4438  0.1867
 4986TIP3    H236374   2.812   3.085  13.338  0.6435  0.6284  0.0880
 4987TIP3   OH236375   6.605   2.281  15.965  0.2299 -0.1760  0.4121
 4987TIP3    H136376   6.655   2.314  16.040  2.9008 -0.4496 -1.1422
 4987TIP3    H236377   6.615   2.348  15.898 -0.7494 -0.6870 -0.2664
 4988TIP3   OH236378   1.353   4.700   1.389  0.0686  0.2881 -0.0648
 4988TIP3    H136379   1.406   4.712   1.310 -0.8218  1.9743 -0.4492
 4988TIP3    H236380   1.397   4.629   1.436  1.4691  0.2365 -1.3511
 4989TIP3   OH236381   5.729   4.840  10.702  0.1359 -0.0239 -0.5516
 4989TIP3    H136382   5.771   4.783  10.638 -0.1693 -2.9883  1.6824
 4989TIP3    H236383   5.636   4.839  10.678  0.3762  1.1084 -1.5992
 4990TIP3   OH236384   5.295   0.885   3.301  0.3157 -0.0634  0.0845
 4990TIP3    H136385   5.311   0.980   3.302 -1.3562  0.2687 -1.0322
 4990TIP3    H236386   5.326   0.856   3.215 -0.9818 -0.1508 -0.3773
 4991TIP3   OH236387   5.472   1.955  15.240 -0.0608 -0.5071 -0.3977
 4991TIP3    H136388   5.554   1.913  15.263  0.7280  0.3877 -1.4735
 4991TIP3    H236389   5.457   1.929  15.148  1.2080  2.6300 -1.6071
 4992TIP3   OH236390   6.524   3.130  13.561 -0.6378 -0.3570  0.4989
 4992TIP3    H136391   6.580   3.090  13.628  0.0253 -0.2189  0.0332
 4992TIP3    H236392   6.482   3.055  13.518 -0.7646 -0.4632  0.8030
 4993TIP3   OH236393   0.158   1.923   2.669  0.3743 -0.2632 -0.1365
 4993TIP3    H136394   0.131   1.899   2.580 -0.4130  0.1814 -0.0165
 4993TIP3    H236395   0.165   1.839   2.715  1.6250 -0.5766 -0.8319
 4994TIP3   OH236396   3.033   4.777   1.273 -0.4323  0.4124 -0.0752
 4994TIP3    H136397   3.090   4.768   1.196 -0.1674 -0.2739  0.1901
 4994TIP3    H236398   2.946   4.753   1.242 -0.3693  0.3726 -0.2228
 4995TIP3   OH236399   6.171   5.932  13.731  0.1554  0.2305 -0.8413
 4995TIP3    H136400   6.104   5.885  13.682 -0.1396  1.4971 -1.6983
 4995TIP3    H236401   6.129   5.951  13.816  1.2509 -3.4629  0.7293
 4996TIP3   OH236402   1.587   2.610  16.720  0.2553 -0.0131  0.5794
 4996TIP3    H136403   1.510   2.569  16.761 -0.6298  0.2224 -0.8051
 4996TIP3    H236404   1.616   2.547  16.655  0.5422  0.3946  0.3088
 4997TIP3   OH236405   5.130   1.398   0.611  0.3466  0.6017  0.6210
 4997TIP3    H136406   5.206   1.449   0.642  0.5315 -0.2139  1.5509
 4997TIP3    H236407   5.157   1.366   0.525  1.5016 -0.5259  1.3520
 4998TIP3   OH236408   1.831   0.941  14.388  0.2107 -0.6167 -0.3157
 4998TIP3    H136409   1.877   0.928  14.471  0.8904 -0.0581 -0.6026
 4998TIP3    H236410   1.751   0.987  14.412  0.6076 -0.0765 -0.0228
 4999TIP3   OH236411   4.182   2.076  10.989  0.0358  0.7421  0.2244
 4999TIP3    H136412   4.196   2.166  10.962  0.5576  0.7394  0.4895
 4999TIP3    H236413   4.088   2.062  10.976 -0.2273  1.6177  1.0668
 5000TIP3   OH236414   1.934   2.553   1.506  0.3485  0.1094 -0.4335
 5000TIP3    H136415   1.982   2.545   1.423  1.1929 -0.5259  0.1001
 5000TIP3    H236416   1.848   2.514   1.488 -0.0261  1.3130 -1.4163
 5001TIP3   OH236417   3.470   2.524   1.950 -0.2671 -0.1781  0.0087
 5001TIP3    H136418   3.375   2.534   1.953 -0.3484 -0.4195 -1.3093
 5001TIP3    H236419   3.483   2.431   1.931  0.2382 -0.1631  0.2798
 5002TIP3   OH236420   1.358   1.990   2.043 -0.0504  0.0919 -0.2672
 5002TIP3    H136421   1.317   2.069   2.078 -1.4465 -0.6197 -0.2175
 5002TIP3    H236422   1.307   1.918   2.080 -0.3507 -0.7476 -2.1877
 5003TIP3   OH236423   2.620   4.005   2.059  0.2298 -0.0581  0.6305
 5003TIP3    H136424   2.574   4.077   2.018  1.4309 -0.7400 -2.1813
 5003TIP3    H236425   2.713   4.024   2.043  0.6893 -1.0873  1.8850
 5004TIP3   OH236426   4.781   5.496  15.851 -0.0076 -0.0879 -0.3171
 5004TIP3    H136427   4.869   5.534  15.850  0.2073 -0.5339 -1.9701
 5004TIP3    H236428   4.724   5.567  15.879  0.7633  0.5006 -0.2162
 5005TIP3   OH236429   3.470   6.008   3.391  0.1242 -0.4268 -0.0215
 5005TIP3    H136430   3.420   6.079   3.431 -0.7493 -0.8407 -0.3354
 5005TIP3    H236431   3.461   6.022   3.296  0.1002 -0.8361 -0.0841
 5006TIP3   OH236432   5.306   0.913  13.571 -0.2703  0.4797 -0.2253
 5006TIP3    H136433   5.303   0.952  13.658 -0.2646 -1.5012  0.7086
 5006TIP3    H236434   5.397   0.923  13.543  0.1347 -0.3528  0.7366
 5007TIP3   OH236435   2.388   1.472  16.048  0.5802  0.2332 -0.2096
 5007TIP3    H136436   2.415   1.409  15.981  0.6853 -0.2193  0.2553
 5007TIP3    H236437   2.398   1.425  16.131 -0.5600  0.4328  0.0565
 5008TIP3   OH236438   2.380   1.864  15.544 -0.7013  0.5725 -0.1338
 5008TIP3    H136439   2.382   1.803  15.617 -1.9647 -1.7838 -1.9362
 5008TIP3    H236440   2.472   1.885  15.529 -0.3154 -0.0481  1.2063
 5009TIP3   OH236441   4.122   3.881  14.008  0.5943  0.1000  0.6493
 5009TIP3    H136442   4.089   3.799  13.970  0.7724  0.4436 -0.2839
 5009TIP3    H236443   4.196   3.905  13.952  1.0070  0.5175  1.3608
 5010TIP3   OH236444   4.064   5.025  16.084 -0.4343  0.0430 -0.1517
 5010TIP3    H136445   4.127   5.090  16.116 -0.6515  0.3744 -0.3853
 5010TIP3    H236446   4.096   4.942  16.118  0.3803  0.1478 -0.6294
 5011TIP3   OH236447   3.729   2.225  11.762  0.1587 -0.4131 -0.5057
 5011TIP3    H136448   3.673   2.291  11.721  0.1631 -0.9363 -1.3609
 5011TIP3    H236449   3.781   2.190  11.690  0.7085 -0.8087  0.0780
 5012TIP3   OH236450   1.372   4.776  12.119 -0.5801 -0.1447 -0.2612
 5012TIP3    H136451   1.388   4.836  12.192  1.8735  1.4075 -1.9224
 5012TIP3    H236452   1.444   4.713  12.123  0.6359  1.0098 -2.2502
 5013TIP3   OH236453   3.668   0.670   3.573 -0.5800 -0.6719  0.2353
 5013TIP3    H136454   3.755   0.632   3.587 -0.3859 -0.1576  0.4481
 5013TIP3    H236455   3.640   0.636   3.488  0.3410  0.1110 -0.3905
 5014TIP3   OH236456   2.605   0.341   0.769  0.0890  0.0438  0.0140
 5014TIP3    H136457   2.515   0.367   0.752 -0.3034 -1.1590  0.1349
 5014TIP3    H236458   2.633   0.297   0.689  1.6790  3.1158 -1.2572
 5015TIP3   OH236459   2.916   2.470  12.050  0.4999  0.2273  0.9340
 5015TIP3    H136460   2.962   2.421  11.981  1.2289  2.5226 -0.3179
 5015TIP3    H236461   2.982   2.529  12.085 -1.0319  2.5933  0.1049
 5016TIP3   OH236462   5.514   1.711   2.043  0.6624  0.5311  0.3515
 5016TIP3    H136463   5.512   1.768   1.966 -0.1615  0.1961  0.1171
 5016TIP3    H236464   5.603   1.677   2.044  0.2942 -0.5842 -1.3035
 5017TIP3   OH236465   6.304   4.167  13.337  0.3394  0.1117  0.3204
 5017TIP3    H136466   6.354   4.139  13.414  0.5849  0.8418  0.4340
 5017TIP3    H236467   6.332   4.257  13.322  0.2803 -0.0150 -0.6158
 5018TIP3   OH236468   2.914   6.192   4.058 -0.4390 -0.6906 -0.0510
 5018TIP3    H136469   2.984   6.238   4.105 -1.3799  1.2542 -0.4484
 5018TIP3    H236470   2.847   6.176   4.125 -0.2888 -1.1119 -0.0006
 5019TIP3   OH236471   4.414   4.792  15.762  0.3317  0.2447 -0.1476
 5019TIP3    H136472   4.483   4.855  15.741  1.6752 -1.0659  0.1930
 5019TIP3    H236473   4.424   4.775  15.855  0.9500 -1.5460 -0.4998
 5020TIP3   OH236474   1.384   4.645   4.935  0.2528  0.0407  0.8802
 5020TIP3    H136475   1.389   4.555   4.966 -1.7641 -0.5975 -0.4645
 5020TIP3    H236476   1.326   4.688   4.998  0.9931  0.3572  1.3627
 5021TIP3   OH236477   1.852   0.842  13.382  0.4851  0.0912 -0.9144
 5021TIP3    H136478   1.865   0.755  13.419  3.1799  0.4461 -0.8699
 5021TIP3    H236479   1.934   0.862  13.337  0.9038  3.5077  0.9842
 5022TIP3   OH236480   2.017   4.752   4.705 -0.3997  0.3054 -0.3249
 5022TIP3    H136481   2.008   4.671   4.757 -0.2767  0.4606 -0.0604
 5022TIP3    H236482   2.026   4.821   4.770  0.2485  0.4460 -0.5607
 5023TIP3   OH236483   3.728   0.112  13.082  0.0439 -0.1500 -0.4082
 5023TIP3    H136484   3.800   0.053  13.061  0.4855 -0.0961  0.8635
 5023TIP3    H236485   3.649   0.064  13.058  0.4233 -1.0312  0.0536
 5024TIP3   OH236486   4.787   2.312   6.509 -0.3540  0.4233  0.2067
 5024TIP3    H136487   4.832   2.282   6.430  2.2601  0.7831  1.4363
 5024TIP3    H236488   4.816   2.252   6.577  1.7464  3.1298  1.9078
 5025TIP3   OH236489   5.071   1.056   4.801 -0.5667 -0.1579  0.4305
 5025TIP3    H136490   4.993   1.004   4.820 -0.5071 -0.0578  0.9715
 5025TIP3    H236491   5.078   1.116   4.875 -1.4009  1.5426 -0.8106
 5026TIP3   OH236492   2.567   1.428   4.623 -0.3584  0.0044 -0.2030
 5026TIP3    H136493   2.493   1.489   4.623  0.0976  0.5681 -0.4012
 5026TIP3    H236494   2.546   1.365   4.554  0.5217  1.6629 -2.0978
 5027TIP3   OH236495   3.286   2.650  15.271 -0.4942 -0.1831  0.5344
 5027TIP3    H136496   3.227   2.613  15.336 -0.9899  0.1451  0.2718
 5027TIP3    H236497   3.279   2.744  15.282  0.3965 -0.1459  0.8677
 5028TIP3   OH236498   0.140   5.707  14.903  0.6718  0.0877  0.3130
 5028TIP3    H136499   0.075   5.642  14.876  2.1656 -1.4665  0.2988
 5028TIP3    H236500   0.094   5.791  14.898 -0.8983 -0.8018 -1.0479
 5029TIP3   OH236501   4.190   0.837  15.355 -0.4527  0.1020 -0.3772
 5029TIP3    H136502   4.150   0.843  15.441 -0.6544  2.0036 -0.5688
 5029TIP3    H236503   4.135   0.891  15.298  1.0137  0.8306 -1.1695
 5030TIP3   OH236504   0.117   3.599   6.092  0.4157 -0.7064  0.3557
 5030TIP3    H136505   0.163   3.554   6.163 -0.5353  0.1159  1.5555
 5030TIP3    H236506   0.038   3.546   6.078  0.2803 -0.5119  0.3811
 5031TIP3   OH236507   4.770   4.615  13.342 -0.1867  0.1285  0.0303
 5031TIP3    H136508   4.682   4.638  13.371 -0.7155 -1.3951 -0.3008
 5031TIP3    H236509   4.759   4.536  13.290  1.4694 -0.5545  0.6381
 5032TIP3   OH236510   5.635   2.505  12.253  0.0198  0.2811  0.1631
 5032TIP3    H136511   5.626   2.473  12.163  1.3618 -2.7827  0.9734
 5032TIP3    H236512   5.554   2.478  12.296 -0.2963  1.0694  0.0775
 5033TIP3   OH236513   5.691   1.408  12.994 -0.0927  0.3260 -0.3716
 5033TIP3    H136514   5.631   1.478  12.969 -1.4103 -0.6900 -0.1808
 5033TIP3    H236515   5.692   1.410  13.089  0.5649  0.6426 -0.3812
 5034TIP3   OH236516   4.375   2.900  13.505  0.2135 -0.0514  0.0147
 5034TIP3    H136517   4.364   2.824  13.449  2.7599 -1.0126  0.6901
 5034TIP3    H236518   4.381   2.865  13.594  1.1311  0.9434  0.3739
 5035TIP3   OH236519   0.403   2.082   5.267 -0.2574  0.3819 -0.0424
 5035TIP3    H136520   0.419   1.988   5.270 -0.7729  0.2259 -1.5178
 5035TIP3    H236521   0.479   2.118   5.221  0.3470  0.8084  1.2512
 5036TIP3   OH236522   0.564   2.514  11.299 -0.0727  0.9399  0.2065
 5036TIP3    H136523   0.510   2.549  11.228  2.1192  2.7746 -0.6837
 5036TIP3    H236524   0.514   2.440  11.333 -4.0663  3.6093  0.7664
 5037TIP3   OH236525   5.253   0.414  15.510 -0.6773 -0.0492 -0.2516
 5037TIP3    H136526   5.298   0.496  15.531 -0.2927 -0.5708  1.0754
 5037TIP3    H236527   5.162   0.429  15.533 -0.2786 -0.5830  1.8853
 5038TIP3   OH236528   2.526   0.991  13.170 -0.3106 -0.0172  0.0091
 5038TIP3    H136529   2.448   0.965  13.121 -1.0439 -0.2612  1.2691
 5038TIP3    H236530   2.494   1.052  13.236  0.5797 -0.0712  0.5032
 5039TIP3   OH236531   2.006   0.615   2.178 -0.2713  0.1313  0.3718
 5039TIP3    H136532   1.967   0.615   2.266 -1.9218 -1.2787 -0.3256
 5039TIP3    H236533   1.946   0.564   2.124  1.1888  0.1714 -1.3944
 5040TIP3   OH236534   2.072   5.485   3.731 -0.2784  0.1711  0.7873
 5040TIP3    H136535   2.087   5.427   3.656  1.0493  3.1793 -1.4845
 5040TIP3    H236536   2.157   5.495   3.772 -0.6431 -0.0047  1.6163
 5041TIP3   OH236537   4.658   5.397   4.814  0.3999 -0.0457 -0.1040
 5041TIP3    H136538   4.613   5.370   4.895 -1.7676  0.4925 -1.0383
 5041TIP3    H236539   4.666   5.317   4.763  0.4466 -0.1373  0.0465
 5042TIP3   OH236540   4.456   3.376   2.386 -0.0375 -0.2923 -0.2557
 5042TIP3    H136541   4.452   3.316   2.312  0.9564  0.4563 -0.9259
 5042TIP3    H236542   4.380   3.352   2.440 -0.8622 -0.7355 -1.5800
 5043TIP3   OH236543   1.074   4.335   4.058  0.3792 -0.2733 -0.1935
 5043TIP3    H136544   1.057   4.243   4.041  0.8920 -0.1184 -1.6957
 5043TIP3    H236545   0.996   4.366   4.103  0.3858 -1.5256  0.7412
 5044TIP3   OH236546   2.736   1.175  13.053  0.5672  0.6524 -0.3467
 5044TIP3    H136547   2.766   1.084  13.053 -0.3484  0.3398  0.0207
 5044TIP3    H236548   2.673   1.180  13.124  0.6669  1.6045 -0.3068
 5045TIP3   OH236549   1.009   3.163   5.112 -0.5089  0.1796  0.2221
 5045TIP3    H136550   0.971   3.165   5.200 -1.2207  0.0246 -0.0714
 5045TIP3    H236551   0.937   3.133   5.056  0.1753 -0.5570 -0.2935
 5046TIP3   OH236552   4.348   5.993   4.915  0.4945 -0.1309 -0.4817
 5046TIP3    H136553   4.348   6.083   4.947 -0.5542  0.4676 -2.0896
 5046TIP3    H236554   4.440   5.966   4.919  0.8917  1.1772 -0.4516
 5047TIP3   OH236555   2.535   3.270   4.100  0.5190 -0.6401 -0.2932
 5047TIP3    H136556   2.515   3.360   4.128 -0.1453 -0.3762 -1.5278
 5047TIP3    H236557   2.450   3.226   4.099  0.8906 -1.3917  0.6342
 5048TIP3   OH236558   4.776   6.260   5.770  0.1135  0.2697 -0.2670
 5048TIP3    H136559   4.788   6.355   5.770 -0.7102  0.3851  0.0868
 5048TIP3    H236560   4.710   6.244   5.838 -0.9086 -0.3908 -1.3661
 5049TIP3   OH236561   0.973   4.557  14.201  0.4157  1.0794 -0.4890
 5049TIP3    H136562   0.966   4.474  14.248  0.9379  0.8230 -0.8568
 5049TIP3    H236563   0.972   4.624  14.269  2.6955  0.6483  0.0268
 5050TIP3   OH236564   2.534   3.489   2.843  0.0831 -0.2089 -0.3221
 5050TIP3    H136565   2.452   3.515   2.802  0.9939  2.5971 -0.5916
 5050TIP3    H236566   2.597   3.485   2.770  0.7676  0.4232  0.2220
 5051TIP3   OH236567   0.690   1.501   5.005  0.4732  0.0243  0.4328
 5051TIP3    H136568   0.763   1.439   5.012 -0.1716 -0.6180  2.3010
 5051TIP3    H236569   0.621   1.451   4.961  0.1528 -0.4282  1.4150
 5052TIP3   OH236570   3.266   5.513  16.803  0.1753 -0.3787 -0.1367
 5052TIP3    H136571   3.303   5.601  16.803 -0.3548 -0.1426 -1.3014
 5052TIP3    H236572   3.307   5.469  16.728 -2.2563  0.0913 -1.8610
 5053TIP3   OH236573   3.402   2.047   1.396  0.0163  0.0981 -0.9897
 5053TIP3    H136574   3.445   1.980   1.449 -3.5487  0.0806  2.3415
 5053TIP3    H236575   3.351   1.997   1.331 -0.9192 -0.3696  0.0712
 5054TIP3   OH236576   2.421   1.040  13.550  0.0207  0.3365 -0.4109
 5054TIP3    H136577   2.484   0.975  13.517 -0.3420 -0.5281  0.5166
 5054TIP3    H236578   2.455   1.064  13.636 -0.0762  1.0735 -0.5755
 5055TIP3   OH236579   1.812   4.136   5.016  0.0841  0.2220 -0.8890
 5055TIP3    H136580   1.901   4.158   5.041 -0.5212  2.9980 -0.8251
 5055TIP3    H236581   1.768   4.221   5.008 -2.4095 -1.0316 -1.4409
 5056TIP3   OH236582   0.023   3.260   4.051  0.3584 -0.3312 -0.0823
 5056TIP3    H136583  -0.033   3.226   4.120  1.6046  0.9869  1.6381
 5056TIP3    H236584  -0.030   3.327   4.007 -0.7249 -1.7348 -1.0054
 5057TIP3   OH236585   0.602   1.896  12.016  0.5460  0.3476 -0.5961
 5057TIP3    H136586   0.621   1.968  12.076  2.4772  0.8943 -1.7889
 5057TIP3    H236587   0.552   1.833  12.069  0.3890  1.7246  0.9702
 5058TIP3   OH236588   5.432   5.890  12.335 -0.1228  0.6275 -0.1134
 5058TIP3    H136589   5.523   5.911  12.312 -0.0377 -0.0545 -0.4301
 5058TIP3    H236590   5.380   5.954  12.286  0.1231  0.0792 -1.1325
 5059TIP3   OH236591   4.688   5.105  10.640 -0.3446  0.4715  0.1243
 5059TIP3    H136592   4.770   5.139  10.677  0.1905 -0.5049 -0.1259
 5059TIP3    H236593   4.622   5.125  10.706  0.0675  1.3794  0.2798
 5060TIP3   OH236594   0.391   1.884  14.589  0.2194 -0.2220  0.7581
 5060TIP3    H136595   0.451   1.949  14.554 -0.6031  0.1306 -0.0307
 5060TIP3    H236596   0.448   1.821  14.635  1.5736 -1.4896 -2.3522
 5061TIP3   OH236597   5.632   0.269   3.250 -0.3316 -0.5887  0.4318
 5061TIP3    H136598   5.648   0.264   3.156  1.1149  0.3848  0.6023
 5061TIP3    H236599   5.587   0.353   3.263  0.4858 -0.1865  0.7237
 5062TIP3   OH236600   5.216   5.730   0.156  0.2236 -0.0460 -0.6222
 5062TIP3    H136601   5.229   5.824   0.148 -2.6938  0.4701 -0.2605
 5062TIP3    H236602   5.139   5.711   0.102 -0.8534 -1.7520  1.3662
 5063TIP3   OH236603   2.069   4.006  12.464 -0.5545 -0.2925 -0.0961
 5063TIP3    H136604   1.998   4.061  12.430  0.3238  0.2200 -1.1608
 5063TIP3    H236605   2.062   3.924  12.415  0.5801  0.3688 -1.4486
 5064TIP3   OH236606   0.628   4.584  15.146 -0.2047  0.3074 -0.5333
 5064TIP3    H136607   0.549   4.582  15.092 -0.7993  3.1756  0.0573
 5064TIP3    H236608   0.699   4.605  15.084 -0.2686 -0.0784 -0.7383
 5065TIP3   OH236609   3.215   0.368   2.932  0.4077 -0.4175 -0.0824
 5065TIP3    H136610   3.191   0.320   3.012 -0.0806  0.7119  0.4699
 5065TIP3    H236611   3.249   0.451   2.963  1.2043 -0.3765 -1.0298
 5066TIP3   OH236612   5.803   3.554  15.899  0.6152 -0.0928 -0.1373
 5066TIP3    H136613   5.770   3.541  15.810 -0.8302 -0.4338  0.4169
 5066TIP3    H236614   5.838   3.643  15.899 -1.7812  0.9052 -0.3499
 5067TIP3   OH236615   2.892   5.896  15.002 -0.2702  0.4083  0.2715
 5067TIP3    H136616   2.816   5.895  15.061  0.2781 -3.2465  1.1647
 5067TIP3    H236617   2.871   5.963  14.937 -4.4842 -0.7031  0.2016
 5068TIP3   OH236618   6.207   3.502   4.904  0.5022  0.4251 -0.4222
 5068TIP3    H136619   6.298   3.481   4.927  1.0797  1.0230 -2.0272
 5068TIP3    H236620   6.174   3.421   4.864  0.5904  0.4698 -0.5847
 5069TIP3   OH236621   4.666   2.251  13.706  0.1733  0.0537  0.0287
 5069TIP3    H136622   4.621   2.319  13.656  1.0006  0.3629 -0.3239
 5069TIP3    H236623   4.743   2.230  13.653  0.7718 -0.0133  0.8992
 5070TIP3   OH236624   4.846   1.222   6.536 -0.5282 -0.6228  0.6626
 5070TIP3    H136625   4.913   1.290   6.544 -0.2576 -0.4772 -2.0502
 5070TIP3    H236626   4.763   1.269   6.546 -0.3375 -0.7181  3.4607
 5071TIP3   OH236627   0.491   1.222   1.176  0.1482 -0.0513 -0.3819
 5071TIP3    H136628   0.521   1.182   1.095  0.1472 -1.2816  0.2009
 5071TIP3    H236629   0.501   1.154   1.242 -0.3167  0.7605  0.5620
 5072TIP3   OH236630   5.692   0.368  17.054 -0.1913  0.9087 -0.6484
 5072TIP3    H136631   5.726   0.278  17.054  0.9412  1.3127  0.1060
 5072TIP3    H236632   5.685   0.391  16.962 -1.1865 -0.1915 -0.8708
 5073TIP3   OH236633   3.663   4.535  15.645 -0.4724 -0.0262 -0.0100
 5073TIP3    H136634   3.671   4.629  15.626 -1.4271  0.0905  0.1023
 5073TIP3    H236635   3.569   4.518  15.639 -0.2336 -1.1357 -0.7383
 5074TIP3   OH236636   3.652   6.013   1.430 -0.0499 -0.4964  0.0238
 5074TIP3    H136637   3.571   5.975   1.398 -0.3025  0.1452 -0.1029
 5074TIP3    H236638   3.658   5.983   1.521  0.1349 -1.4440 -0.2869
 5075TIP3   OH236639   2.154   5.129  16.360 -0.1463 -0.5896 -0.0418
 5075TIP3    H136640   2.232   5.074  16.365  1.9808  1.8441 -2.8699
 5075TIP3    H236641   2.155   5.179  16.442 -0.1999 -2.2646  1.0303
 5076TIP3   OH236642   6.462   6.166  12.101  0.6115  0.4289  0.1657
 5076TIP3    H136643   6.480   6.258  12.080 -0.1065  0.6811  0.6320
 5076TIP3    H236644   6.475   6.120  12.018 -0.2896  1.1347 -0.3858
 5077TIP3   OH236645   4.202   5.005  16.877 -0.4175  0.2514  0.2513
 5077TIP3    H136646   4.235   4.962  16.956 -1.0945 -0.2325  0.2736
 5077TIP3    H236647   4.253   4.967  16.806 -1.2000 -0.7969  0.2381
 5078TIP3   OH236648   3.166   0.540   4.577  0.7822  0.0962 -0.8738
 5078TIP3    H136649   3.112   0.545   4.498 -0.5642 -0.5177 -0.0418
 5078TIP3    H236650   3.126   0.469   4.628 -0.5464  2.5783  1.8735
 5079TIP3   OH236651   0.602   1.140  11.408  0.0020 -0.1053 -0.2552
 5079TIP3    H136652   0.654   1.068  11.374  2.1767 -0.3733  3.1474
 5079TIP3    H236653   0.536   1.098  11.463 -0.1888  0.4370 -0.0613
 5080TIP3   OH236654   6.214   2.587  10.948 -0.0733 -0.6596  0.5463
 5080TIP3    H136655   6.198   2.654  10.882 -0.6995 -1.7832 -0.4912
 5080TIP3    H236656   6.156   2.515  10.924  1.4520 -2.0676  0.8898
 5081TIP3   OH236657   4.773   1.542   1.040  0.2079  0.5456 -0.0808
 5081TIP3    H136658   4.809   1.462   1.078  0.8560  0.4051 -0.9701
 5081TIP3    H236659   4.760   1.600   1.115 -2.4862 -1.1679  0.9292
 5082TIP3   OH236660   2.460   6.600  12.213  0.3111  0.0099 -0.7070
 5082TIP3    H136661   2.373   6.563  12.202  0.2826  0.0165 -0.5121
 5082TIP3    H236662   2.449   6.693  12.191  0.2683  0.0109 -0.6813
 5083TIP3   OH236663   3.630   0.755   3.990  0.1805  0.2327  0.9703
 5083TIP3    H136664   3.562   0.810   3.952 -1.7516 -1.2875  2.0241
 5083TIP3    H236665   3.657   0.801   4.069 -0.5280  0.2936  1.1895
 5084TIP3   OH236666   6.124   5.372   1.400  0.0465 -0.1301 -0.0079
 5084TIP3    H136667   6.038   5.398   1.368  1.1366  3.4076 -0.5524
 5084TIP3    H236668   6.109   5.345   1.490 -1.6306  0.6553 -0.0161
 5085TIP3   OH236669   5.674   4.582   4.832 -0.8468 -0.5053 -0.2225
 5085TIP3    H136670   5.642   4.671   4.845 -0.1873 -0.2306 -0.4145
 5085TIP3    H236671   5.744   4.572   4.896  0.3236 -0.2248 -1.4058
 5086TIP3   OH236672   2.169   4.058   3.815 -0.0305 -0.3128 -0.1486
 5086TIP3    H136673   2.100   4.051   3.880 -0.6919 -0.1407 -0.8237
 5086TIP3    H236674   2.126   4.096   3.738  0.8929  0.1612 -0.4469
 5087TIP3   OH236675   0.563   3.808  14.844 -0.1719  0.0696 -0.2159
 5087TIP3    H136676   0.603   3.767  14.768 -1.2751  0.1804 -0.8805
 5087TIP3    H236677   0.534   3.894  14.812 -0.9723 -0.0280  0.2222
 5088TIP3   OH236678   2.459   4.673   4.883 -0.3388 -0.5790  0.3389
 5088TIP3    H136679   2.383   4.659   4.939 -0.0286 -2.3231  0.3939
 5088TIP3    H236680   2.452   4.604   4.817  1.9763 -1.8360  1.2776
 5089TIP3   OH236681   3.999   6.201  10.539 -0.8368 -0.2908 -0.5236
 5089TIP3    H136682   3.955   6.281  10.569  0.4944  0.6643 -0.9986
 5089TIP3    H236683   4.016   6.152  10.619  1.1349  1.4178  0.1976
 5090TIP3   OH236684   3.762   5.470  16.943 -0.3325 -0.7456 -0.1625
 5090TIP3    H136685   3.702   5.489  17.015 -2.8092 -2.0183 -1.7486
 5090TIP3    H236686   3.777   5.376  16.947 -0.8592 -0.9123 -1.5251
 5091TIP3   OH236687   1.457   4.743   3.558  0.5242 -1.3957  0.0895
 5091TIP3    H136688   1.548   4.714   3.546  2.0205  2.4281  0.6463
 5091TIP3    H236689   1.437   4.721   3.649  2.0632  0.1761  0.8799
 5092TIP3   OH236690   0.217   2.261  12.586 -0.1977  0.4290  0.1115
 5092TIP3    H136691   0.274   2.307  12.648  0.4026 -0.8604  0.5570
 5092TIP3    H236692   0.264   2.179  12.567 -0.6338  0.5371 -1.6151
 5093TIP3   OH236693   0.980   1.083   4.880 -0.9647  0.3697  0.7756
 5093TIP3    H136694   0.921   1.144   4.835 -0.2927  1.9145  1.9024
 5093TIP3    H236695   1.054   1.072   4.821 -1.8257 -0.6724 -0.1446
 5094TIP3   OH236696   0.160   2.684  12.421  0.2101 -0.4741  0.1230
 5094TIP3    H136697   0.071   2.691  12.456  0.1264 -1.0980  0.0481
 5094TIP3    H236698   0.162   2.744  12.347  0.3258  0.7158  1.0648
 5095TIP3   OH236699   1.949   5.288   3.296  0.6543  0.5320  0.4438
 5095TIP3    H136700   1.870   5.279   3.349 -2.4857 -0.0392 -3.8340
 5095TIP3    H236701   1.937   5.370   3.247  2.4013  0.1284 -0.7786
 5096TIP3   OH236702   0.365   1.452  17.110  0.0929 -0.4072  0.3131
 5096TIP3    H136703   0.325   1.368  17.091  1.2780 -0.5534 -1.8256
 5096TIP3    H236704   0.292   1.514  17.112 -0.5878 -1.1914  0.0499
 5097TIP3   OH236705   5.349   0.467  13.264  0.4558  0.4010  0.1236
 5097TIP3    H136706   5.340   0.372  13.279 -0.3877  0.3801 -0.4157
 5097TIP3    H236707   5.384   0.501  13.347  0.5601 -0.3529  0.4019
 5098TIP3   OH236708   2.135   4.558   0.287  0.2313  0.1460 -0.4292
 5098TIP3    H136709   2.091   4.571   0.204 -0.1151 -1.7429 -0.5878
 5098TIP3    H236710   2.064   4.548   0.351  0.4924  1.6364  0.1273
 5099TIP3   OH236711   0.467   4.271  11.782 -0.0387  0.2832  0.0063
 5099TIP3    H136712   0.553   4.305  11.758  1.3793 -1.7411  1.7855
 5099TIP3    H236713   0.486   4.186  11.823 -2.6421  0.8421  2.6866
 5100TIP3   OH236714   5.683   0.918  13.447 -0.0924 -0.7916 -0.0629
 5100TIP3    H136715   5.649   0.880  13.527 -0.0990 -2.1667 -0.7014
 5100TIP3    H236716   5.751   0.857  13.417  0.5253  0.1454 -0.6436
 5101TIP3   OH236717   6.801   2.253   5.830 -0.0828  0.1732 -0.2055
 5101TIP3    H136718   6.829   2.290   5.914  0.2206  2.6610 -1.3171
 5101TIP3    H236719   6.707   2.237   5.842 -0.2060  1.2219  0.3890
 5102TIP3   OH236720   3.599   4.387   3.764 -0.1339 -0.6797 -0.1019
 5102TIP3    H136721   3.677   4.430   3.796  0.2010 -0.7082 -0.8455
 5102TIP3    H236722   3.613   4.380   3.669 -0.2821 -2.1879 -0.0362
 5103TIP3   OH236723   3.433   5.180   1.753 -0.0797  0.1100 -0.3020
 5103TIP3    H136724   3.502   5.115   1.769  0.5093  0.1362 -2.4295
 5103TIP3    H236725   3.382   5.144   1.681 -0.4465  1.4700 -0.7548
 5104TIP3   OH236726   5.831   0.642  16.466  0.5018 -0.4673 -0.1518
 5104TIP3    H136727   5.835   0.623  16.372  1.3069  0.0904 -0.2466
 5104TIP3    H236728   5.738   0.647  16.486  0.2755  2.2304 -1.5311
 5105TIP3   OH236729   3.064   2.033   5.825  0.5250  0.2073  0.0592
 5105TIP3    H136730   3.008   1.970   5.780  2.0117 -1.2885  0.2103
 5105TIP3    H236731   3.066   2.002   5.916 -0.0929  1.5036  0.5512
 5106TIP3   OH236732   2.367   4.405   0.400 -0.0091 -0.4442 -0.6670
 5106TIP3    H136733   2.382   4.314   0.375  0.0195 -0.8800  0.8324
 5106TIP3    H236734   2.293   4.433   0.347 -2.5219 -2.5391  1.4446
 5107TIP3   OH236735   2.245   5.076  15.684  0.2249 -0.8577  0.1347
 5107TIP3    H136736   2.186   5.136  15.729  0.6942 -0.4782  0.2535
 5107TIP3    H236737   2.215   5.077  15.593 -0.4257 -1.2598  0.3388
 5108TIP3   OH236738   2.071   1.281   5.448  0.4048  0.1575  0.4165
 5108TIP3    H136739   2.137   1.222   5.412  0.2898  1.0485 -1.3748
 5108TIP3    H236740   2.100   1.368   5.422 -0.1353  0.7953  1.8514
 5109TIP3   OH236741   6.349   5.882  15.150  0.4696  0.3234  0.6256
 5109TIP3    H136742   6.324   5.941  15.079  1.4872 -0.1129 -0.1192
 5109TIP3    H236743   6.267   5.861  15.194 -0.2797  0.0055 -0.8893
 5110TIP3   OH236744   3.669   0.838   0.339  0.0720 -0.0351 -0.7263
 5110TIP3    H136745   3.714   0.834   0.255 -1.3609 -1.3604 -1.5045
 5110TIP3    H236746   3.586   0.791   0.323 -0.2172 -0.3494  1.4290
 5111TIP3   OH236747   2.504   2.493   5.461  0.2823 -0.3356 -0.0005
 5111TIP3    H136748   2.574   2.440   5.423 -0.1938 -0.8852 -0.1263
 5111TIP3    H236749   2.472   2.441   5.535  0.4205  0.1931  0.4360
 5112TIP3   OH236750   6.586   3.755   3.291  0.4778  0.4130 -0.1244
 5112TIP3    H136751   6.618   3.695   3.225  0.6622 -0.9269  1.1329
 5112TIP3    H236752   6.660   3.813   3.309  0.1572  1.3579 -1.6580
 5113TIP3   OH236753   0.250   2.683  15.470 -0.4371  0.2403  0.3153
 5113TIP3    H136754   0.316   2.619  15.444  0.2479  1.0462  0.0375
 5113TIP3    H236755   0.277   2.712  15.557 -1.4363 -0.7427  0.9721
 5114TIP3   OH236756   3.551   5.473  14.224 -0.5306  0.3705  0.4248
 5114TIP3    H136757   3.480   5.516  14.271 -1.0782 -0.1636  0.0938
 5114TIP3    H236758   3.561   5.388  14.266  1.3504  1.2226  1.8612
 5115TIP3   OH236759   2.305   6.283  15.184  0.2662 -0.3314 -0.5489
 5115TIP3    H136760   2.219   6.263  15.220  0.6563 -1.5026 -0.2497
 5115TIP3    H236761   2.287   6.307  15.093 -0.5024  0.7500 -0.1399
 5116TIP3   OH236762   2.529   3.894   0.232  0.3976 -0.2700  0.3694
 5116TIP3    H136763   2.565   3.979   0.207 -1.9300  0.6027 -0.2704
 5116TIP3    H236764   2.475   3.912   0.309  0.0113 -1.1961  0.3317
 5117TIP3   OH236765   2.729   4.549   0.475  0.4359  0.5552  0.4027
 5117TIP3    H136766   2.642   4.542   0.515  1.6284 -0.2767  3.0130
 5117TIP3    H236767   2.759   4.636   0.499  1.1232  0.0845  1.2987
 5118TIP3   OH236768   0.049   5.051  10.587  0.3538 -0.3171 -0.3299
 5118TIP3    H136769   0.065   5.012  10.501  2.0794  2.4169 -1.3792
 5118TIP3    H236770   0.080   5.141  10.579 -0.2537  0.3186  2.9212
 5119TIP3   OH236771   4.529   2.832   4.992  0.3587 -0.0606 -0.2569
 5119TIP3    H136772   4.450   2.854   5.041 -0.5165 -1.4138 -1.0176
 5119TIP3    H236773   4.600   2.843   5.055 -0.5361  0.1563  0.7368
 5120TIP3   OH236774   3.146   2.500  11.606 -0.3794  0.0659  0.0618
 5120TIP3    H136775   3.068   2.554  11.621 -0.6706 -0.5924  0.9946
 5120TIP3    H236776   3.219   2.561  11.615 -0.7808  0.7800 -1.2454
 5121TIP3   OH236777   4.122   0.170   1.730  0.4532 -0.2147 -0.1347
 5121TIP3    H136778   4.178   0.138   1.660 -0.0569 -1.5910  0.0552
 5121TIP3    H236779   4.106   0.094   1.785  1.5186  1.0067  1.9807
 5122TIP3   OH236780   4.508   5.514   3.167  0.8083 -0.0853 -0.3296
 5122TIP3    H136781   4.453   5.445   3.131  3.1716 -1.6504 -1.1693
 5122TIP3    H236782   4.448   5.569   3.218 -1.4780 -1.6340 -1.2134
 5123TIP3   OH236783   2.821   4.168  16.560  0.2564 -0.2150 -0.2528
 5123TIP3    H136784   2.761   4.117  16.506  1.6290 -1.0133 -1.1016
 5123TIP3    H236785   2.884   4.103  16.593 -0.6785  0.2015  2.5585
 5124TIP3   OH236786   5.094   3.914   4.040 -0.5797 -0.0703  0.4886
 5124TIP3    H136787   5.023   3.891   4.100  0.5508 -1.7457  1.2762
 5124TIP3    H236788   5.161   3.953   4.096 -0.2242 -0.0267  0.0381
 5125TIP3   OH236789   1.500   2.951  12.100  0.0172  0.3776 -0.1249
 5125TIP3    H136790   1.557   2.906  12.163 -0.7415  1.7038  1.6124
 5125TIP3    H236791   1.432   2.887  12.079  1.3864 -0.7901 -1.2567
 5126TIP3   OH236792   6.681   0.970  12.184  0.2320 -0.5368  0.4529
 5126TIP3    H136793   6.622   1.013  12.122  1.0613 -1.4782 -1.0410
 5126TIP3    H236794   6.658   1.008  12.269  0.1480  1.9750 -0.6155
 5127TIP3   OH236795   1.075   2.962   4.279  0.5168 -0.3403 -0.2340
 5127TIP3    H136796   1.018   2.998   4.211 -1.6537  0.0557  1.6565
 5127TIP3    H236797   1.119   2.888   4.238 -1.1352 -0.4545 -1.9065
 5128TIP3   OH236798   0.736   5.174  10.967  0.0400  0.2823  0.2494
 5128TIP3    H136799   0.747   5.266  10.991  1.3852 -0.3795  2.3497
 5128TIP3    H236800   0.711   5.177  10.874 -1.4032  2.8054  0.6118
 5129TIP3   OH236801   5.059   5.878  12.694  0.0517 -0.1796 -0.1189
 5129TIP3    H136802   5.150   5.870  12.664  0.6816  3.2828  0.4266
 5129TIP3    H236803   5.007   5.857  12.616  1.2807 -1.9649 -0.5222
 5130TIP3   OH236804   1.914   5.922  10.400  0.1327  0.0535 -0.2501
 5130TIP3    H136805   1.858   5.866  10.454 -0.7437  3.3762  2.7677
 5130TIP3    H236806   1.856   5.952  10.330 -0.4804 -0.1120  0.1718
 5131TIP3   OH236807   3.014   3.200  14.687  0.0466 -0.4194 -0.1509
 5131TIP3    H136808   3.002   3.231  14.777  0.6058  3.1088 -1.1465
 5131TIP3    H236809   2.926   3.201  14.649  0.1384  1.0596 -0.4124
 5132TIP3   OH236810   3.743   2.682  15.449  0.1029  0.5000 -0.7826
 5132TIP3    H136811   3.655   2.663  15.480  0.6116  1.3159  1.3754
 5132TIP3    H236812   3.787   2.597  15.447  0.6453  0.5187  3.0159
 5133TIP3   OH236813   5.205   2.537   5.518 -0.7650  0.2631  0.1936
 5133TIP3    H136814   5.184   2.539   5.611 -1.3479 -0.3315  0.0840
 5133TIP3    H236815   5.208   2.444   5.496 -0.9849  0.4039 -0.4548
 5134TIP3   OH236816   3.902   6.245   1.751  0.2721  0.0357 -0.1441
 5134TIP3    H136817   3.978   6.203   1.791 -0.6825 -1.7385 -0.1023
 5134TIP3    H236818   3.888   6.325   1.802  0.3345 -1.1217  1.7509
 5135TIP3   OH236819   4.659   3.121  16.655  0.2286  0.7065 -0.4344
 5135TIP3    H136820   4.601   3.128  16.579  1.4428 -2.0686 -1.7399
 5135TIP3    H236821   4.607   3.077  16.721 -0.2407  1.4665 -0.2778
 5136TIP3   OH236822   5.753   3.356  17.102  0.6303  0.0544 -0.4140
 5136TIP3    H136823   5.777   3.393  17.187 -0.5448  1.4092 -0.6290
 5136TIP3    H236824   5.705   3.276  17.124  1.3080 -0.2002  0.1577
 5137TIP3   OH236825   4.705   0.985  13.255 -0.0779  0.0729  0.6584
 5137TIP3    H136826   4.680   1.045  13.326 -0.8753  1.0913 -0.4304
 5137TIP3    H236827   4.782   0.940  13.288 -1.2245 -0.5065  2.7149
 5138TIP3   OH236828   3.392   5.775  13.001  0.0744 -0.0423 -0.3880
 5138TIP3    H136829   3.384   5.803  13.092  0.8135  0.0489 -0.3503
 5138TIP3    H236830   3.366   5.852  12.950  0.9789  0.3531 -0.2684
 5139TIP3   OH236831   2.423   0.314  11.618 -0.2832  0.4040  0.0313
 5139TIP3    H136832   2.435   0.327  11.712  1.9934  3.4213 -0.5049
 5139TIP3    H236833   2.361   0.383  11.593 -0.6315 -0.1801 -0.7295
 5140TIP3   OH236834   6.135   2.014   2.573 -0.1456 -0.0361 -0.4015
 5140TIP3    H136835   6.077   2.021   2.497  1.5510 -1.8452 -1.9759
 5140TIP3    H236836   6.210   2.070   2.551 -0.0615  0.1791  0.3941
 5141TIP3   OH236837   4.302   0.885   4.394  0.0231  0.0303 -0.6866
 5141TIP3    H136838   4.336   0.918   4.477 -2.7306  0.5100  0.3559
 5141TIP3    H236839   4.300   0.790   4.405 -0.1479  0.0794 -0.2892
 5142TIP3   OH236840   2.315   2.169   0.437  0.3037  0.1993 -0.0060
 5142TIP3    H136841   2.378   2.099   0.422  0.4721  0.1954  0.7000
 5142TIP3    H236842   2.368   2.249   0.439  0.0413  0.4341 -1.4374
 5143TIP3   OH236843   6.309   3.645   5.602  0.1244 -0.5199  0.3469
 5143TIP3    H136844   6.315   3.650   5.507  4.3735 -2.4706  0.3064
 5143TIP3    H236845   6.349   3.726   5.634 -1.8236  0.4094  0.6037
 5144TIP3   OH236846   5.066   4.399  13.990  0.7639 -0.2689 -0.1291
 5144TIP3    H136847   5.021   4.387  13.907 -2.5719  2.1088  1.1203
 5144TIP3    H236848   5.066   4.312  14.030  0.6973 -1.0613 -1.7731
 5145TIP3   OH236849   4.971   1.449   3.240 -0.8605 -0.0265 -0.0668
 5145TIP3    H136850   4.904   1.515   3.228 -1.6556 -0.9278 -0.7694
 5145TIP3    H236851   4.926   1.375   3.280 -0.1367 -0.3868  0.1019
 5146TIP3   OH236852   4.813   2.578  13.974 -0.0579 -0.2807 -0.6890
 5146TIP3    H136853   4.793   2.640  14.044  0.5884  2.1384 -2.5075
 5146TIP3    H236854   4.761   2.500  13.995  0.9103 -0.1130  2.9902
 5147TIP3   OH236855   6.135   6.394   5.462 -0.1759 -0.0914  0.6053
 5147TIP3    H136856   6.205   6.401   5.527 -0.1691  2.7837  0.3938
 5147TIP3    H236857   6.180   6.380   5.379  0.5205  3.9648  0.0944
 5148TIP3   OH236858   2.951   5.523   3.528  0.6665  0.1103 -0.1515
 5148TIP3    H136859   2.992   5.543   3.444 -0.3132  1.6392 -0.3055
 5148TIP3    H236860   2.891   5.451   3.509 -0.5556  1.3291 -1.1080
 5149TIP3   OH236861   6.065   2.639  11.791  0.1711  0.1628  0.6792
 5149TIP3    H136862   6.082   2.733  11.797  1.5487 -0.0291  0.1536
 5149TIP3    H236863   6.138   2.599  11.837  0.4697 -0.6960 -0.5006
 5150TIP3   OH236864   6.753   2.600   0.372  0.0318  0.1694  0.9425
 5150TIP3    H136865   6.815   2.616   0.301  1.2200 -0.6400  1.7528
 5150TIP3    H236866   6.722   2.511   0.357 -0.5013  0.3680  0.8637
 5151TIP3   OH236867   4.177   0.227   0.876 -0.1070 -0.3711 -0.6869
 5151TIP3    H136868   4.085   0.230   0.851 -1.0375  0.4662  2.4014
 5151TIP3    H236869   4.224   0.251   0.796 -2.6145  0.5129 -2.0111
 5152TIP3   OH236870   6.242   1.051   3.242 -0.6229 -0.1559  0.9114
 5152TIP3    H136871   6.258   0.969   3.195 -1.3072  0.8661 -1.2020
 5152TIP3    H236872   6.153   1.076   3.216  0.1699  2.0792  0.2398
 5153TIP3   OH236873   2.491   4.437   0.638 -0.2265  0.2376  0.3172
 5153TIP3    H136874   2.522   4.352   0.669  0.2811  0.5434  0.6759
 5153TIP3    H236875   2.449   4.418   0.554  0.1556 -0.3226  0.2450
 5154TIP3   OH236876   4.173   5.259  14.055 -0.6418 -0.5412 -0.0602
 5154TIP3    H136877   4.157   5.166  14.042  1.8770 -0.8911 -1.3213
 5154TIP3    H236878   4.170   5.272  14.150 -1.3105 -1.8417  0.1048
 5155TIP3   OH236879   1.260   3.594  13.374  0.4621 -0.4447 -0.2755
 5155TIP3    H136880   1.168   3.617  13.359  0.4608 -0.9158 -1.0851
 5155TIP3    H236881   1.305   3.678  13.379  0.1410 -0.2156 -1.0091
 5156TIP3   OH236882   5.543   4.049   4.591  0.2321  0.4186  0.1608
 5156TIP3    H136883   5.467   3.996   4.567  1.5543 -1.1066 -0.8270
 5156TIP3    H236884   5.531   4.131   4.543 -0.2926 -0.1922 -0.7713
 5157TIP3   OH236885   4.695   6.558  15.549 -0.7283  0.0963 -0.1525
 5157TIP3    H136886   4.651   6.565  15.464 -0.7387 -0.8773 -0.2414
 5157TIP3    H236887   4.643   6.494  15.597  0.3728 -0.8117 -0.1236
 5158TIP3   OH236888   5.826   2.943   4.459  0.1757  0.2456 -0.3441
 5158TIP3    H136889   5.894   2.887   4.422  1.7155  0.6468  1.7361
 5158TIP3    H236890   5.767   2.961   4.385 -0.5229 -4.1738 -1.1345
 5159TIP3   OH236891   6.614   0.785   2.033  0.6497  0.0170  0.3993
 5159TIP3    H136892   6.568   0.869   2.033  0.4480 -0.0582  2.0895
 5159TIP3    H236893   6.658   0.781   2.118  2.3445 -0.7108 -0.4577
 5160TIP3   OH236894   2.450   6.581   0.185  0.0605 -0.5780  0.2706
 5160TIP3    H136895   2.521   6.645   0.182 -0.6405  0.4223  2.5988
 5160TIP3    H236896   2.376   6.626   0.144  0.0497 -0.6008  0.2649
 5161TIP3   OH236897   0.974   1.074   3.843 -0.3569 -0.3487  0.9731
 5161TIP3    H136898   0.964   1.010   3.772 -0.3177  0.1251  0.5415
 5161TIP3    H236899   0.939   1.029   3.920 -0.7355 -0.7279  0.5828
 5162TIP3   OH236900   1.361   6.093  10.775 -0.1520 -0.2600  0.6547
 5162TIP3    H136901   1.330   6.090  10.685 -4.7259 -0.0190  1.9219
 5162TIP3    H236902   1.399   6.180  10.785 -1.1367  0.3634 -0.6761
 5163TIP3   OH236903   3.507   4.109   1.752 -0.2246  0.2860 -0.5584
 5163TIP3    H136904   3.578   4.145   1.805 -0.5710 -0.5166  0.4946
 5163TIP3    H236905   3.428   4.153   1.783 -0.2186  1.1523 -1.7025
 5164TIP3   OH236906   0.777   4.586  14.925  0.0555 -0.3173 -0.3446
 5164TIP3    H136907   0.814   4.647  14.863 -0.8058  1.1025  0.4784
 5164TIP3    H236908   0.711   4.537  14.875 -2.1473  2.2437 -0.1913
 5165TIP3   OH236909   3.503   6.561   4.819  0.3350 -0.3311  0.4802
 5165TIP3    H136910   3.548   6.489   4.774 -1.0240  0.4359 -2.3697
 5165TIP3    H236911   3.533   6.555   4.910  0.5773 -4.2024  0.3093
 5166TIP3   OH236912   6.276   2.638   5.965 -0.1078 -0.0162 -0.0283
 5166TIP3    H136913   6.352   2.674   5.920  0.8203  0.0642  1.5541
 5166TIP3    H236914   6.301   2.548   5.988 -0.7440 -0.2135 -0.0668
 5167TIP3   OH236915   2.973   3.148   4.788  0.3085  0.2598  0.1110
 5167TIP3    H136916   2.963   3.228   4.737  1.3540  0.1715 -0.2500
 5167TIP3    H236917   2.944   3.078   4.729 -0.2914  0.3381  0.3109
 5168TIP3   OH236918   1.637   1.625  17.041 -0.2290 -0.3237  0.1067
 5168TIP3    H136919   1.621   1.552  16.981 -0.6105  0.6684 -1.0244
 5168TIP3    H236920   1.636   1.703  16.986  2.4975  0.3798  0.8977
 5169TIP3   OH236921   2.857   5.731  11.288  0.2911  0.2914  0.0696
 5169TIP3    H136922   2.841   5.638  11.276  1.1771  0.3379 -1.8680
 5169TIP3    H236923   2.854   5.745  11.383 -1.6343 -1.3500  0.3146
 5170TIP3   OH236924   2.816   6.670   0.768 -0.4882  0.1256  0.0301
 5170TIP3    H136925   2.855   6.708   0.846  0.4371 -3.0941  1.3277
 5170TIP3    H236926   2.867   6.706   0.695  0.7212  0.8361  1.1903
 5171TIP3   OH236927   5.751   2.718  13.243  0.2311 -0.4222 -0.0871
 5171TIP3    H136928   5.793   2.636  13.216 -0.4247 -0.4231 -1.1978
 5171TIP3    H236929   5.788   2.784  13.183 -0.8251 -0.3100 -0.6457
 5172TIP3   OH236930   0.590   0.387   2.412  0.0103 -0.3328 -0.8735
 5172TIP3    H136931   0.673   0.405   2.368 -0.0696  1.9012 -0.1975
 5172TIP3    H236932   0.567   0.298   2.383  0.7723  0.3666 -4.0563
 5173TIP3   OH236933   0.918   6.517   1.842 -0.1570  0.3032 -0.0671
 5173TIP3    H136934   0.927   6.539   1.935  2.4009  1.4474 -0.4975
 5173TIP3    H236935   0.851   6.577   1.810 -0.9178  0.0399  0.9908
 5174TIP3   OH236936   3.016   1.230  12.994  0.1352  0.5400 -0.0175
 5174TIP3    H136937   2.926   1.211  12.968 -0.1101 -0.1628  1.3043
 5174TIP3    H236938   3.017   1.219  13.089  2.5145 -3.3883 -0.2962
 5175TIP3   OH236939   1.435   3.236  16.062 -0.4227  0.0001  0.8261
 5175TIP3    H136940   1.428   3.215  16.155  2.3504 -0.2568  1.0591
 5175TIP3    H236941   1.510   3.185  16.031  1.4604  3.2878 -0.5067
 5176TIP3   OH236942   4.634   5.250  15.499  0.3955  0.1915 -0.3850
 5176TIP3    H136943   4.661   5.166  15.461  1.1216  0.7770 -1.2274
 5176TIP3    H236944   4.716   5.289  15.530  0.1786  0.9407 -0.7400
 5177TIP3   OH236945   0.416   4.083  15.565 -0.0824  0.1957  0.2231
 5177TIP3    H136946   0.431   3.993  15.593  0.2960  0.1979  0.0404
 5177TIP3    H236947   0.340   4.112  15.615 -0.0772 -0.1577  0.4354
 5178TIP3   OH236948   3.892   3.908   2.926  0.3411  0.1129  0.3113
 5178TIP3    H136949   3.864   3.826   2.967  0.7137  0.0062  0.3508
 5178TIP3    H236950   3.961   3.942   2.983 -2.4108  2.4767  2.5546
 5179TIP3   OH236951   4.411   5.407  11.576 -0.6572 -0.1864  0.0374
 5179TIP3    H136952   4.477   5.450  11.630 -1.5984  0.0907  0.9900
 5179TIP3    H236953   4.328   5.447  11.603 -1.2905 -0.9752 -0.6959
 5180TIP3   OH236954   3.346   3.106   1.046  0.2329 -0.1895  0.0240
 5180TIP3    H136955   3.348   3.199   1.023  3.5797  0.2199  1.2795
 5180TIP3    H236956   3.412   3.066   0.989  0.3923 -1.3305  0.9626
 5181TIP3   OH236957   1.661   4.944  12.084  0.1803  0.2574  0.6001
 5181TIP3    H136958   1.570   4.955  12.056 -0.2787 -0.3217  1.7837
 5181TIP3    H236959   1.689   5.032  12.107  0.1022  0.5187 -0.2598
 5182TIP3   OH236960   6.372   2.316  13.655 -0.0938 -0.0495 -0.6142
 5182TIP3    H136961   6.292   2.328  13.705  0.2145 -1.9224  0.4178
 5182TIP3    H236962   6.349   2.343  13.566 -1.0918  1.8610  0.1886
 5183TIP3   OH236963   6.777   3.161  13.798 -0.9750 -0.1548  0.2970
 5183TIP3    H136964   6.710   3.189  13.862 -1.0307 -3.0726  1.6647
 5183TIP3    H236965   6.741   3.082  13.758  0.3761 -0.0581 -1.2093
 5184TIP3   OH236966   1.997   3.458   4.355  0.2120 -0.3919 -0.1668
 5184TIP3    H136967   2.090   3.468   4.334  0.0427  1.2279 -0.2991
 5184TIP3    H236968   1.958   3.422   4.275  0.5582 -0.0942 -0.4715
 5185TIP3   OH236969   5.096   2.198  12.493 -0.0589 -0.0371  0.4922
 5185TIP3    H136970   5.174   2.144  12.507  1.4940  2.0488  0.4747
 5185TIP3    H236971   5.094   2.257  12.568  0.1741  1.9333 -0.9603
 5186TIP3   OH236972   2.600   2.818  16.245 -0.4514  0.8159  0.4923
 5186TIP3    H136973   2.599   2.771  16.328 -0.8587  1.8087  1.0552
 5186TIP3    H236974   2.544   2.766  16.187  1.2606 -0.8672  0.2576
 5187TIP3   OH236975   4.655   5.338   1.200 -0.1772 -0.5286 -0.0790
 5187TIP3    H136976   4.658   5.258   1.148  0.5976 -0.9556  0.5874
 5187TIP3    H236977   4.591   5.319   1.269 -0.2147 -0.4664 -0.0974
 5188TIP3   OH236978   0.868   1.137  13.909 -0.1888 -0.2341 -1.1459
 5188TIP3    H136979   0.817   1.084  13.848  0.3643 -1.0581 -0.9130
 5188TIP3    H236980   0.807   1.204  13.940 -0.5778 -0.0106 -2.3257
 5189TIP3   OH236981   0.230   6.068  16.586 -0.2683  0.7651 -0.0034
 5189TIP3    H136982   0.238   6.123  16.508  0.7421 -0.8640 -1.1036
 5189TIP3    H236983   0.184   6.123  16.649 -1.8724  1.8385 -2.0072
 5190TIP3   OH236984   3.579   5.518  11.346 -0.7457  0.8705  0.5898
 5190TIP3    H136985   3.641   5.445  11.352  0.4622  1.7683 -0.4226
 5190TIP3    H236986   3.529   5.513  11.427 -0.2369 -0.6708  0.8537
 5191TIP3   OH236987   0.535   3.029  15.351 -0.2607  0.4964  0.5394
 5191TIP3    H136988   0.595   2.956  15.366 -0.0572  0.7435  0.9463
 5191TIP3    H236989   0.583   3.088  15.292 -0.1050  0.6908  0.8595
 5192TIP3   OH236990   5.946   1.083   6.060  0.3209  0.0312  0.1854
 5192TIP3    H136991   5.863   1.042   6.036 -1.1806  2.9027 -0.0414
 5192TIP3    H236992   5.996   1.086   5.978  0.2684 -0.8942  0.1143
 5193TIP3   OH236993   2.804   6.027   2.026  0.0755 -0.2107  0.4964
 5193TIP3    H136994   2.771   5.964   1.961 -2.3325  1.1098  0.3052
 5193TIP3    H236995   2.758   6.108   2.005  1.7168  1.1297  1.8727
 5194TIP3   OH236996   3.707   2.846  16.762 -0.0140  0.0656 -0.5160
 5194TIP3    H136997   3.652   2.767  16.760 -0.0023 -0.1692  3.0349
 5194TIP3    H236998   3.647   2.917  16.739 -1.4692 -0.4169  1.4857
 5195TIP3   OH236999   1.216   0.815  11.482  0.0739 -0.0454 -0.2946
 5195TIP3    H137000   1.279   0.788  11.549 -0.2653  1.0492  0.4966
 5195TIP3    H237001   1.258   0.886  11.435  0.8006 -1.5822 -2.1069
 5196TIP3   OH237002   0.073   4.440  16.105 -0.1516  0.0041 -0.8217
 5196TIP3    H137003   0.140   4.434  16.173 -0.3547  2.1173 -0.3468
 5196TIP3    H237004  -0.002   4.394  16.141  0.1411  0.0565 -0.1226
 5197TIP3   OH237005   6.270   4.566   5.834  0.1981 -0.8747  0.3937
 5197TIP3    H137006   6.337   4.596   5.773 -1.2100  1.1598 -0.2777
 5197TIP3    H237007   6.273   4.630   5.906 -1.1147 -0.6098  0.2462
 5198TIP3   OH237008   2.254   6.656   0.007 -0.4533 -0.1527 -0.3026
 5198TIP3    H137009   2.191   6.719   0.040 -0.1010 -0.0055  0.1066
 5198TIP3    H237010   2.243   6.657  -0.088  0.6523  1.7245 -0.4569
 5199TIP3   OH237011   1.296   0.811  16.725 -0.0901  0.1985 -0.2578
 5199TIP3    H137012   1.301   0.717  16.741  0.2362  0.4628  1.3279
 5199TIP3    H237013   1.384   0.844  16.745 -0.0762  0.7929 -1.2163
 5200TIP3   OH237014   4.932   1.052   5.253  0.3770 -0.0092 -0.2279
 5200TIP3    H137015   4.934   0.988   5.181 -3.6827  0.1503 -0.7271
 5200TIP3    H237016   4.951   1.136   5.210  0.6505 -0.2608 -0.6064
 5201TIP3   OH237017   1.784   5.277   1.591  0.0468 -0.5055 -0.4641
 5201TIP3    H137018   1.787   5.253   1.498 -1.6301 -0.0557 -0.6498
 5201TIP3    H237019   1.873   5.259   1.622  0.1629 -2.4223 -1.7068
 5202TIP3   OH237020   4.769   1.241  14.863 -0.0670  0.6476 -0.0948
 5202TIP3    H137021   4.771   1.262  14.769 -2.3342  2.1393  0.1094
 5202TIP3    H237022   4.682   1.202  14.876  1.3675 -2.5952  0.8970
 5203TIP3   OH237023   3.047   5.250  11.905 -0.3247  0.3582  0.3388
 5203TIP3    H137024   2.975   5.203  11.945  0.5907 -0.7610  0.7149
 5203TIP3    H237025   3.126   5.213  11.944  0.4914  1.0974 -0.5295
 5204TIP3   OH237026   6.657   1.524  16.699  0.1653 -0.4711  0.3954
 5204TIP3    H137027   6.674   1.584  16.772 -0.5518  1.4007 -0.9044
 5204TIP3    H237028   6.562   1.515  16.697  0.2567 -1.6205  0.5134
 5205TIP3   OH237029   3.173   2.414  16.229 -0.4028 -0.7314  0.1148
 5205TIP3    H137030   3.130   2.329  16.229 -0.2489 -0.8111 -0.1303
 5205TIP3    H237031   3.261   2.397  16.193 -0.1721 -0.5681  0.5939
 5206TIP3   OH237032   6.172   4.245   1.898 -0.5809  0.1415  0.1402
 5206TIP3    H137033   6.117   4.267   1.823 -3.3772 -1.7552  1.4598
 5206TIP3    H237034   6.184   4.150   1.891 -0.1666  0.0656  1.5995
 5207TIP3   OH237035   2.336   1.067  10.816 -0.2714  0.4236 -0.3064
 5207TIP3    H137036   2.383   1.095  10.738  0.9922  3.9907  1.4896
 5207TIP3    H237037   2.399   1.012  10.864 -0.0440  0.4617 -0.5609
 5208TIP3   OH237038   3.195   2.603   1.892  1.3317  0.5919  0.3563
 5208TIP3    H137039   3.106   2.570   1.902  1.8028 -0.9051 -0.0567
 5208TIP3    H237040   3.195   2.648   1.808  0.4596  2.4635  1.3106
 5209TIP3   OH237041   6.430   5.357  15.714  0.4349  0.0567  0.2438
 5209TIP3    H137042   6.405   5.396  15.631  0.1183 -1.6207 -0.4901
 5209TIP3    H237043   6.351   5.365  15.769 -1.5404 -3.9908 -1.6097
 5210TIP3   OH237044   5.359   5.142   4.162  0.2349  0.0165 -0.7530
 5210TIP3    H137045   5.428   5.078   4.176  0.8247  0.9674  0.9218
 5210TIP3    H237046   5.287   5.092   4.124  0.0897 -2.0125  1.9437
 5211TIP3   OH237047   1.619   0.801  15.714 -0.0998 -0.2317  0.0129
 5211TIP3    H137048   1.561   0.782  15.640  0.2500  0.7748 -0.5373
 5211TIP3    H237049   1.576   0.760  15.789 -0.7073 -0.8524 -0.6566
 5212TIP3   OH237050   0.157   1.202   5.662  0.0815 -0.3833 -0.0548
 5212TIP3    H137051   0.069   1.231   5.638 -0.2147 -0.3664  1.0373
 5212TIP3    H237052   0.167   1.118   5.616 -0.8000 -0.7659  0.4268
 5213TIP3   OH237053   6.356   5.804   4.653 -0.2720 -0.0164  0.3137
 5213TIP3    H137054   6.294   5.871   4.683  0.3205  0.2760  0.9048
 5213TIP3    H237055   6.409   5.785   4.729 -0.1197 -0.8224  0.0133
 5214TIP3   OH237056   5.259   3.261   2.401 -0.2736  0.5076  0.1101
 5214TIP3    H137057   5.185   3.310   2.365 -1.4344 -0.1076  1.5548
 5214TIP3    H237058   5.220   3.204   2.468  1.5245  0.2385  0.9937
 5215TIP3   OH237059   1.527   5.715  16.628  0.4217 -0.3080 -0.0535
 5215TIP3    H137060   1.508   5.730  16.535  0.3103 -3.8949 -0.7519
 5215TIP3    H237061   1.450   5.749  16.674 -1.5875 -2.3237 -1.6966
 5216TIP3   OH237062   1.516   0.928   1.572 -0.0405  0.7561 -0.5854
 5216TIP3    H137063   1.464   1.007   1.555 -1.3155  0.4127  1.3870
 5216TIP3    H237064   1.457   0.856   1.551 -0.1148  0.3558  0.8832
 5217TIP3   OH237065   6.282   2.110   0.710  0.0769  0.5989 -0.2780
 5217TIP3    H137066   6.344   2.119   0.638  0.9158  0.1684  0.3723
 5217TIP3    H237067   6.309   2.030   0.755 -1.3873  0.0123 -0.3887
 5218TIP3   OH237068   3.810   0.684  11.422  0.1513  0.2504 -0.6113
 5218TIP3    H137069   3.824   0.630  11.500 -1.2363  0.2047 -0.3590
 5218TIP3    H237070   3.807   0.774  11.455  0.8244  0.3437 -0.7983
 5219TIP3   OH237071   4.527   3.099  14.581 -0.8306 -0.0633  0.0506
 5219TIP3    H137072   4.455   3.144  14.625 -0.1076  1.0293  0.1541
 5219TIP3    H237073   4.593   3.167  14.568  0.1136 -1.0045 -0.1954
 5220TIP3   OH237074   4.117   4.471  16.072 -0.1354 -0.0783  0.5399
 5220TIP3    H137075   4.044   4.408  16.076  0.9550 -1.3902  0.4912
 5220TIP3    H237076   4.075   4.556  16.080 -1.7459 -0.7614 -0.1231
 5221TIP3   OH237077   6.470   2.605  13.697 -0.0118 -0.0632 -0.2236
 5221TIP3    H137078   6.501   2.519  13.669  1.2498  0.4824 -0.6061
 5221TIP3    H237079   6.532   2.666  13.657  0.3148  0.9135  1.6815
 5222TIP3   OH237080   0.125   1.499   5.749 -0.2121  0.1756 -0.0638
 5222TIP3    H137081   0.165   1.416   5.721  1.3624  0.2748  1.6883
 5222TIP3    H237082   0.065   1.473   5.819 -3.7589 -0.0146 -2.8508
 5223TIP3   OH237083   4.340   6.120  15.330  0.2002 -0.2651  0.2328
 5223TIP3    H137084   4.356   6.111  15.236 -1.3549 -1.8194  0.0610
 5223TIP3    H237085   4.305   6.208  15.340  0.3324 -0.1029 -0.6425
 5224TIP3   OH237086   5.701   3.781  13.619  0.1875 -0.9082  0.0275
 5224TIP3    H137087   5.735   3.693  13.604  1.2545 -0.2882 -1.4624
 5224TIP3    H237088   5.775   3.830  13.656 -0.3947 -0.6301  0.8504
 5225TIP3   OH237089   2.903   6.032   3.820  0.1731  0.8187  0.1906
 5225TIP3    H137090   2.915   6.086   3.898  0.3539 -0.1785  0.8724
 5225TIP3    H237091   2.907   5.942   3.852 -1.6707  0.3870 -0.6911
 5226TIP3   OH237092   0.675   0.745  12.943  0.0701 -0.4065 -0.2028
 5226TIP3    H137093   0.675   0.825  12.890 -0.6179 -0.4834 -0.3181
 5226TIP3    H237094   0.636   0.772  13.026  1.8503 -0.0922  0.5814
 5227TIP3   OH237095   0.543   5.865  12.560  0.0876  0.5515 -0.3648
 5227TIP3    H137096   0.592   5.946  12.556  1.3534 -0.0851  1.1471
 5227TIP3    H237097   0.463   5.887  12.607  1.1745  0.6323  1.5349
 5228TIP3   OH237098   4.781   1.595  16.413  0.1650 -0.0882 -0.0247
 5228TIP3    H137099   4.688   1.584  16.391  0.4163 -0.1944 -1.0842
 5228TIP3    H237100   4.781   1.623  16.505 -0.8786 -0.8593  0.2315
 5229TIP3   OH237101   3.964   3.893  12.021  0.0360  0.2123 -0.1032
 5229TIP3    H137102   3.911   3.821  12.056 -1.0175  1.0247  0.0280
 5229TIP3    H237103   3.900   3.954  11.985  0.9374  0.9219 -0.5327
 5230TIP3   OH237104   6.419   1.273  12.331 -0.4278 -0.4185 -0.0234
 5230TIP3    H137105   6.444   1.363  12.354  1.2515 -0.7916 -0.2392
 5230TIP3    H237106   6.328   1.265  12.359 -0.5630  1.3138  0.1066
 5231TIP3   OH237107   3.153   5.329  12.628 -0.5539 -0.3202  0.7628
 5231TIP3    H137108   3.125   5.243  12.661 -0.2580 -0.1945  1.3542
 5231TIP3    H237109   3.129   5.328  12.535 -1.0803 -0.8208  0.8973
 5232TIP3   OH237110   1.644   3.061  11.020 -0.8972  0.0089 -0.1860
 5232TIP3    H137111   1.712   3.012  11.066 -0.2089 -0.7672 -1.9222
 5232TIP3    H237112   1.564   3.043  11.069 -0.1100 -0.2551  1.0533
 5233TIP3   OH237113   1.710   2.973  11.420 -0.0671  0.0078 -0.0675
 5233TIP3    H137114   1.752   3.060  11.418  2.7308 -1.2494 -0.6182
 5233TIP3    H237115   1.630   2.985  11.369  0.3817  2.2055 -0.3908
 5234TIP3   OH237116   1.600   0.286   1.240 -0.1776  0.0567  0.2452
 5234TIP3    H137117   1.509   0.263   1.221 -0.0247 -0.6700  0.3599
 5234TIP3    H237118   1.637   0.206   1.279  0.1511  0.7421  1.4036
 5235TIP3   OH237119   3.123   2.150   0.714  0.1862  0.0212 -0.6089
 5235TIP3    H137120   3.055   2.203   0.672 -0.5215 -0.6573 -0.3388
 5235TIP3    H237121   3.131   2.187   0.802  0.4331  0.3434 -0.7679
 5236TIP3   OH237122   5.483   2.946   2.159  0.2340  0.0674 -0.0399
 5236TIP3    H137123   5.531   3.010   2.211 -0.8673  0.6185  0.3213
 5236TIP3    H237124   5.430   2.999   2.099  0.1512 -0.5233 -0.4927
 5237TIP3   OH237125   2.639   6.425   5.164 -0.1976 -0.1646 -0.0584
 5237TIP3    H137126   2.610   6.508   5.203  1.8029  0.3470  0.4543
 5237TIP3    H237127   2.616   6.433   5.071 -1.6757  0.1677  0.3195
 5238TIP3   OH237128   2.048   1.732   4.327 -0.0266  0.1189  0.2688
 5238TIP3    H137129   1.976   1.795   4.321 -1.0524 -0.7620  2.3875
 5238TIP3    H237130   2.016   1.655   4.280 -0.3419 -0.1480  0.9115
 5239TIP3   OH237131   2.719   1.627   1.109  0.3733 -0.0137 -0.4696
 5239TIP3    H137132   2.691   1.571   1.181  1.1764  0.1476 -0.0175
 5239TIP3    H237133   2.763   1.568   1.047  0.1948 -0.0607 -0.5525
 5240TIP3   OH237134   0.732   0.234   4.840  0.4421  0.4112 -0.8518
 5240TIP3    H137135   0.711   0.168   4.907 -3.2064 -1.4996 -3.4961
 5240TIP3    H237136   0.753   0.313   4.890  1.3410 -1.7298  2.4886
 5241TIP3   OH237137   2.202   3.993   0.126 -0.3351 -0.3270  0.3701
 5241TIP3    H137138   2.237   3.908   0.098 -0.6960 -0.7448  1.1724
 5241TIP3    H237139   2.109   3.978   0.139 -0.7875  0.6647 -1.2870
 5242TIP3   OH237140   6.778   3.813  15.698 -0.7564  0.2024  0.3808
 5242TIP3    H137141   6.710   3.875  15.670 -0.2371  0.8063  0.4183
 5242TIP3    H237142   6.805   3.769  15.617 -2.2008 -1.1138  0.5649
 5243TIP3   OH237143   5.576   3.256   0.158 -0.2129 -0.5013 -0.0650
 5243TIP3    H137144   5.562   3.211   0.241  0.3161 -0.2292  0.1781
 5243TIP3    H237145   5.671   3.268   0.153 -0.2990  0.1212 -0.3709
 5244TIP3   OH237146   3.452   4.366  11.817 -0.1334 -0.4371 -0.4089
 5244TIP3    H137147   3.432   4.399  11.730  0.7887 -1.1095 -0.9048
 5244TIP3    H237148   3.369   4.331  11.850 -0.4645 -0.2816 -1.0653
 5245TIP3   OH237149   3.795   4.792   4.959 -0.0702 -0.4051 -0.2505
 5245TIP3    H137150   3.741   4.775   5.037  0.0138 -1.4901 -0.4168
 5245TIP3    H237151   3.733   4.818   4.892 -0.3979 -1.6212 -0.4325
 5246TIP3   OH237152   4.020   4.863   4.840 -0.2629 -0.6743  0.2639
 5246TIP3    H137153   4.027   4.802   4.767  1.5787 -0.2782  0.0595
 5246TIP3    H237154   3.949   4.828   4.894 -1.8913 -0.8081 -1.8337
 5247TIP3   OH237155   6.012   0.985  11.114 -1.0042 -0.0738  0.2679
 5247TIP3    H137156   6.021   1.055  11.178  0.6589  0.9367 -0.9876
 5247TIP3    H237157   5.999   0.906  11.166  1.4723  0.5213  1.9584
 5248TIP3   OH237158   0.281   6.053   4.807  0.2858  0.2430 -0.5814
 5248TIP3    H137159   0.299   6.043   4.713  1.3390  2.0214 -0.6243
 5248TIP3    H237160   0.308   6.143   4.826 -0.6681  0.1648  1.2719
 5249TIP3   OH237161   5.436   1.578   3.064 -0.6055  0.0309  0.3753
 5249TIP3    H137162   5.384   1.521   3.008 -0.7412  0.6488 -0.1409
 5249TIP3    H237163   5.436   1.535   3.150 -3.5610  0.9290  0.9200
 5250TIP3   OH237164   1.275   6.251  12.674  0.0321 -0.2193 -0.3755
 5250TIP3    H137165   1.226   6.302  12.610  0.3406  0.6531  0.0720
 5250TIP3    H237166   1.242   6.281  12.759 -1.1130 -2.0735 -0.0925
 5251TIP3   OH237167   6.758   1.772   5.650  0.0086  0.0907 -0.3012
 5251TIP3    H137168   6.797   1.695   5.610 -0.6395 -0.0318 -0.7177
 5251TIP3    H237169   6.695   1.737   5.714 -0.2846  0.2667 -0.4887
 5252TIP3   OH237170   0.412   3.425  13.294 -0.1037 -0.2131 -0.2210
 5252TIP3    H137171   0.413   3.421  13.198  0.4373  0.1320 -0.2300
 5252TIP3    H237172   0.502   3.443  13.319 -0.0498 -1.2345  0.4087
 5253TIP3   OH237173   3.062   4.734  12.737  0.4333 -0.8651  0.2653
 5253TIP3    H137174   3.117   4.780  12.673 -0.6320  0.3851  0.2143
 5253TIP3    H237175   3.046   4.798  12.806 -2.0652 -0.6760 -0.3789
 5254TIP3   OH237176   6.320   0.320   5.684  0.1964  0.2332 -0.3931
 5254TIP3    H137177   6.294   0.233   5.655 -0.7359  0.9627 -1.8795
 5254TIP3    H237178   6.356   0.362   5.606  0.5476  1.2154  0.2671
 5255TIP3   OH237179   2.798   5.424   4.119  0.1181 -0.1534  0.5481
 5255TIP3    H137180   2.717   5.372   4.120 -0.6662  0.9331 -1.0919
 5255TIP3    H237181   2.851   5.385   4.050 -0.5612  1.2499 -0.8381
 5256TIP3   OH237182   1.253   3.075  14.661  0.1031 -0.3511 -0.0195
 5256TIP3    H137183   1.311   3.046  14.732  1.1810  1.1514 -0.2473
 5256TIP3    H237184   1.308   3.131  14.606 -0.7245 -1.4134 -2.0268
 5257TIP3   OH237185   6.578   2.686   0.830  0.4100  0.2341  0.2632
 5257TIP3    H137186   6.563   2.685   0.924  0.7573  0.2023  0.3177
 5257TIP3    H237187   6.605   2.597   0.809  0.6733  0.3319  0.1868
 5258TIP3   OH237188   1.936   0.665   5.481  0.0939 -0.1677 -0.2939
 5258TIP3    H137189   1.902   0.635   5.565  1.1398  0.0311  0.2144
 5258TIP3    H237190   1.954   0.584   5.433  0.1311 -0.2984 -0.0638
 5259TIP3   OH237191   0.964   0.791  15.838  0.2119 -0.0459  0.4883
 5259TIP3    H137192   0.982   0.870  15.890  0.0514 -0.4120  1.0972
 5259TIP3    H237193   0.872   0.799  15.814  0.3836  0.3166 -0.0786
 5260TIP3   OH237194   0.250   5.005   3.098  0.6194  0.3609 -0.3646
 5260TIP3    H137195   0.225   5.096   3.115 -0.8272 -0.4311  2.1294
 5260TIP3    H237196   0.174   4.967   3.054  0.6773 -0.0023 -0.1464
 5261TIP3   OH237197   5.705   6.720   6.061  0.1501  0.5607  0.3188
 5261TIP3    H137198   5.636   6.778   6.092 -0.2154 -0.0874  0.7452
 5261TIP3    H237199   5.711   6.652   6.128  1.7738  1.0540  0.7158
 5262TIP3   OH237200   4.660   3.659   0.283  0.2353  0.3323  0.4323
 5262TIP3    H137201   4.619   3.710   0.353  1.0072  1.4581  0.0951
 5262TIP3    H237202   4.599   3.587   0.267 -1.6163  1.9342 -0.0510
 5263TIP3   OH237203   0.615   6.170   0.978  0.1096 -0.0003  0.0971
 5263TIP3    H137204   0.596   6.153   1.071  0.0791 -0.8433 -0.0599
 5263TIP3    H237205   0.592   6.088   0.933  0.5933  0.2372 -0.5904
 5264TIP3   OH237206   0.140   5.666  10.225  0.7419 -0.6499  0.2200
 5264TIP3    H137207   0.163   5.716  10.303 -3.6536  1.9862  0.1586
 5264TIP3    H237208   0.094   5.589  10.259  1.3280 -1.0103  0.2141
 5265TIP3   OH237209   3.525   1.937   5.390 -0.3159  0.4411  0.4142
 5265TIP3    H137210   3.584   1.929   5.465  0.7871 -0.0218 -0.4746
 5265TIP3    H237211   3.529   2.030   5.367 -0.4191  0.5268  0.7385
 5266TIP3   OH237212   1.508   0.931   3.021 -0.0211 -0.1748 -0.3382
 5266TIP3    H137213   1.530   1.001   3.083 -1.8020  0.6768 -0.6100
 5266TIP3    H237214   1.509   0.851   3.073 -0.9544  0.4596  0.6815
 5267TIP3   OH237215   2.853   4.771  16.163  0.5100  0.1258  0.3323
 5267TIP3    H137216   2.934   4.814  16.135  0.7339 -0.3283  0.2777
 5267TIP3    H237217   2.863   4.760  16.258  1.5207 -1.9732  0.0419
 5268TIP3   OH237218   4.781   1.293   3.361  0.0700 -0.4593 -0.0082
 5268TIP3    H137219   4.724   1.286   3.438 -0.1697  0.6741 -0.0526
 5268TIP3    H237220   4.844   1.222   3.371 -0.1267 -0.5035  1.0906
 5269TIP3   OH237221   4.485   5.185  10.793  0.6471  0.1494  0.2266
 5269TIP3    H137222   4.526   5.128  10.858  2.2462 -0.2048 -1.0303
 5269TIP3    H237223   4.471   5.268  10.839  2.6185  0.2242  0.7791
 5270TIP3   OH237224   0.222   0.767   1.601 -0.0821 -0.2797  0.3541
 5270TIP3    H137225   0.195   0.679   1.572 -0.2653 -0.0685 -0.1143
 5270TIP3    H237226   0.183   0.826   1.537 -1.0044  0.2342  1.3777
 5271TIP3   OH237227   3.678   6.244   2.629 -0.4486 -0.5594 -0.2827
 5271TIP3    H137228   3.631   6.182   2.685 -0.8767 -0.6403 -0.7193
 5271TIP3    H237229   3.692   6.195   2.548  0.8037 -0.6890  0.0008
 5272TIP3   OH237230   0.689   5.395  13.982  0.4943  0.4642  0.3304
 5272TIP3    H137231   0.629   5.391  13.908  0.0954  0.0982  0.6657
 5272TIP3    H237232   0.678   5.484  14.017 -1.9421 -0.3859  2.0594
 5273TIP3   OH237233   3.669   5.073  15.376 -0.0476 -0.2466  0.2298
 5273TIP3    H137234   3.745   5.080  15.434  0.1048 -0.4585  0.0574
 5273TIP3    H237235   3.599   5.120  15.422 -0.0340 -0.7367  0.7613
 5274TIP3   OH237236   0.866   1.740   5.044 -0.1034  0.0155  0.6246
 5274TIP3    H137237   0.808   1.679   4.999  0.5947  0.4991 -1.0294
 5274TIP3    H237238   0.854   1.721   5.137 -0.7088 -1.8841  0.2085
 5275TIP3   OH237239   1.131   2.570   2.811  0.3177  0.0843  0.4997
 5275TIP3    H137240   1.202   2.511   2.786 -1.3557 -1.0210 -2.0802
 5275TIP3    H237241   1.053   2.515   2.811 -1.2219  2.0907 -1.4285
 5276TIP3   OH237242   1.203   6.504  14.651  0.1675 -0.7196  0.0872
 5276TIP3    H137243   1.133   6.477  14.711  0.2754  0.8548  0.9664
 5276TIP3    H237244   1.283   6.496  14.703  0.5681 -1.6867 -0.6473
 5277TIP3   OH237245   2.841   4.884  15.211  0.8562 -0.6792  0.3387
 5277TIP3    H137246   2.891   4.962  15.236 -0.4745  0.4475 -0.3457
 5277TIP3    H237247   2.906   4.814  15.206  2.5580  0.9149 -1.4753
 5278TIP3   OH237248   0.071   2.381   5.602  0.1175  0.5299 -0.3189
 5278TIP3    H137249   0.058   2.329   5.681 -2.1927  0.6935 -0.5163
 5278TIP3    H237250   0.096   2.317   5.535  0.7357  0.2014  0.2139
 5279TIP3   OH237251   6.052   4.414  13.790  0.0430  0.5302 -0.0563
 5279TIP3    H137252   6.140   4.385  13.815  1.0414  2.0845 -1.5407
 5279TIP3    H237253   6.046   4.395  13.696 -0.8656  1.2226 -0.1561
 5280TIP3   OH237254   1.618   6.592  15.677 -0.3077  0.2839 -0.0487
 5280TIP3    H137255   1.537   6.640  15.659  0.0191  0.6617 -0.5467
 5280TIP3    H237256   1.687   6.659  15.671 -0.0292  0.1197  1.1351
 5281TIP3   OH237257   3.471   3.627   4.415  0.2627  0.5295 -0.4950
 5281TIP3    H137258   3.408   3.574   4.365 -0.0075 -0.1604  0.5534
 5281TIP3    H237259   3.416   3.687   4.466  0.4417 -0.0229  0.3680
 5282TIP3   OH237260   2.781   2.722  13.650 -0.0334  0.0898  0.3081
 5282TIP3    H137261   2.817   2.670  13.579  0.3724 -0.2224  0.7408
 5282TIP3    H237262   2.762   2.659  13.720 -2.8838 -0.0241 -0.4350
 5283TIP3   OH237263   6.718   2.435   1.091 -0.6757  0.5749 -0.5664
 5283TIP3    H137264   6.680   2.348   1.104  0.8737  0.1115  1.3472
 5283TIP3    H237265   6.643   2.493   1.082 -1.7495 -0.8370 -1.0654
 5284TIP3   OH237266   0.147   4.298   0.286  0.2417 -0.2832  0.1288
 5284TIP3    H137267   0.169   4.206   0.297 -1.9600 -0.6931  1.8787
 5284TIP3    H237268   0.217   4.334   0.232  2.5798 -2.3695  1.5959
 5285TIP3   OH237269   0.124   0.632   2.539 -0.5458  0.9155  0.4075
 5285TIP3    H137270   0.181   0.574   2.590  0.7266  3.7097  2.4378
 5285TIP3    H237271   0.141   0.607   2.448  0.3175 -1.4660  1.1319
 5286TIP3   OH237272   6.596   3.262   5.962 -0.2133  0.0008  0.0358
 5286TIP3    H137273   6.657   3.190   5.979 -1.4090 -0.9312  0.5393
 5286TIP3    H237274   6.579   3.259   5.868  0.5633  0.3235 -0.1229
 5287TIP3   OH237275   2.600   0.896  12.903 -0.3701 -0.1423  0.1657
 5287TIP3    H137276   2.571   0.807  12.922  0.3658 -0.4472 -0.1086
 5287TIP3    H237277   2.663   0.916  12.971 -1.5818  0.7285  1.0866
 5288TIP3   OH237278   0.411   1.536  14.352 -0.5524  0.0268  0.1262
 5288TIP3    H137279   0.506   1.534  14.335 -0.3966  1.2560  0.7739
 5288TIP3    H237280   0.397   1.461  14.410  0.3688  0.9206  1.5665
 5289TIP3   OH237281   0.428   5.151   0.189  0.1434  0.5832 -0.2022
 5289TIP3    H137282   0.466   5.152   0.277  0.4212 -1.4258 -0.2418
 5289TIP3    H237283   0.465   5.227   0.146  0.0612  1.5713  1.3863
 5290TIP3   OH237284   4.256   4.772   2.976  0.3096  0.3838  0.0038
 5290TIP3    H137285   4.341   4.772   3.019  0.9827  0.6041 -1.2778
 5290TIP3    H237286   4.216   4.689   3.001  0.4021  0.7698  1.5227
 5291TIP3   OH237287   0.088   5.676  12.552 -0.2636 -0.4526  0.0843
 5291TIP3    H137288   0.124   5.601  12.600 -0.3302 -1.1912 -0.9944
 5291TIP3    H237289   0.152   5.693  12.483  0.3463  1.2534  1.0007
 5292TIP3   OH237290   3.265   4.179   4.070 -0.6748 -0.5400  0.0943
 5292TIP3    H137291   3.235   4.260   4.110  0.9377  0.4389 -0.5797
 5292TIP3    H237292   3.280   4.119   4.143  0.2203  0.5131  0.7992
 5293TIP3   OH237293   6.669   3.683  13.287  0.0036 -0.3211  0.7493
 5293TIP3    H137294   6.738   3.745  13.262  0.0764 -0.8714 -0.5116
 5293TIP3    H237295   6.598   3.700  13.225 -0.6572 -0.3436  1.4901
 5294TIP3   OH237296   2.893   4.825   4.212 -0.2372  0.0800 -0.6041
 5294TIP3    H137297   2.800   4.839   4.194 -0.7747 -1.7990  0.3407
 5294TIP3    H237298   2.906   4.864   4.299 -0.1829  0.1884 -0.6608
 5295TIP3   OH237299   2.178   6.366   0.793  0.0265 -0.0873  0.2875
 5295TIP3    H137300   2.099   6.327   0.757  0.9386 -1.1511 -0.6368
 5295TIP3    H237301   2.172   6.459   0.769  0.3839 -0.6690 -2.2725
 5296TIP3   OH237302   3.253   4.128  15.263  0.1960 -0.6632 -0.1653
 5296TIP3    H137303   3.262   4.181  15.184 -0.8030 -1.0562 -0.5594
 5296TIP3    H237304   3.309   4.171  15.328  2.8480 -1.6098 -1.6894
 5297TIP3   OH237305   3.968   0.428   0.779 -0.5156 -0.3479  0.2209
 5297TIP3    H137306   3.878   0.397   0.766 -0.6036 -0.2062  0.4834
 5297TIP3    H237307   3.959   0.521   0.801 -0.1825  0.2401 -1.8717
 5298TIP3   OH237308   6.034   4.798  10.028 -0.3134 -0.0225 -0.4258
 5298TIP3    H137309   5.962   4.750   9.986 -0.5515 -1.3507  1.3822
 5298TIP3    H237310   5.998   4.828  10.111  1.0365 -0.1901  0.2449
 5299TIP3   OH237311   5.367   6.351   4.813  0.2273  0.0900 -0.4402
 5299TIP3    H137312   5.338   6.320   4.898 -0.6347  0.6385 -0.5210
 5299TIP3    H237313   5.402   6.273   4.770 -0.9529 -0.5818 -0.2504
 5300TIP3   OH237314   5.381   2.741   4.491  0.0857 -0.4292  0.2085
 5300TIP3    H137315   5.446   2.733   4.421  1.6394 -2.4572  1.7392
 5300TIP3    H237316   5.427   2.788   4.560  0.1528 -2.2489  1.4661
 5301TIP3   OH237317   5.129   0.383   6.216 -0.1328  0.7092  0.0832
 5301TIP3    H137318   5.075   0.333   6.276 -2.6593  1.1873 -1.6534
 5301TIP3    H237319   5.115   0.474   6.241 -2.3621  1.0240 -1.9746
 5302TIP3   OH237320   2.274   5.319  16.180 -0.0972  0.0329  0.5675
 5302TIP3    H137321   2.240   5.233  16.157 -1.0616  0.4066  0.5354
 5302TIP3    H237322   2.214   5.352  16.247  1.3074 -0.0566  1.9432
 5303TIP3   OH237323   4.239   6.788  11.316 -0.6311  0.2652  0.0741
 5303TIP3    H137324   4.277   6.705  11.288 -1.0854 -0.7542  2.3214
 5303TIP3    H237325   4.150   6.787  11.280 -0.5356 -0.0654 -0.1566
 5304TIP3   OH237326   6.274   2.774  14.858  0.3726 -0.1593  0.7635
 5304TIP3    H137327   6.278   2.829  14.780  0.1427 -0.2291  0.7035
 5304TIP3    H237328   6.346   2.805  14.913 -0.2240  0.7125  1.0662
 5305TIP3   OH237329   3.861   3.832  16.295 -0.0007  0.2837 -0.4758
 5305TIP3    H137330   3.919   3.808  16.367 -1.5031 -0.5762  0.5165
 5305TIP3    H237331   3.844   3.750  16.249 -2.1098  0.0384  0.5967
 5306TIP3   OH237332   1.043   1.843  16.658 -0.3354  0.1704  0.0518
 5306TIP3    H137333   1.080   1.776  16.600  0.9607  1.2511 -0.4156
 5306TIP3    H237334   0.959   1.807  16.685  0.3329 -1.6502 -0.1732
 5307TIP3   OH237335   1.169   6.601  16.757 -0.1727 -0.1287 -0.3285
 5307TIP3    H137336   1.103   6.536  16.781 -1.8941  1.0619 -1.6029
 5307TIP3    H237337   1.217   6.561  16.685 -0.9358 -0.1770 -0.8197
 5308TIP3   OH237338   6.334   3.901   4.219  0.1357 -0.1071 -1.0182
 5308TIP3    H137339   6.350   3.812   4.187  0.4190 -0.5052  0.1727
 5308TIP3    H237340   6.241   3.903   4.239 -0.0466  0.1496 -1.8660
 5309TIP3   OH237341   0.658   4.575  15.878 -0.2860 -0.2570  0.6498
 5309TIP3    H137342   0.695   4.488  15.890 -2.6697 -1.2463  1.4880
 5309TIP3    H237343   0.676   4.621  15.959 -0.1675 -0.4377  0.7258
 5310TIP3   OH237344   2.955   3.144  15.313  0.1750 -0.1221 -0.2102
 5310TIP3    H137345   2.958   3.153  15.217 -0.3714 -1.3571 -0.3560
 5310TIP3    H237346   2.898   3.069  15.328 -0.3952  0.5595  1.1240
 5311TIP3   OH237347   6.775   0.572   5.328 -0.2662  0.3107 -0.0422
 5311TIP3    H137348   6.800   0.481   5.345 -0.1046  0.2979 -0.3606
 5311TIP3    H237349   6.793   0.617   5.410  0.1917  0.1740 -0.0686
 5312TIP3   OH237350   0.086   1.530  11.801  0.2768 -0.6462 -0.4226
 5312TIP3    H137351   0.161   1.590  11.793  1.1231 -1.6403 -0.1976
 5312TIP3    H237352   0.052   1.523  11.712  1.4699 -1.4111 -0.8586
 5313TIP3   OH237353   2.747   5.827  12.059  0.0899  0.5679  0.5747
 5313TIP3    H137354   2.714   5.880  12.132 -1.8095  1.5014 -0.8712
 5313TIP3    H237355   2.678   5.764  12.041  1.0379 -0.4291  0.3052
 5314TIP3   OH237356   5.965   3.802   5.010 -0.0458  0.1103 -0.5639
 5314TIP3    H137357   5.954   3.761   4.924  1.9063  0.2174 -0.9187
 5314TIP3    H237358   6.008   3.886   4.991 -1.4563  1.0707  0.3753
 5315TIP3   OH237359   6.476   4.159  16.483  0.2998 -0.2129  0.1943
 5315TIP3    H137360   6.507   4.090  16.424  0.7864  0.0461  0.1364
 5315TIP3    H237361   6.464   4.116  16.567  0.7248 -0.3466  0.1898
 5316TIP3   OH237362   1.944   2.061  12.819  0.1992 -0.7317 -0.0119
 5316TIP3    H137363   1.994   1.982  12.801 -0.0160 -0.9711  0.3996
 5316TIP3    H237364   1.855   2.029  12.837 -0.0369 -0.3408 -0.4531
 5317TIP3   OH237365   5.622   4.777   4.609  0.2658  0.4533  0.0387
 5317TIP3    H137366   5.617   4.682   4.626 -0.2928  0.8558  2.5902
 5317TIP3    H237367   5.555   4.793   4.542  1.3063 -1.1115 -1.4585
 5318TIP3   OH237368   0.615   5.069   2.216 -0.0994 -0.5823 -0.1181
 5318TIP3    H137369   0.591   5.147   2.164 -1.6162 -1.1599 -0.3494
 5318TIP3    H237370   0.648   5.105   2.298 -2.6068  0.3785  0.5724
 5319TIP3   OH237371   0.089   2.970   5.261 -0.2996  0.5583 -0.1864
 5319TIP3    H137372   0.032   3.040   5.227 -1.1979  0.0824  0.2986
 5319TIP3    H237373   0.170   2.979   5.211 -0.9879  0.9268 -1.2760
 5320TIP3   OH237374   0.732   2.382  14.378 -0.1053  0.5873  0.3781
 5320TIP3    H137375   0.760   2.402  14.288 -0.5223  1.4290  0.4262
 5320TIP3    H237376   0.813   2.355  14.422  0.2695  1.0207 -0.0194
 5321TIP3   OH237377   3.806   3.268  11.580 -0.0436 -0.5027 -0.1352
 5321TIP3    H137378   3.830   3.175  11.588  0.2596 -0.4845 -0.7633
 5321TIP3    H237379   3.716   3.272  11.613 -0.4316 -1.2139 -1.0539
 5322TIP3   OH237380   0.808   3.937  14.739 -1.1717 -0.0611  0.5176
 5322TIP3    H137381   0.785   3.850  14.705  0.3894 -0.8781  1.4597
 5322TIP3    H237382   0.782   3.997  14.669 -2.9392 -1.1926  0.1352
 5323TIP3   OH237383   5.994   6.537   2.813  0.2022  0.1723  0.1738
 5323TIP3    H137384   6.013   6.630   2.825  0.1525  0.1619  0.3281
 5323TIP3    H237385   6.071   6.492   2.847  0.5354  0.1773 -0.5460
 5324TIP3   OH237386   3.120   5.199   3.486  0.0230  0.3891 -0.2645
 5324TIP3    H137387   3.042   5.252   3.472 -0.7596 -0.2880  1.2626
 5324TIP3    H237388   3.193   5.256   3.462 -0.9054  1.1198 -1.4602
 5325TIP3   OH237389   3.095   5.451   5.049 -0.1753 -0.2955 -0.4232
 5325TIP3    H137390   3.047   5.523   5.090 -0.8253 -1.1153  0.2790
 5325TIP3    H237391   3.159   5.495   4.992  0.5777  0.8614  1.2401
 5326TIP3   OH237392   5.532   3.672   4.205  0.1219  0.2164 -0.5824
 5326TIP3    H137393   5.448   3.700   4.240  0.0507 -0.0054 -0.5732
 5326TIP3    H237394   5.511   3.634   4.120  0.1313 -0.3683 -0.3342
 5327TIP3   OH237395   6.184   5.231   3.277  0.0909  0.1068 -0.1760
 5327TIP3    H137396   6.123   5.158   3.289 -0.7927  0.9928  0.9042
 5327TIP3    H237397   6.188   5.273   3.362 -2.4235  3.6535 -1.5859
 5328TIP3   OH237398   5.590   2.493  15.734 -0.7028  0.2267 -0.0468
 5328TIP3    H137399   5.522   2.559  15.715  0.1273  1.8020  2.0697
 5328TIP3    H237400   5.641   2.487  15.653 -1.9189  0.7885 -0.8821
 5329TIP3   OH237401   2.431   0.951  11.451  0.0716 -0.0671  0.2782
 5329TIP3    H137402   2.503   1.003  11.417  1.2898 -1.6811  0.2293
 5329TIP3    H237403   2.369   1.015  11.487  1.3790  1.3840  0.0495
 5330TIP3   OH237404   0.259   6.612   3.902 -0.0316  0.3296 -0.4163
 5330TIP3    H137405   0.347   6.578   3.888 -0.1271  0.1937 -0.7012
 5330TIP3    H237406   0.221   6.552   3.967  0.2021  0.5976 -0.0254
 5331TIP3   OH237407   4.421   3.015   6.121 -0.5242 -0.1238  0.9498
 5331TIP3    H137408   4.500   2.985   6.076 -0.2785  0.5763  0.9169
 5331TIP3    H237409   4.381   2.934   6.153 -0.2623 -0.5596  0.2077
 5332TIP3   OH237410   5.169   0.336  13.697 -0.3480 -0.0262 -0.4029
 5332TIP3    H137411   5.123   0.269  13.647 -1.1762 -1.0887  1.6212
 5332TIP3    H237412   5.137   0.324  13.787  2.8888  0.0287  0.8998
 5333TIP3   OH237413   4.647   1.390   1.785  0.3632 -0.3866  0.0994
 5333TIP3    H137414   4.667   1.457   1.850 -0.2926 -0.0371 -0.0465
 5333TIP3    H237415   4.552   1.391   1.779  0.2973 -1.8341  0.6180
 5334TIP3   OH237416   2.082   0.803   6.361 -0.2574  0.0663 -0.0441
 5334TIP3    H137417   2.170   0.765   6.359 -0.6563 -0.9572  0.9244
 5334TIP3    H237418   2.097   0.898   6.360  0.8758 -0.0875  0.6560
 5335TIP3   OH237419   1.166   2.077   5.338 -0.6503 -0.7826 -0.4560
 5335TIP3    H137420   1.182   1.984   5.357 -0.7477 -0.6597  0.2431
 5335TIP3    H237421   1.076   2.092   5.366 -0.5526 -0.4161 -0.3338
 5336TIP3   OH237422   0.663   4.039   2.936  0.7706 -0.1430  0.1524
 5336TIP3    H137423   0.639   3.946   2.940  1.0976 -0.1954  0.9656
 5336TIP3    H237424   0.729   4.043   2.867  1.2839 -0.6384  0.6062
 5337TIP3   OH237425   3.736   5.332  11.035 -0.1418 -0.0137 -0.7310
 5337TIP3    H137426   3.769   5.378  11.113 -2.7186 -0.1029  0.5090
 5337TIP3    H237427   3.722   5.401  10.970 -1.0369  0.5449  0.0369
 5338TIP3   OH237428   0.161   0.518  14.169  0.5808  0.2615 -0.0943
 5338TIP3    H137429   0.229   0.578  14.138  0.5366 -0.2535 -1.2131
 5338TIP3    H237430   0.095   0.575  14.209 -0.0313  1.1148 -2.1777
 5339TIP3   OH237431   6.665   2.974   1.727  0.9542  0.3800  0.1439
 5339TIP3    H137432   6.727   2.906   1.700  1.9853  1.1322  0.5498
 5339TIP3    H237433   6.652   3.027   1.649  1.3168  0.5869  0.2220
 5340TIP3   OH237434   1.406   0.366   0.642  0.7425  0.0743  0.0541
 5340TIP3    H137435   1.342   0.432   0.669  2.1412  0.8192  1.7214
 5340TIP3    H237436   1.444   0.334   0.723 -0.3126 -3.3713 -0.6219
 5341TIP3   OH237437   2.823   4.078  15.320  0.0602  0.2186 -0.1097
 5341TIP3    H137438   2.884   4.148  15.297  0.9469 -0.8061 -0.9803
 5341TIP3    H237439   2.867   3.998  15.291 -1.8165 -0.5289 -1.0360
 5342TIP3   OH237440   6.454   5.155   3.991  0.3321 -0.8147 -0.3758
 5342TIP3    H137441   6.390   5.100   4.037  0.8500 -0.6864  0.5088
 5342TIP3    H237442   6.522   5.173   4.056 -0.4876  2.0306 -0.1576
 5343TIP3   OH237443   1.332   2.361   4.660 -0.0138  0.6734 -0.8828
 5343TIP3    H137444   1.268   2.309   4.707  1.1981 -0.7135 -0.6792
 5343TIP3    H237445   1.358   2.430   4.722  0.8435 -0.5442  0.1753
 5344TIP3   OH237446   4.041   0.836   2.674  0.0930 -0.4011 -0.3311
 5344TIP3    H137447   4.022   0.756   2.723 -0.2470 -0.9012 -1.2480
 5344TIP3    H237448   4.012   0.907   2.732 -0.4929 -0.9814  0.1026
 5345TIP3   OH237449   2.047   2.817   0.478 -0.1203  0.2467 -0.0278
 5345TIP3    H137450   1.966   2.866   0.468  0.1974  1.0777  1.2897
 5345TIP3    H237451   2.028   2.752   0.546  0.0103 -0.2490 -0.4585
 5346TIP3   OH237452   5.570   0.009   5.287  0.2099  0.5538  0.2699
 5346TIP3    H137453   5.598   0.005   5.196 -1.0515 -2.3695 -0.1107
 5346TIP3    H237454   5.648  -0.016   5.337  0.1456 -0.9510 -0.3009
 5347TIP3   OH237455   0.090   5.813   4.285 -0.1275 -0.0627  0.1619
 5347TIP3    H137456   0.009   5.827   4.334  0.2890 -1.3041  1.2806
 5347TIP3    H237457   0.158   5.852   4.340  0.1133  0.4645 -0.4966
 5348TIP3   OH237458   2.110   4.475   2.463 -0.1829  0.4221  0.0340
 5348TIP3    H137459   2.186   4.534   2.462 -0.1853  0.4505  0.9841
 5348TIP3    H237460   2.041   4.525   2.419  0.1343  0.6823 -0.1770
 5349TIP3   OH237461   3.034   6.408  15.590 -0.0258 -0.8520  0.4946
 5349TIP3    H137462   3.080   6.395  15.674  0.6603 -0.5145  0.1770
 5349TIP3    H237463   3.016   6.502  15.587 -1.3820 -1.0726  0.9316
 5350TIP3   OH237464   6.208   4.970   4.393  0.1064  0.5675  0.0596
 5350TIP3    H137465   6.140   5.035   4.378 -1.3621 -0.7284  0.8057
 5350TIP3    H237466   6.210   4.959   4.488  1.6595  0.8470  0.0937
 5351TIP3   OH237467   2.652   1.049   1.896  0.1468 -0.1646  0.4331
 5351TIP3    H137468   2.641   0.982   1.829 -0.9880  2.5536 -2.3369
 5351TIP3    H237469   2.747   1.065   1.899  0.3450 -1.2812  0.5794
 5352TIP3   OH237470   2.234   3.839  16.073  0.2630 -0.0499 -0.1808
 5352TIP3    H137471   2.182   3.814  15.998 -1.0946 -0.4781  0.8628
 5352TIP3    H237472   2.320   3.798  16.058  0.6797  1.4805 -2.3916
 5353TIP3   OH237473   3.994   2.491   0.886  0.1087 -0.8401  0.3570
 5353TIP3    H137474   3.935   2.421   0.860 -0.6418 -0.4639  0.9930
 5353TIP3    H237475   3.971   2.509   0.977  0.4301  0.0869  0.2663
 5354TIP3   OH237476   3.659   3.459   1.373 -0.2354  0.1176  0.0947
 5354TIP3    H137477   3.616   3.453   1.288  0.6864 -0.4836 -0.3502
 5354TIP3    H237478   3.752   3.444   1.354 -0.0952 -0.6700  1.2908
 5355TIP3   OH237479   5.245   1.435  16.862 -0.4713  0.0416  0.5238
 5355TIP3    H137480   5.280   1.346  16.872 -2.3336 -0.8783 -0.5698
 5355TIP3    H237481   5.323   1.491  16.864  0.7390 -1.5471  1.6077
 5356TIP3   OH237482   1.971   3.474   5.666 -0.2009 -0.6881  0.6148
 5356TIP3    H137483   2.048   3.476   5.610 -0.4748  1.8720  0.2054
 5356TIP3    H237484   1.996   3.522   5.745 -1.2558 -0.0515  0.5928
 5357TIP3   OH237485   6.750   1.493   0.602  0.0322 -0.3367 -0.2323
 5357TIP3    H137486   6.760   1.399   0.616 -0.8111 -0.0162  4.0132
 5357TIP3    H237487   6.659   1.512   0.623  0.9590  1.7386  2.6271
 5358TIP3   OH237488   6.752   1.007  16.357  0.1462 -0.6483  0.2114
 5358TIP3    H137489   6.809   1.034  16.284  0.6436  1.9397  1.4549
 5358TIP3    H237490   6.664   1.011  16.321  0.3147  1.4108 -0.0980
 5359TIP3   OH237491   1.904   0.992  12.091  0.0042 -0.3119 -0.1701
 5359TIP3    H137492   1.948   0.986  12.177 -0.5407 -1.3469  0.0495
 5359TIP3    H237493   1.811   0.981  12.111 -0.2080  0.2762 -0.8152
 5360TIP3   OH237494   5.644   2.773   1.518  0.0920 -0.1727 -0.0158
 5360TIP3    H137495   5.624   2.773   1.425  2.0963 -0.6233 -0.5069
 5360TIP3    H237496   5.694   2.854   1.532  1.2241 -0.8947  0.2888
 5361TIP3   OH237497   0.629   5.800   3.781 -0.2243 -0.7899  0.2287
 5361TIP3    H137498   0.585   5.747   3.847 -0.4543 -2.0157 -0.8649
 5361TIP3    H237499   0.643   5.885   3.823 -0.8063 -1.3818  1.6599
 5362TIP3   OH237500   2.603   2.912  17.167 -0.3115 -0.3629 -0.1744
 5362TIP3    H137501   2.664   2.985  17.154 -0.6117 -0.1673 -0.4834
 5362TIP3    H237502   2.585   2.880  17.079  1.7432 -2.4125  0.0455
 5363TIP3   OH237503   4.533   0.228   4.742  0.3517 -0.2540 -0.0111
 5363TIP3    H137504   4.457   0.212   4.797  0.4306 -0.3031  0.0823
 5363TIP3    H237505   4.576   0.143   4.735  0.3893 -0.2297 -0.0789
 5364TIP3   OH237506   2.660   3.670  15.813  0.2501 -0.0904 -0.2115
 5364TIP3    H137507   2.702   3.585  15.803  1.3522  0.3943  0.0959
 5364TIP3    H237508   2.708   3.728  15.754 -1.6118 -0.0323 -1.7308
 5365TIP3   OH237509   4.598   2.427  16.719 -0.0616  0.0177  0.0208
 5365TIP3    H137510   4.690   2.455  16.726  0.2516 -1.1678  1.1913
 5365TIP3    H237511   4.601   2.334  16.741 -1.5070 -0.1220 -0.3313
 5366TIP3   OH237512   5.283   2.494   4.267 -0.3115 -0.4661 -0.4797
 5366TIP3    H137513   5.354   2.529   4.213 -2.2278  1.2762 -2.0255
 5366TIP3    H237514   5.319   2.414   4.305  1.5163 -1.2476 -3.5441
 5367TIP3   OH237515   1.054   0.156   4.032 -0.6252 -0.0656 -0.1303
 5367TIP3    H137516   0.976   0.206   4.009 -0.5187 -0.1135 -0.5946
 5367TIP3    H237517   1.126   0.203   3.991 -0.2815  0.5219  1.0829
 5368TIP3   OH237518   0.100   3.572  13.409 -0.1114 -0.0245  0.4016
 5368TIP3    H137519   0.050   3.648  13.442  1.1709  0.9046  0.2709
 5368TIP3    H237520   0.165   3.610  13.350 -1.1785 -1.4845 -1.8523
 5369TIP3   OH237521   3.562   5.880  12.623  0.2669 -0.1299  0.0564
 5369TIP3    H137522   3.589   5.821  12.552 -0.2480  0.5099 -0.6872
 5369TIP3    H237523   3.632   5.944  12.629 -0.0327  0.2394 -0.3698
 5370TIP3   OH237524   3.103   4.424  12.219  0.4325 -0.0939  0.1884
 5370TIP3    H137525   3.018   4.389  12.190  1.4446 -0.3823 -2.7489
 5370TIP3    H237526   3.089   4.519  12.226 -0.4430 -0.2688  1.1038
 5371TIP3   OH237527   2.140   5.915   0.200 -0.6172  0.0991  0.1712
 5371TIP3    H137528   2.211   5.875   0.251 -0.3657 -0.3670 -0.5315
 5371TIP3    H237529   2.136   6.006   0.232  0.4132  0.1793  0.1051
 5372TIP3   OH237530   0.776   0.810  15.540 -0.1071 -0.5033 -0.1605
 5372TIP3    H137531   0.756   0.826  15.632 -3.5815 -1.2383 -0.6741
 5372TIP3    H237532   0.716   0.867  15.493  2.2858  0.6202 -2.0742
 5373TIP3   OH237533   1.904   1.220   2.542 -0.1087  0.4544  0.3162
 5373TIP3    H137534   1.857   1.175   2.612  0.1541 -1.2688 -0.5659
 5373TIP3    H237535   1.847   1.292   2.517 -0.5545  0.6288  1.7578
 5374TIP3   OH237536   4.019   5.739  11.923  0.2896  0.0257 -0.4823
 5374TIP3    H137537   4.099   5.693  11.950  1.2701  1.6768 -0.4496
 5374TIP3    H237538   3.988   5.690  11.846  0.3424 -1.6458  0.5046
 5375TIP3   OH237539   0.468   3.378  14.409 -0.0954 -0.0218 -0.0336
 5375TIP3    H137540   0.422   3.399  14.490  0.3056 -0.9193  0.4328
 5375TIP3    H237541   0.560   3.400  14.427  0.6428 -3.4518  1.0242
 5376TIP3   OH237542   1.407   4.111  16.319  0.6341 -0.3387  0.3079
 5376TIP3    H137543   1.362   4.053  16.257  0.3985 -0.2674  0.4092
 5376TIP3    H237544   1.359   4.100  16.401 -0.4606  1.2202 -0.0709
 5377TIP3   OH237545   6.442   4.902   1.517  0.5653  0.5642  0.0377
 5377TIP3    H137546   6.349   4.922   1.507  0.0139 -1.8098 -0.1464
 5377TIP3    H237547   6.458   4.831   1.455  2.1731 -0.0094  1.0438
 5378TIP3   OH237548   3.006   2.550  15.402 -0.1702  0.2032  0.1807
 5378TIP3    H137549   2.950   2.564  15.479 -0.5310  1.1590 -0.2422
 5378TIP3    H237550   2.995   2.629  15.350  0.9228  0.0314 -0.3323
 5379TIP3   OH237551   3.309   1.937   2.528 -0.2230  0.3085  0.7162
 5379TIP3    H137552   3.360   1.915   2.606 -1.0591 -0.0924  1.1620
 5379TIP3    H237553   3.360   2.005   2.484  0.9449 -0.4248  0.8857
 5380TIP3   OH237554   5.513   3.301  16.781 -0.1389 -0.0774 -0.5447
 5380TIP3    H137555   5.594   3.257  16.804 -0.9513 -1.4265 -0.1142
 5380TIP3    H237556   5.510   3.378  16.837  0.4086 -0.5063  0.0851
 5381TIP3   OH237557   0.135   3.493  15.743  0.2607  0.2104  0.4747
 5381TIP3    H137558   0.064   3.558  15.749 -0.9987 -1.2524  3.4788
 5381TIP3    H237559   0.214   3.543  15.763 -0.0951  1.5470 -1.2464
 5382TIP3   OH237560   1.987   6.337   4.789  0.3397  0.0914  0.1545
 5382TIP3    H137561   1.966   6.411   4.733 -0.4588  1.8227  2.5800
 5382TIP3    H237562   1.978   6.370   4.878 -0.4967 -3.0593  1.3922
 5383TIP3   OH237563   4.566   6.576   1.516 -0.0288  0.3887 -0.5453
 5383TIP3    H137564   4.513   6.556   1.440 -0.7650 -1.7743  0.4543
 5383TIP3    H237565   4.630   6.641   1.485 -0.6365 -0.0330 -2.8252
 5384TIP3   OH237566   3.175   5.652   3.409 -0.1505 -0.2268  0.2819
 5384TIP3    H137567   3.137   5.734   3.440 -1.0267 -0.1606 -0.8803
 5384TIP3    H237568   3.262   5.677   3.378 -0.2108  0.1622  0.4142
 5385TIP3   OH237569   1.295   4.619  14.459  0.8526  0.4359  0.4739
 5385TIP3    H137570   1.366   4.560  14.438  1.6529  1.4242  0.3212
 5385TIP3    H237571   1.252   4.637  14.375  0.7552  0.2606  0.4862
 5386TIP3   OH237572   3.789   2.801   4.062 -0.4966 -0.2964  0.2055
 5386TIP3    H137573   3.715   2.863   4.058  1.2445  2.2013  2.7114
 5386TIP3    H237574   3.847   2.829   3.991 -0.4781 -0.1598  0.2740
 5387TIP3   OH237575   1.039   1.326   4.033  0.0111 -0.2435  0.4194
 5387TIP3    H137576   1.044   1.272   3.955  3.4036 -1.5703  1.3548
 5387TIP3    H237577   1.069   1.413   4.005 -1.1668 -0.0344 -0.2120
 5388TIP3   OH237578   1.918   4.375  11.513  0.0546 -0.0610  0.4185
 5388TIP3    H137579   1.973   4.298  11.527  0.5756  0.1657 -0.3524
 5388TIP3    H237580   1.977   4.441  11.478 -0.8898 -0.1498 -1.4491
 5389TIP3   OH237581   5.862   2.593  15.872  0.5456  0.3952  0.2768
 5389TIP3    H137582   5.772   2.579  15.842  0.1941  1.1102  0.9799
 5389TIP3    H237583   5.879   2.686  15.855  2.1761 -0.3088 -2.5446
 5390TIP3   OH237584   4.231   1.947  16.395 -0.2573 -0.4440 -0.9047
 5390TIP3    H137585   4.239   1.886  16.321  1.1843  0.7854 -1.8093
 5390TIP3    H237586   4.312   1.937  16.443 -1.2451 -1.3349  0.6594
 5391TIP3   OH237587   4.917   2.411  13.556 -0.0681  0.4033 -0.4852
 5391TIP3    H137588   4.982   2.476  13.583 -0.5819  0.3802  0.9274
 5391TIP3    H237589   4.951   2.328  13.590  0.2303  0.0234 -1.6583
 5392TIP3   OH237590   0.615   6.603  16.794 -0.0680  0.2946  0.0442
 5392TIP3    H137591   0.603   6.573  16.704  0.4754  2.7031 -0.9219
 5392TIP3    H237592   0.656   6.689  16.785 -0.9386  1.0705  2.5773
 5393TIP3   OH237593   2.650   5.320   4.366  0.4483 -0.0588 -0.0019
 5393TIP3    H137594   2.674   5.412   4.377 -0.7828  0.1848  0.7547
 5393TIP3    H237595   2.557   5.317   4.386  0.7773 -1.7211  1.4965
 5394TIP3   OH237596   4.581   1.053  15.818 -0.1101  0.7449 -0.4060
 5394TIP3    H137597   4.617   0.977  15.772 -2.0188 -0.2285 -0.3903
 5394TIP3    H237598   4.601   1.038  15.910  3.8558  2.7712 -0.7053
 5395TIP3   OH237599   5.117   4.454  16.521 -0.4497  0.1476  0.5555
 5395TIP3    H137600   5.082   4.440  16.608 -0.7736  0.2420  0.4423
 5395TIP3    H237601   5.042   4.484  16.469 -0.7183 -1.7889 -0.2550
 5396TIP3   OH237602   2.460   5.217   1.615  0.3537  0.3394 -0.3729
 5396TIP3    H137603   2.536   5.275   1.620  1.7692 -1.3823 -0.8861
 5396TIP3    H237604   2.410   5.249   1.539  0.5612  1.4542 -0.0586
 5397TIP3   OH237605   0.921   3.826   2.899  0.3170  0.0196  0.0728
 5397TIP3    H137606   0.907   3.911   2.858  0.7966 -0.0131 -0.1674
 5397TIP3    H237607   0.835   3.783   2.896 -0.2597  0.9979  1.3891
 5398TIP3   OH237608   3.397   0.118   1.773 -0.2776 -0.3197  0.0362
 5398TIP3    H137609   3.408   0.047   1.709 -0.4332 -0.7062  0.4344
 5398TIP3    H237610   3.339   0.180   1.729 -0.2775 -0.5193 -0.2518
 5399TIP3   OH237611   1.243   1.293  10.839 -0.1447 -0.3294  0.7070
 5399TIP3    H137612   1.241   1.237  10.762  1.5168  0.2820  0.1741
 5399TIP3    H237613   1.285   1.374  10.809 -0.9053  0.5397  1.8778
 5400TIP3   OH237614   1.545   0.008   1.627 -0.6702  0.2251 -0.3278
 5400TIP3    H137615   1.451   0.020   1.614 -0.3792  2.7069 -0.6430
 5400TIP3    H237616   1.553  -0.021   1.718 -1.7450 -0.1781 -0.3513
 5401TIP3   OH237617   6.486   0.464   3.175  0.1837 -0.1729 -0.1057
 5401TIP3    H137618   6.477   0.370   3.190 -0.6031 -0.2616 -1.0198
 5401TIP3    H237619   6.401   0.501   3.199  0.9119  0.5147  1.5515
 5402TIP3   OH237620   6.109   4.504  12.600  0.3220 -0.3862 -0.6714
 5402TIP3    H137621   6.117   4.512  12.695  0.8316 -0.6634 -0.6915
 5402TIP3    H237622   6.086   4.412  12.586 -0.1537 -0.2519 -0.7937
 5403TIP3   OH237623   5.169   6.621   6.331  0.5787 -0.0409 -0.0166
 5403TIP3    H137624   5.098   6.660   6.383  2.3078  2.6109  0.5467
 5403TIP3    H237625   5.154   6.653   6.242  0.9016  0.2989  0.0494
 5404TIP3   OH237626   4.023   1.726   4.540 -0.2899 -0.5196  0.6550
 5404TIP3    H137627   3.973   1.800   4.505  1.0200  0.6931  1.2902
 5404TIP3    H237628   4.087   1.706   4.472 -0.8348 -1.2924  0.3540
 5405TIP3   OH237629   4.060   2.031   2.161  0.0205 -0.3547  0.1769
 5405TIP3    H137630   4.003   1.997   2.230 -1.1863 -0.2968 -0.7502
 5405TIP3    H237631   4.018   2.003   2.080 -0.1474  1.9749 -0.6085
 5406TIP3   OH237632   3.588   3.562   5.222  0.1774 -0.6189 -0.5652
 5406TIP3    H137633   3.515   3.556   5.160  0.3295 -0.3350 -0.7716
 5406TIP3    H237634   3.642   3.485   5.204 -0.2389 -1.0092 -0.1931
 5407TIP3   OH237635   1.077   5.915   5.290 -0.5322  0.7021 -0.0785
 5407TIP3    H137636   1.107   6.006   5.284  0.7482  0.4187  1.3911
 5407TIP3    H237637   1.083   5.894   5.383 -1.1760 -0.7807 -0.3470
 5408TIP3   OH237638   3.074   0.428  16.412  0.8042 -0.0962  0.3602
 5408TIP3    H137639   3.054   0.428  16.506  3.7627  1.3826  1.0914
 5408TIP3    H237640   3.164   0.458  16.406  1.2429 -1.5783 -2.9041
 5409TIP3   OH237641   5.631   3.487   1.121 -0.3500  0.6588  0.1481
 5409TIP3    H137642   5.570   3.550   1.082  0.4416  0.5602 -1.3140
 5409TIP3    H237643   5.575   3.432   1.177 -1.5986  0.6728 -1.0194
 5410TIP3   OH237644   1.159   4.065   3.848 -0.0861  0.0531 -0.0391
 5410TIP3    H137645   1.101   4.081   3.922  0.8224 -0.6940  0.8664
 5410TIP3    H237646   1.234   4.122   3.863  0.7442 -1.1108  0.3883
 5411TIP3   OH237647   4.328   0.713  15.153 -0.0257 -0.4987  0.0740
 5411TIP3    H137648   4.414   0.695  15.191  0.5280  3.0543  0.8940
 5411TIP3    H237649   4.276   0.747  15.226 -1.5188 -0.8497 -0.7986
 5412TIP3   OH237650   2.861   5.493  10.387 -0.4361 -0.0568  0.0712
 5412TIP3    H137651   2.867   5.571  10.442 -0.7292  0.0095  0.0098
 5412TIP3    H237652   2.807   5.520  10.312 -0.8079 -0.4108  0.2080
 5413TIP3   OH237653   0.049   1.798  16.755 -0.4937  0.3517 -0.7439
 5413TIP3    H137654   0.066   1.858  16.827 -0.9482  0.1115 -0.4330
 5413TIP3    H237655  -0.016   1.737  16.790  0.3501 -0.6367 -0.8833
 5414TIP3   OH237656   6.280   3.944  11.762  0.1364 -0.4188 -0.1055
 5414TIP3    H137657   6.350   3.902  11.811 -0.5158 -1.5328 -0.1165
 5414TIP3    H237658   6.299   3.924  11.671  2.0965  2.7495 -0.5400
 5415TIP3   OH237659   2.468   0.684  11.390 -0.6559  0.3093 -0.3717
 5415TIP3    H137660   2.457   0.775  11.418 -0.3638  0.5748 -1.1073
 5415TIP3    H237661   2.495   0.689  11.299 -0.9010 -0.5268 -0.5060
 5416TIP3   OH237662   6.102   4.591  16.802  0.0838  0.3348 -0.5231
 5416TIP3    H137663   6.077   4.628  16.887  1.2108  0.6153 -0.2891
 5416TIP3    H237664   6.103   4.496  16.816  2.5656  0.4261  0.5258
 5417TIP3   OH237665   4.838   0.841   5.984  0.3079 -0.6884  0.1340
 5417TIP3    H137666   4.797   0.906   6.042  2.6411  0.7302  0.3219
 5417TIP3    H237667   4.931   0.863   5.986  0.7542 -2.0313 -2.4043
 5418TIP3   OH237668   6.119   3.744   2.558 -0.1743 -0.0848 -0.2511
 5418TIP3    H137669   6.197   3.688   2.554 -0.2280 -0.2923  1.1696
 5418TIP3    H237670   6.050   3.693   2.517 -0.1452 -0.9701  0.7490
 5419TIP3   OH237671   2.439   2.612  15.017  0.0877  0.0565  0.1259
 5419TIP3    H137672   2.345   2.633  15.016 -0.2088 -1.1873 -0.4209
 5419TIP3    H237673   2.457   2.590  15.108  0.2157  1.7267  0.5410
 5420TIP3   OH237674   2.498   5.120  13.484  0.6337  0.4205 -0.0588
 5420TIP3    H137675   2.520   5.028  13.494 -2.0109 -0.1416  1.8373
 5420TIP3    H237676   2.468   5.129  13.394 -2.1471 -1.4231  0.5733
 5421TIP3   OH237677   3.939   5.836   0.101  0.3892  0.8742 -0.2721
 5421TIP3    H137678   3.948   5.861   0.194 -0.1161  1.5305 -0.3907
 5421TIP3    H237679   3.939   5.741   0.102 -1.5675  0.8279  0.6333
 5422TIP3   OH237680   3.646   3.451   0.186 -0.0735  0.8400  0.2629
 5422TIP3    H137681   3.694   3.406   0.117  0.1630  0.4091  0.7010
 5422TIP3    H237682   3.670   3.543   0.175 -0.4274  0.8416 -0.5331
 5423TIP3   OH237683   6.200   3.983   4.927 -0.8395  0.1030  0.0158
 5423TIP3    H137684   6.205   4.073   4.959  0.7845 -0.3661  1.2309
 5423TIP3    H237685   6.251   3.983   4.846 -0.8716  0.2884 -0.0040
 5424TIP3   OH237686   6.161   1.654  11.077  0.2060 -0.2401 -0.3154
 5424TIP3    H137687   6.142   1.666  11.170  0.0954  0.3804 -0.4120
 5424TIP3    H237688   6.214   1.574  11.073 -1.1148 -1.1642  0.1062
 5425TIP3   OH237689   0.063   0.945  11.285 -0.3394 -0.8713  0.2744
 5425TIP3    H137690   0.141   0.896  11.260  0.7241  0.2994  1.1878
 5425TIP3    H237691   0.065   0.947  11.381 -0.3701  0.8974  0.2760
 5426TIP3   OH237692   1.351   0.517  12.989  0.5822  0.1238 -0.1873
 5426TIP3    H137693   1.323   0.608  12.991  1.2076  0.3188 -0.0954
 5426TIP3    H237694   1.271   0.467  13.003  0.0742  0.6246 -1.2192
 5427TIP3   OH237695   5.636   6.527   0.112 -0.0221 -0.0883  0.5663
 5427TIP3    H137696   5.688   6.446   0.123  1.1820  0.1265 -2.4851
 5427TIP3    H237697   5.681   6.574   0.041 -2.7645  1.5417 -0.2123
 5428TIP3   OH237698   2.898   0.374  14.630  0.2844  0.5692 -0.0733
 5428TIP3    H137699   2.985   0.339  14.652  0.8327  0.6546 -1.9070
 5428TIP3    H237700   2.870   0.419  14.709  2.1308  0.9405  0.4282
 5429TIP3   OH237701   4.103   1.424   3.701 -0.2288  0.0414 -0.3572
 5429TIP3    H137702   4.072   1.337   3.675 -1.0968  0.2657 -0.1082
 5429TIP3    H237703   4.111   1.418   3.796  0.7025 -0.0696 -0.4321
 5430TIP3   OH237704   0.506   3.040  13.023 -0.1916  0.2704  0.4789
 5430TIP3    H137705   0.439   3.066  13.085  0.1054  2.7542 -0.1040
 5430TIP3    H237706   0.585   3.086  13.053  0.5314 -0.3653 -0.3970
 5431TIP3   OH237707   0.612   3.547  12.997 -0.4369  0.3662  0.1134
 5431TIP3    H137708   0.529   3.510  13.026  1.1548 -2.5759  1.3026
 5431TIP3    H237709   0.647   3.591  13.075 -0.6277  1.2128 -0.2633
 5432TIP3   OH237710   3.263   5.965   5.298  0.9909 -0.1120 -0.2248
 5432TIP3    H137711   3.232   5.971   5.207 -3.0971  2.5328  1.0864
 5432TIP3    H237712   3.229   5.881   5.329 -1.0839  0.7194 -0.1280
 5433TIP3   OH237713   3.960   0.428  10.418 -0.1861 -0.4350  0.2465
 5433TIP3    H137714   3.968   0.359  10.351  1.5821  0.6892 -0.7685
 5433TIP3    H237715   3.875   0.469  10.399 -0.0611 -0.6417 -0.8328
 5434TIP3   OH237716   3.749   4.556  12.525 -0.2963  0.1411 -0.4197
 5434TIP3    H137717   3.702   4.639  12.535  0.7886  0.6484  0.7881
 5434TIP3    H237718   3.779   4.557  12.434 -1.2695  0.5178 -0.7568
 5435TIP3   OH237719   3.456   4.199  16.565 -0.1679  0.1357  0.3839
 5435TIP3    H137720   3.406   4.266  16.519  1.1354  0.2894 -0.9151
 5435TIP3    H237721   3.502   4.245  16.635 -0.5356  0.2969  0.5163
 5436TIP3   OH237722   1.126   1.582   3.047 -0.2010  0.1208 -0.4524
 5436TIP3    H137723   1.148   1.609   2.958 -2.3644 -0.5126 -1.2269
 5436TIP3    H237724   1.210   1.556   3.086  1.3058  3.3728 -1.1878
 5437TIP3   OH237725   0.984   2.601   4.116  0.1048  0.2015 -0.9251
 5437TIP3    H137726   1.062   2.632   4.070  1.1284  0.6900  1.0252
 5437TIP3    H237727   0.975   2.510   4.089  1.2206  0.1998 -1.3424
 5438TIP3   OH237728   5.305   1.650   2.781  0.0845 -0.1638 -0.0920
 5438TIP3    H137729   5.354   1.642   2.699 -1.0996 -0.5323 -0.7836
 5438TIP3    H237730   5.248   1.574   2.783  1.1437 -0.9856  1.8365
 5439TIP3   OH237731   6.528   1.298   3.999  0.1581 -0.6150  0.1886
 5439TIP3    H137732   6.444   1.252   4.003 -0.3653  0.3693  0.9659
 5439TIP3    H237733   6.506   1.386   3.966  1.2122 -1.0343 -1.8108
 5440TIP3   OH237734   2.757   0.060  11.853 -0.6171  0.1786  0.2957
 5440TIP3    H137735   2.838   0.088  11.809 -1.6712  2.5419 -0.3023
 5440TIP3    H237736   2.722  -0.009  11.797  0.0226  0.4768 -0.4981
 5441TIP3   OH237737   0.049   3.512   2.519  0.2337 -0.0676  0.3544
 5441TIP3    H137738   0.117   3.445   2.526  0.1562 -0.1141  0.6617
 5441TIP3    H237739   0.070   3.576   2.587 -0.4902 -0.4985  0.9993
 5442TIP3   OH237740   5.063   0.702  13.528  0.0677  0.1045 -0.5160
 5442TIP3    H137741   5.144   0.706  13.578 -0.9594  0.0647  1.2153
 5442TIP3    H237742   5.085   0.745  13.445  1.4436  1.5199  0.5063
 5443TIP3   OH237743   0.929   1.527   5.807  0.3183 -0.3112 -0.2838
 5443TIP3    H137744   0.970   1.549   5.723 -0.2559 -0.8016 -0.7002
 5443TIP3    H237745   0.954   1.436   5.822 -0.3469 -0.5120 -0.3817
 5444TIP3   OH237746   3.497   5.410  13.393  0.3089 -0.4243  0.0761
 5444TIP3    H137747   3.412   5.391  13.354 -0.2499  2.0820 -0.1194
 5444TIP3    H237748   3.491   5.376  13.482 -1.5229  1.0094  0.5655
 5445TIP3   OH237749   4.995   0.093  11.861 -0.2162 -0.1224  0.0639
 5445TIP3    H137750   4.943   0.014  11.876 -0.0553 -0.4653 -1.0632
 5445TIP3    H237751   4.951   0.136  11.787  0.1864  0.4007  0.1246
 5446TIP3   OH237752   4.962   3.448   3.234  0.4230 -0.4203 -0.1877
 5446TIP3    H137753   5.031   3.436   3.299  1.8464 -1.4777 -1.7953
 5446TIP3    H237754   5.003   3.498   3.164 -0.4004 -1.1122 -1.1989
 5447TIP3   OH237755   1.936   3.729  13.683 -0.4549  0.7919 -0.1234
 5447TIP3    H137756   1.906   3.644  13.715 -0.4460  0.8194 -0.0418
 5447TIP3    H237757   2.030   3.730  13.700 -0.5184  0.9737  0.2349
 5448TIP3   OH237758   2.192   3.714  13.757  0.1097 -0.4630 -0.3814
 5448TIP3    H137759   2.202   3.685  13.848  1.2060 -3.1568 -1.2583
 5448TIP3    H237760   2.224   3.804  13.756 -0.7513 -0.0620  2.0316
 5449TIP3   OH237761   1.623   0.995   4.267 -0.4759 -0.2711  0.1322
 5449TIP3    H137762   1.678   0.976   4.191 -2.2344 -0.1854 -1.2322
 5449TIP3    H237763   1.615   1.091   4.268 -1.7616 -0.3414 -0.6061
 5450TIP3   OH237764   1.454   0.533  15.509 -0.0453 -0.5427  0.2586
 5450TIP3    H137765   1.363   0.536  15.536 -0.0473 -2.2775  0.5324
 5450TIP3    H237766   1.455   0.570  15.421 -0.8889  0.1436  0.5302
 5451TIP3   OH237767   3.629   4.209   2.984  0.0482  0.3615 -0.3554
 5451TIP3    H137768   3.685   4.230   2.909  0.4176  0.4507 -0.0589
 5451TIP3    H237769   3.541   4.230   2.955  0.3162  1.5627 -0.3565
 5452TIP3   OH237770   2.781   2.683   5.645  0.2832 -0.4560 -0.0253
 5452TIP3    H137771   2.753   2.594   5.621  1.0037  0.0938 -3.3392
 5452TIP3    H237772   2.775   2.733   5.564  1.8047  2.0608  1.2929
 5453TIP3   OH237773   5.953   1.820  11.040  0.2795 -0.1134  0.5640
 5453TIP3    H137774   5.923   1.833  11.130  1.7149 -0.1415  1.0713
 5453TIP3    H237775   6.020   1.752  11.047 -1.1179 -1.7248 -0.8514
 5454TIP3   OH237776   6.558   0.127   4.997 -0.1468  0.0326 -0.2938
 5454TIP3    H137777   6.600   0.051   5.037 -1.5904 -1.2525 -1.1008
 5454TIP3    H237778   6.554   0.106   4.904  1.6022  2.2085 -0.9548
 5455TIP3   OH237779   3.844   6.640   3.736  0.2286 -0.4913 -0.4251
 5455TIP3    H137780   3.892   6.570   3.781 -1.5617 -0.8184  1.1131
 5455TIP3    H237781   3.860   6.624   3.643  2.5760 -0.8930 -0.0184
 5456TIP3   OH237782   2.514   4.615   1.847  0.2248 -0.2848  0.3864
 5456TIP3    H137783   2.564   4.534   1.841  1.1345  0.2433  0.6772
 5456TIP3    H237784   2.579   4.685   1.843 -0.4124  0.4098  1.4705
 5457TIP3   OH237785   1.085   5.322  13.451 -0.0249 -0.0969 -0.2522
 5457TIP3    H137786   1.130   5.298  13.531 -2.3272 -0.9312  0.8861
 5457TIP3    H237787   1.015   5.257  13.442 -1.0046  1.0894 -1.8926
 5458TIP3   OH237788   5.592   3.335   3.467 -0.6660  0.4273 -0.3729
 5458TIP3    H137789   5.559   3.253   3.429 -0.1297 -0.3538  0.7769
 5458TIP3    H237790   5.665   3.360   3.412 -3.1703  2.3449 -3.1618
 5459TIP3   OH237791   1.477   6.343   0.499  0.0351 -0.0648  0.1922
 5459TIP3    H137792   1.452   6.420   0.550  0.8170  1.4135 -1.5531
 5459TIP3    H237793   1.450   6.269   0.553 -1.0141  1.4137  1.8045
 5460TIP3   OH237794   3.699   2.765  16.451  0.4573 -0.2190 -0.1831
 5460TIP3    H137795   3.706   2.672  16.431 -0.6596 -0.3960  0.1361
 5460TIP3    H237796   3.773   2.784  16.508  0.6008 -0.9543 -0.1213
 5461TIP3   OH237797   0.352   3.382  11.504 -0.0223 -0.5030 -0.4659
 5461TIP3    H137798   0.403   3.367  11.424  0.4877  1.8020 -0.6555
 5461TIP3    H237799   0.416   3.381  11.574 -0.2131 -0.7857 -0.2924
 5462TIP3   OH237800   6.738   1.688  15.598 -0.1451  0.3418 -0.1514
 5462TIP3    H137801   6.776   1.741  15.528 -0.4897 -0.8122 -1.2597
 5462TIP3    H237802   6.647   1.677  15.572 -0.1031 -0.6920  0.0981
 5463TIP3   OH237803   0.150   1.827  11.295 -0.0339  0.0623  0.3717
 5463TIP3    H137804   0.170   1.851  11.205 -2.6295  1.2808  0.0225
 5463TIP3    H237805   0.172   1.734  11.301  4.9369  0.9640  0.0491
 5464TIP3   OH237806   6.800   5.955  15.949  0.2354  0.0670  0.2454
 5464TIP3    H137807   6.830   6.010  15.877  1.5203  1.4576  1.7669
 5464TIP3    H237808   6.772   6.016  16.017  0.0757 -1.1653  1.3363
 5465TIP3   OH237809   2.267   2.309   4.566  0.1577 -0.0252  0.2838
 5465TIP3    H137810   2.274   2.398   4.531  0.0755 -0.5283 -1.0895
 5465TIP3    H237811   2.189   2.273   4.524  1.1138 -1.2845 -0.4735
 5466TIP3   OH237812   3.592   3.292   1.857 -0.0151 -0.3668  0.3848
 5466TIP3    H137813   3.544   3.324   1.934 -0.9901 -1.2079  0.1495
 5466TIP3    H237814   3.536   3.316   1.783 -0.6803 -2.3741  0.1851
 5467TIP3   OH237815   2.549   6.347   4.100 -0.2841 -0.3446  0.2769
 5467TIP3    H137816   2.517   6.273   4.047 -0.7883 -0.3086  0.5217
 5467TIP3    H237817   2.528   6.323   4.190 -0.3112  0.0269  0.3720
 5468TIP3   OH237818   1.323   3.420  13.584 -0.1427  0.4480  0.2170
 5468TIP3    H137819   1.291   3.471  13.509 -0.4719 -0.0468  0.0144
 5468TIP3    H237820   1.418   3.432  13.582 -0.1115  0.1767 -0.4835
 5469TIP3   OH237821   2.048   1.838  13.005  0.1504 -0.2538 -0.5760
 5469TIP3    H137822   2.111   1.781  13.048  0.3005  1.4786  1.6447
 5469TIP3    H237823   1.993   1.872  13.075 -2.1239 -0.2830 -2.2302
 5470TIP3   OH237824   2.232   0.639  12.344  0.1230 -0.2488 -0.2220
 5470TIP3    H137825   2.218   0.598  12.259 -2.0699 -0.2245  0.0669
 5470TIP3    H237826   2.262   0.728  12.323 -0.4068 -0.2395 -0.9947
 5471TIP3   OH237827   1.676   5.411   5.635  0.5412 -0.2239 -0.3001
 5471TIP3    H137828   1.581   5.407   5.646  0.3825 -0.9609 -1.6919
 5471TIP3    H237829   1.706   5.468   5.705 -0.8839 -0.3171  0.4207
 5472TIP3   OH237830   2.250   4.685   6.036  0.6829 -0.1357  0.0034
 5472TIP3    H137831   2.303   4.717   5.964 -0.6345 -0.9974 -1.4395
 5472TIP3    H237832   2.160   4.707   6.012  0.2688  0.5739  1.9626
 5473TIP3   OH237833   1.347   1.595   2.428 -0.3085  0.4254 -0.5437
 5473TIP3    H137834   1.283   1.583   2.358 -0.7008  0.3685 -0.1789
 5473TIP3    H237835   1.301   1.568   2.507  0.0960  0.6009 -0.2475
 5474TIP3   OH237836   4.593   0.958   5.159 -0.3134  0.7114  0.3074
 5474TIP3    H137837   4.651   0.998   5.095  1.2498 -0.3927  0.9637
 5474TIP3    H237838   4.553   0.884   5.113  2.2452 -1.2453  1.0366
 5475TIP3   OH237839   3.761   5.609  16.706  0.1972  0.2376  0.5222
 5475TIP3    H137840   3.791   5.592  16.795 -1.5694 -1.0066  0.9365
 5475TIP3    H237841   3.718   5.695  16.711  1.3344  0.8162  0.5241
 5476TIP3   OH237842   4.507   6.699  17.179  0.9841  0.3901  0.1332
 5476TIP3    H137843   4.498   6.784  17.222  0.5907  1.8166 -2.5427
 5476TIP3    H237844   4.553   6.718  17.097 -0.7297 -1.6422 -1.4144
 5477TIP3   OH237845   4.859   2.451  14.784  0.3484  0.2630 -0.6504
 5477TIP3    H137846   4.895   2.540  14.785  0.7649  0.1129 -1.3447
 5477TIP3    H237847   4.847   2.429  14.876  0.8899  0.7866 -0.4471
 5478TIP3   OH237848   1.124   6.064   4.927  0.6711  0.2480 -0.6019
 5478TIP3    H137849   1.113   6.015   4.846  0.6214  0.4689 -0.7288
 5478TIP3    H237850   1.149   5.998   4.992 -0.0848 -0.0576 -0.6104
 5479TIP3   OH237851   4.063   6.059  11.361  0.1661  0.2495 -0.1452
 5479TIP3    H137852   3.968   6.055  11.376  0.1019  0.2336 -0.5355
 5479TIP3    H237853   4.101   6.050  11.448 -0.2482  3.6557  0.5584
 5480TIP3   OH237854   2.636   0.158   4.658  0.1785  0.1471  0.7000
 5480TIP3    H137855   2.551   0.143   4.617  0.8614  0.4245 -0.9025
 5480TIP3    H237856   2.627   0.241   4.703 -0.6243 -0.2092  1.2179
 5481TIP3   OH237857   0.676   6.497   4.285  0.1720 -0.2533  0.0527
 5481TIP3    H137858   0.738   6.560   4.322  0.9329 -1.6531  1.2727
 5481TIP3    H237859   0.591   6.539   4.293  0.7434  0.9453  0.0853
 5482TIP3   OH237860   6.762   2.007   0.627  0.6804  0.1064 -0.7203
 5482TIP3    H137861   6.672   1.991   0.599  1.0403 -1.7454 -0.9564
 5482TIP3    H237862   6.815   1.950   0.571  1.9211  0.5125 -0.0057
 5483TIP3   OH237863   4.069   2.346   4.123 -0.6098 -0.1078  0.0688
 5483TIP3    H137864   4.091   2.257   4.151 -0.5748  0.1226  0.7837
 5483TIP3    H237865   4.089   2.401   4.198  0.1766  0.6225 -0.6535
 5484TIP3   OH237866   4.422   6.456   3.371 -0.1018 -0.6516  0.1001
 5484TIP3    H137867   4.471   6.390   3.321  0.2753 -0.0402 -0.3515
 5484TIP3    H237868   4.433   6.429   3.462  2.1588  0.1426  0.1181
 5485TIP3   OH237869   2.280   2.622   0.401 -0.9360  0.4451 -0.5042
 5485TIP3    H137870   2.309   2.668   0.323 -1.7908  1.3004 -0.3365
 5485TIP3    H237871   2.228   2.686   0.449  1.3113  0.6887  1.8809
 5486TIP3   OH237872   3.677   5.469   1.896  0.6729  0.4153 -0.0487
 5486TIP3    H137873   3.618   5.518   1.954 -1.8589 -1.6829 -0.6344
 5486TIP3    H237874   3.659   5.506   1.809 -0.2508 -0.5911 -0.3040
 5487TIP3   OH237875   2.722   3.350  13.151 -0.0066 -0.1262 -0.1928
 5487TIP3    H137876   2.714   3.379  13.060 -2.9471 -0.7353 -0.2320
 5487TIP3    H237877   2.754   3.260  13.144  0.4935  0.0768 -0.5654
 5488TIP3   OH237878   4.207   3.360   2.507 -0.0167 -0.0129  0.3627
 5488TIP3    H137879   4.241   3.438   2.551 -0.2198  0.8699 -0.9714
 5488TIP3    H237880   4.131   3.334   2.558 -1.5812  2.2910 -0.5963
 5489TIP3   OH237881   4.241   2.899   2.941  0.1570  0.3330 -0.4146
 5489TIP3    H137882   4.176   2.851   2.992  0.5288  0.3270  0.0540
 5489TIP3    H237883   4.218   2.991   2.952  0.7677  0.3839  0.4965
 5490TIP3   OH237884   5.692   4.996  15.751  1.2395  0.5568 -0.1961
 5490TIP3    H137885   5.660   5.023  15.665  0.1994  0.0561  0.0156
 5490TIP3    H237886   5.665   5.067  15.810 -0.5450 -0.3805  0.1765
 5491TIP3   OH237887   2.769   4.500  15.399  0.1806  0.1786 -0.2577
 5491TIP3    H137888   2.822   4.432  15.358  0.7451 -0.8478  2.0213
 5491TIP3    H237889   2.832   4.554  15.448 -0.4792  1.2121 -0.5202
 5492TIP3   OH237890   4.675   2.373   2.310  0.5905 -0.0519 -0.1463
 5492TIP3    H137891   4.696   2.312   2.239 -0.8741  0.6326 -1.2330
 5492TIP3    H237892   4.653   2.455   2.266  2.0969  1.1795  1.2647
 5493TIP3   OH237893   0.578   6.026  13.812 -0.6497  1.3057 -0.0312
 5493TIP3    H137894   0.597   6.078  13.734  1.1806 -1.7238 -1.8189
 5493TIP3    H237895   0.521   5.956  13.780 -1.4777  1.0860  1.8270
 5494TIP3   OH237896   1.519   2.846  11.574 -0.0306  0.5537 -0.0427
 5494TIP3    H137897   1.595   2.904  11.559  0.1031  1.3789  3.1100
 5494TIP3    H237898   1.448   2.906  11.597 -0.9577 -0.3772 -0.4088
 5495TIP3   OH237899   3.422   5.274  12.326 -0.4540 -0.5894 -0.0615
 5495TIP3    H137900   3.467   5.196  12.294  2.1134  1.1439 -0.9648
 5495TIP3    H237901   3.334   5.268  12.288 -0.0175 -2.5480 -0.8824
 5496TIP3   OH237902   4.301   1.258  11.568  0.1213  0.1073  0.1245
 5496TIP3    H137903   4.264   1.174  11.594  0.6100 -0.4106 -0.7640
 5496TIP3    H237904   4.280   1.318  11.639 -0.0964 -0.8089  0.8456
 5497TIP3   OH237905   0.641   5.087  12.228  0.0029 -0.3257  0.0065
 5497TIP3    H137906   0.716   5.063  12.282 -0.4441  0.4304  0.9736
 5497TIP3    H237907   0.680   5.116  12.145  1.0337  3.1304  1.5566
 5498TIP3   OH237908   5.824   1.927   1.358 -0.1661 -0.4347  0.0608
 5498TIP3    H137909   5.784   1.847   1.324  1.0349 -1.9521  1.9665
 5498TIP3    H237910   5.780   1.943   1.441 -0.4080  0.9265 -0.3131
 5499TIP3   OH237911   2.555   3.133   4.842 -0.0074  0.1923  0.5525
 5499TIP3    H137912   2.567   3.102   4.752  0.5681 -0.3782  0.8159
 5499TIP3    H237913   2.520   3.057   4.889 -0.2508  0.4721  0.8276
 5500TIP3   OH237914   1.135   5.592  12.065  0.2096  0.1505 -0.1896
 5500TIP3    H137915   1.133   5.599  12.160 -3.2376  1.1740 -0.2047
 5500TIP3    H237916   1.227   5.577  12.044  1.2072  0.6551  3.2115
 5501TIP3   OH237917   3.173   1.219  11.377  0.3549  0.3926 -0.5318
 5501TIP3    H137918   3.135   1.290  11.429 -1.4138  0.1560 -1.4088
 5501TIP3    H237919   3.218   1.164  11.441 -0.9935  0.5876  0.6517
 5502TIP3   OH237920   4.833   3.153  14.892  0.2676  0.3479 -0.0572
 5502TIP3    H137921   4.927   3.143  14.903  0.1501 -2.4174 -0.8612
 5502TIP3    H237922   4.801   3.177  14.979  1.4244 -1.5037  0.9265
 5503TIP3   OH237923   5.801   1.711   1.903  0.3017  0.3453 -0.1215
 5503TIP3    H137924   5.723   1.745   1.861  1.1998  1.0259 -1.3167
 5503TIP3    H237925   5.865   1.783   1.897  1.9456 -1.1385 -1.8088
 5504TIP3   OH237926   1.912   0.744   0.842  0.3091  0.4359 -0.7274
 5504TIP3    H137927   1.846   0.793   0.793 -1.2267 -2.0519 -1.3605
 5504TIP3    H237928   1.990   0.745   0.787 -0.2926  0.6042 -1.5906
 5505TIP3   OH237929   4.334   0.729  10.554  0.1262  0.0847 -0.0321
 5505TIP3    H137930   4.281   0.649  10.554 -1.7562  1.2889 -0.3723
 5505TIP3    H237931   4.324   0.765  10.466 -1.1998  2.0258  0.8500
 5506TIP3   OH237932   2.847   2.078   1.197  0.2375  0.7380 -0.0137
 5506TIP3    H137933   2.872   2.049   1.109  1.2626  1.0119  0.1806
 5506TIP3    H237934   2.882   2.011   1.255 -0.5400  0.4964  0.1976
 5507TIP3   OH237935   1.615   1.205   0.893 -0.7500 -0.7539 -0.0925
 5507TIP3    H137936   1.637   1.156   0.972 -3.9728 -1.6399  0.3940
 5507TIP3    H237937   1.698   1.243   0.864  0.4833  0.1928  4.0672
 5508TIP3   OH237938   2.681   5.077  12.692 -0.2141  0.3068  0.0429
 5508TIP3    H137939   2.702   5.029  12.611  0.3065  0.7187 -0.0717
 5508TIP3    H237940   2.760   5.128  12.710  0.1786 -0.7592  1.5361
 5509TIP3   OH237941   3.772   5.829   1.954 -0.1424  0.3689 -0.0362
 5509TIP3    H137942   3.742   5.758   2.011 -3.3218  0.3896 -1.4451
 5509TIP3    H237943   3.793   5.786   1.871  0.3014  0.8130 -0.1574
 5510TIP3   OH237944   0.083   4.931   1.622 -0.4312  0.1178 -0.6745
 5510TIP3    H137945   0.155   4.921   1.559 -1.2675  0.3009 -1.6875
 5510TIP3    H237946   0.057   4.842   1.644  1.1740 -0.0058  1.0143
 5511TIP3   OH237947   2.234   3.151   4.085  1.1411  0.5250  0.4758
 5511TIP3    H137948   2.168   3.136   4.017  1.6317  1.9284 -0.3720
 5511TIP3    H237949   2.192   3.210   4.147  1.2164  0.4909  0.5601
 5512TIP3   OH237950   6.394   6.358   2.619 -0.4602 -0.1580  0.4060
 5512TIP3    H137951   6.316   6.328   2.666 -1.0261 -0.3573 -0.6428
 5512TIP3    H237952   6.367   6.437   2.574 -0.5653 -1.1117 -1.2965
 5513TIP3   OH237953   0.816   5.711  12.206 -0.3101  0.0319  0.3939
 5513TIP3    H137954   0.771   5.695  12.289 -0.8044  1.1922  0.3565
 5513TIP3    H237955   0.880   5.779  12.225  1.3815 -1.4971  0.4099
 5514TIP3   OH237956   1.046   3.332  14.050 -0.0395 -0.6348 -0.1821
 5514TIP3    H137957   1.053   3.381  13.968 -2.7934 -1.9660 -1.3799
 5514TIP3    H237958   1.106   3.375  14.110  1.9551  0.5290 -2.8315
 5515TIP3   OH237959   4.544   5.962   6.161  0.2773  0.3011  0.0125
 5515TIP3    H137960   4.587   5.927   6.239 -0.4408  0.0582  0.3148
 5515TIP3    H237961   4.499   6.041   6.192 -0.8708 -0.3617  0.0941
 5516TIP3   OH237962   0.469   6.112   2.781 -0.9751  0.1746  0.4031
 5516TIP3    H137963   0.423   6.048   2.836  0.1422 -0.3877  0.7243
 5516TIP3    H237964   0.466   6.193   2.832 -0.9879 -0.0387  0.7469
 5517TIP3   OH237965   4.228   2.440   1.327 -1.1000 -0.4651  0.1718
 5517TIP3    H137966   4.166   2.422   1.399  0.2434 -1.8120  1.0567
 5517TIP3    H237967   4.204   2.376   1.259  0.9568 -2.9804  1.6185
 5518TIP3   OH237968   0.767   3.645  13.542  0.9388  0.9598  0.3141
 5518TIP3    H137969   0.791   3.559  13.575  1.6952  0.7737 -0.6619
 5518TIP3    H237970   0.794   3.706  13.611  1.7937  0.5277  0.3787
 5519TIP3   OH237971   1.827   1.712  11.193  0.0174  0.4683  0.1491
 5519TIP3    H137972   1.814   1.689  11.101 -1.3180 -0.6325  0.5794
 5519TIP3    H237973   1.777   1.646  11.242  1.1466  0.6889  1.6991
 5520TIP3   OH237974   4.175   0.217  13.080 -0.5552  0.1350  0.1484
 5520TIP3    H137975   4.192   0.124  13.069  1.7858  0.4216  0.5977
 5520TIP3    H237976   4.113   0.240  13.011 -2.3070 -1.9888  0.9207
 5521TIP3   OH237977   4.840   5.203   3.643 -0.1347  0.1932 -0.2127
 5521TIP3    H137978   4.891   5.182   3.565  0.8931 -0.1783  0.5363
 5521TIP3    H237979   4.823   5.297   3.635 -0.6538  0.0325 -1.2217
 5522TIP3   OH237980   3.169   0.980  13.167 -0.2475  0.1726 -0.3029
 5522TIP3    H137981   3.119   0.916  13.216 -0.0978 -0.7839 -1.3637
 5522TIP3    H237982   3.132   0.978  13.079 -0.0590  1.3542 -0.4331
 5523TIP3   OH237983   2.577   3.856  14.237 -0.0238  0.2751 -0.2228
 5523TIP3    H137984   2.649   3.793  14.245 -0.3437  0.0001  0.5098
 5523TIP3    H237985   2.539   3.860  14.324 -0.4854  0.9219 -0.4500
 5524TIP3   OH237986   2.183   3.220  13.732 -0.0583  0.2759 -0.0867
 5524TIP3    H137987   2.214   3.135  13.699  0.2293  0.4002 -0.1434
 5524TIP3    H237988   2.205   3.282  13.662  1.1509  0.6518  0.6043
 5525TIP3   OH237989   6.737   1.364  12.257  0.4821 -0.1355 -0.2341
 5525TIP3    H137990   6.797   1.339  12.186 -1.2775 -0.9361 -1.5302
 5525TIP3    H237991   6.780   1.333  12.337  1.6760 -0.8984 -1.1361
 5526TIP3   OH237992   0.343   2.101   1.818  0.1572  0.2407 -0.5222
 5526TIP3    H137993   0.405   2.155   1.867  2.9389 -2.8390 -0.3768
 5526TIP3    H237994   0.361   2.121   1.726  2.4723 -1.5544 -0.5469
 5527TIP3   OH237995   4.726   4.018   2.523  0.1511  0.8033  0.6153
 5527TIP3    H137996   4.708   3.945   2.581  0.8393 -0.2542 -0.4554
 5527TIP3    H237997   4.730   3.980   2.436  1.9761  1.8458  0.1772
 5528TIP3   OH237998   1.153   0.274  11.935  0.3615 -0.1162 -0.4837
 5528TIP3    H137999   1.123   0.237  12.018  3.2777 -0.6674  0.4645
 5528TIP3    H238000   1.106   0.357  11.927  0.1455  0.0518  1.8759
 5529TIP3   OH238001   5.750   5.117   3.879  0.2375  0.6033 -0.2591
 5529TIP3    H138002   5.754   5.111   3.974 -0.6694  2.0929 -0.0940
 5529TIP3    H238003   5.658   5.098   3.858  0.9920 -2.6353 -1.1391
 5530TIP3   OH238004   0.697   5.197   4.007  0.5046 -0.1667 -0.5713
 5530TIP3    H138005   0.735   5.248   3.936  1.1521 -0.4737 -0.4523
 5530TIP3    H238006   0.771   5.149   4.044  0.4788  1.0836  1.2426
 5531TIP3   OH238007   2.404   0.547   5.186 -0.2361  0.1850  0.2208
 5531TIP3    H138008   2.484   0.584   5.147  0.7397 -0.0927  1.8547
 5531TIP3    H238009   2.421   0.453   5.191 -0.7404  0.1034  0.4182
 5532TIP3   OH238010   5.056   1.717  10.907 -0.0093  0.5225 -0.2326
 5532TIP3    H138011   5.022   1.752  10.825 -0.9429  0.9746  0.3430
 5532TIP3    H238012   4.995   1.647  10.931  1.4689 -1.1425 -1.0304
 5533TIP3   OH238013   6.387   2.729  14.219 -0.0272 -0.1581  0.8052
 5533TIP3    H138014   6.404   2.741  14.313  2.2986  1.4411  0.2764
 5533TIP3    H238015   6.467   2.687  14.186 -0.8020 -0.6725 -0.4819
 5534TIP3   OH238016   4.087   6.370   0.067  0.2032  0.4908  0.4046
 5534TIP3    H138017   4.125   6.310   0.002  0.5136 -0.7610  1.6797
 5534TIP3    H238018   4.116   6.457   0.039 -0.4287  0.1085 -1.6158
 5535TIP3   OH238019   3.516   6.377  12.509  0.2610  0.2973 -0.2432
 5535TIP3    H138020   3.506   6.424  12.426 -0.3817 -0.1672 -0.4347
 5535TIP3    H238021   3.427   6.361  12.538  0.4391 -1.7875 -0.7343
 5536TIP3   OH238022   6.501   0.979  16.275  0.1705 -0.2903  0.2666
 5536TIP3    H138023   6.480   0.886  16.267 -0.5009 -0.0065 -1.8901
 5536TIP3    H238024   6.418   1.024  16.259  0.0902  0.7190  2.9398
 5537TIP3   OH238025   5.782   3.470  12.384  0.1173  0.0707  0.4549
 5537TIP3    H138026   5.758   3.562  12.383  0.2813  0.1121  0.3786
 5537TIP3    H238027   5.732   3.431  12.311 -0.8779 -0.1349  1.2211
 5538TIP3   OH238028   2.657   3.702  14.508 -0.0929  0.2280 -0.0244
 5538TIP3    H138029   2.562   3.704  14.505 -0.1143 -0.3917  0.1143
 5538TIP3    H238030   2.682   3.789  14.540 -0.6244  0.2847  0.2413
 5539TIP3   OH238031   4.658   3.835  15.972  0.1801  0.0016 -0.0242
 5539TIP3    H138032   4.660   3.929  15.990 -1.2446  0.4081 -1.7402
 5539TIP3    H238033   4.572   3.820  15.934  1.3766 -1.4690 -2.3992
 5540TIP3   OH238034   6.507   5.376  16.565 -0.2680  0.2349  0.0045
 5540TIP3    H138035   6.529   5.419  16.483 -1.4745  0.7112 -0.0986
 5540TIP3    H238036   6.589   5.338  16.596  1.0696  3.2746  0.5136
 5541TIP3   OH238037   4.196   5.073   3.019 -0.2554 -0.1260  0.1161
 5541TIP3    H138038   4.256   5.054   3.092  0.9707 -0.4489 -0.9332
 5541TIP3    H238039   4.157   4.988   2.998  1.0671 -0.4871 -1.0072
 5542TIP3   OH238040   0.530   1.289   4.502  0.6371  0.2945 -0.1391
 5542TIP3    H138041   0.449   1.238   4.494  0.6910  0.3754 -1.5333
 5542TIP3    H238042   0.600   1.225   4.491  0.7423  0.3956 -0.0652
 5543TIP3   OH238043   0.096   3.855  13.466  0.0329  0.0216 -0.1692
 5543TIP3    H138044   0.141   3.887  13.387  0.4180  1.5398  0.6180
 5543TIP3    H238045   0.160   3.867  13.536 -0.4610 -0.9100  0.4549
 5544TIP3   OH238046   4.460   5.668   2.819  0.3108 -0.4592  0.2416
 5544TIP3    H138047   4.392   5.713   2.768  0.4351  0.1426  0.5890
 5544TIP3    H238048   4.519   5.632   2.754  1.1692  1.3844 -0.0673
 5545TIP3   OH238049   1.726   1.783   4.012 -0.6824  0.3377  1.0010
 5545TIP3    H138050   1.770   1.721   4.070 -0.7223 -0.7718 -0.1175
 5545TIP3    H238051   1.719   1.737   3.929  0.5447  2.3596 -0.2923
 5546TIP3   OH238052   3.430   1.835  12.713 -0.0504  0.0144 -0.7474
 5546TIP3    H138053   3.417   1.921  12.754  0.8764  0.2325 -0.8848
 5546TIP3    H238054   3.449   1.855  12.621  1.4632 -0.2487 -0.5066
 5547TIP3   OH238055   1.243   3.199  12.773 -0.3232 -0.0406  0.3094
 5547TIP3    H138056   1.201   3.241  12.848  1.4339  1.3281  0.6038
 5547TIP3    H238057   1.312   3.145  12.812  0.3407  0.3594 -0.2858
 5548TIP3   OH238058   0.776   5.446   6.238 -0.6663  0.9924 -0.7584
 5548TIP3    H138059   0.758   5.361   6.278  0.9680 -0.1036 -2.1756
 5548TIP3    H238060   0.754   5.510   6.306  1.0437 -0.7081  1.5661
 5549TIP3   OH238061   0.835   5.712  16.536 -0.2047  0.8993  0.1340
 5549TIP3    H138062   0.862   5.701  16.445  1.4867  0.9552  0.5905
 5549TIP3    H238063   0.884   5.788  16.566  0.7486 -0.2454  1.6127
 5550TIP3   OH238064   6.630   5.043  12.960  0.0440  0.0014 -0.6930
 5550TIP3    H138065   6.698   5.109  12.974 -0.8344  1.1042 -1.4627
 5550TIP3    H238066   6.679   4.965  12.934  1.1479  0.1024  0.9003
 5551TIP3   OH238067   1.813   1.144   4.441  0.5589 -0.3458  0.3188
 5551TIP3    H138068   1.815   1.136   4.536 -2.1404  0.9253  0.5694
 5551TIP3    H238069   1.760   1.070   4.412  2.9056 -1.8287 -0.4598
 5552TIP3   OH238070   1.060   1.538  12.103 -0.2394 -0.2253  0.7638
 5552TIP3    H138071   1.145   1.548  12.059 -0.3672 -0.9461  0.3503
 5552TIP3    H238072   1.003   1.601  12.059  0.2561  0.7992  1.5328
 5553TIP3   OH238073   4.366   6.144  15.055 -0.4532 -0.7781  0.2620
 5553TIP3    H138074   4.327   6.121  14.970  1.7402 -3.0993 -0.2370
 5553TIP3    H238075   4.400   6.232  15.042 -1.7316 -0.3731 -0.6432
 5554TIP3   OH238076   3.109   1.567   0.048 -0.6072 -0.3738 -0.1280
 5554TIP3    H138077   3.151   1.622   0.115  1.5280  0.8164 -2.2934
 5554TIP3    H238078   3.069   1.629  -0.013  0.3067 -1.2381 -1.6737
 5555TIP3   OH238079   0.910   3.038  11.015 -0.0908 -0.4996  0.8416
 5555TIP3    H138080   0.911   2.943  11.004 -0.4799 -0.8614  3.2564
 5555TIP3    H238081   0.820   3.058  11.043 -0.6635  0.9322 -1.7208
 5556TIP3   OH238082   2.974   6.005  13.615 -0.0754  0.5329 -0.1740
 5556TIP3    H138083   2.904   5.991  13.680 -1.4945 -1.9813 -2.0843
 5556TIP3    H238084   3.053   5.972  13.657 -0.2375  2.0313  1.4528
 5557TIP3   OH238085   6.797   3.948   0.969 -0.3768 -0.1967 -0.2812
 5557TIP3    H138086   6.839   3.869   1.002 -1.2406 -0.0472  1.2955
 5557TIP3    H238087   6.818   4.015   1.034 -0.2775  0.6889 -1.2113
 5558TIP3   OH238088   4.244   3.540  16.542 -0.2042 -0.4551 -0.8837
 5558TIP3    H138089   4.189   3.465  16.563 -0.4183 -0.0169  0.1877
 5558TIP3    H238090   4.266   3.579  16.627  0.2401  0.4556 -1.3924
 5559TIP3   OH238091   6.310   6.459  16.167 -0.2313 -0.1070  0.6518
 5559TIP3    H138092   6.258   6.428  16.093  0.6651 -2.0982  0.7921
 5559TIP3    H238093   6.246   6.499  16.225 -1.0081  1.1809 -1.0035
 5560TIP3   OH238094   0.841   5.673   5.546 -0.3771 -0.4005  0.5412
 5560TIP3    H138095   0.874   5.645   5.461  0.3332 -0.1706  0.7345
 5560TIP3    H238096   0.883   5.758   5.562 -0.1334 -0.6541  1.3254
 5561TIP3   OH238097   6.363   5.413  13.620  0.1374 -0.4824  0.1770
 5561TIP3    H138098   6.295   5.454  13.674  0.8297  1.3261 -0.2547
 5561TIP3    H238099   6.318   5.341  13.577 -1.0100 -0.5301  1.3895
 5562TIP3   OH238100   4.767   1.993   3.498 -0.1843 -0.2073  0.4553
 5562TIP3    H138101   4.858   1.997   3.467 -0.8208  1.9943 -1.3973
 5562TIP3    H238102   4.742   1.901   3.486  2.8007 -1.8240  4.5033
 5563TIP3   OH238103   6.608   2.861  13.287  0.2664  0.2571 -0.3371
 5563TIP3    H138104   6.606   2.956  13.272 -1.3510  0.3855  0.4364
 5563TIP3    H238105   6.559   2.824  13.213 -0.9194  0.2398  0.4190
 5564TIP3   OH238106   5.068   5.622   2.873 -0.5316 -0.2163 -0.5446
 5564TIP3    H138107   5.147   5.590   2.916 -0.2128 -0.3106 -1.1812
 5564TIP3    H238108   5.097   5.702   2.828 -0.4286 -1.0617 -2.0224
 5565TIP3   OH238109   1.414   0.706  14.503 -0.1124 -0.0403 -0.1568
 5565TIP3    H138110   1.440   0.614  14.505 -0.0793 -0.0658 -1.3427
 5565TIP3    H238111   1.481   0.751  14.553  0.4412 -0.5297 -0.4438
 5566TIP3   OH238112   2.380   4.431  16.265  0.1108  0.3310  0.1749
 5566TIP3    H138113   2.291   4.403  16.246  0.9320 -2.7786  0.3816
 5566TIP3    H238114   2.400   4.494  16.196 -1.6194 -0.3247 -1.0035
 5567TIP3   OH238115   3.453   0.115  16.144 -0.1792 -0.1563  0.1694
 5567TIP3    H138116   3.405   0.187  16.183  0.6385  0.5182 -0.0264
 5567TIP3    H238117   3.445   0.128  16.049  1.1983  0.5636  0.1207
 5568TIP3   OH238118   3.309   4.186   2.345  0.3424 -0.2750  0.3776
 5568TIP3    H138119   3.291   4.257   2.283 -0.0812  0.3753  1.2176
 5568TIP3    H238120   3.378   4.222   2.402 -1.5446  0.4631  2.3415
 5569TIP3   OH238121   0.451   0.731  13.158  0.3536 -0.4134  0.5609
 5569TIP3    H138122   0.356   0.720  13.147  0.5272 -0.6302 -1.1035
 5569TIP3    H238123   0.486   0.642  13.151  0.7868 -0.1813 -0.3662
 5570TIP3   OH238124   1.380   4.923  15.984 -0.0796  0.3504 -0.5509
 5570TIP3    H138125   1.303   4.898  15.935 -0.5269  1.3009 -0.3553
 5570TIP3    H238126   1.437   4.846  15.980 -0.1578  0.3569 -2.4112
 5571TIP3   OH238127   4.832   4.870   0.000  0.0537  0.2188 -0.3068
 5571TIP3    H138128   4.873   4.881   0.086 -1.4230  3.1765  0.1538
 5571TIP3    H238129   4.774   4.946  -0.009  0.7147  0.4773 -4.2658
 5572TIP3   OH238130   6.412   5.541   3.242 -0.2806  0.0663 -0.0385
 5572TIP3    H138131   6.337   5.585   3.283  0.2438  2.1204 -1.1285
 5572TIP3    H238132   6.441   5.477   3.307 -0.5186  2.0057  2.1246
 5573TIP3   OH238133   4.378   6.174  14.670 -0.8308 -0.1523  0.2025
 5573TIP3    H138134   4.469   6.164  14.698 -0.2878  0.0939 -1.3863
 5573TIP3    H238135   4.352   6.261  14.702 -0.7558 -0.4881  1.2341
 5574TIP3   OH238136   4.689   5.577  10.305  0.1617  0.2516  0.3030
 5574TIP3    H138137   4.773   5.536  10.324  0.3123  0.4892  0.1547
 5574TIP3    H238138   4.711   5.668  10.286 -0.1507  0.3597  0.4593
 5575TIP3   OH238139   2.869   1.060  14.741  0.2935  0.1089  0.0382
 5575TIP3    H138140   2.903   1.035  14.826 -0.2293 -1.7913 -0.2748
 5575TIP3    H238141   2.882   0.983  14.686 -0.2696  0.9605 -1.3523
 5576TIP3   OH238142   5.009   6.498   5.665 -0.3405  0.3021 -0.5384
 5576TIP3    H138143   5.091   6.539   5.691  0.0189 -0.4508 -0.4510
 5576TIP3    H238144   4.950   6.512   5.740  0.2408 -0.6010  0.1120
 5577TIP3   OH238145   6.690   4.319  16.238  0.0519  0.0310  0.3238
 5577TIP3    H138146   6.615   4.302  16.181 -0.5637 -0.9094  1.3746
 5577TIP3    H238147   6.651   4.348  16.320  0.9388  1.6855  0.2073
 5578TIP3   OH238148   3.301   4.214  14.274 -0.1760  0.1694 -0.6713
 5578TIP3    H138149   3.346   4.293  14.243  2.1090 -0.7930  0.0040
 5578TIP3    H238150   3.370   4.148  14.281 -1.6439 -1.3015  0.8576
 5579TIP3   OH238151   0.860   2.570  15.361 -0.2344 -0.4176  0.0175
 5579TIP3    H138152   0.808   2.522  15.297  0.4009 -1.2447  0.1130
 5579TIP3    H238153   0.912   2.504  15.405  0.1842  0.2824  0.6038
 5580TIP3   OH238154   3.551   5.284   2.208  0.3037  0.2613 -0.4526
 5580TIP3    H138155   3.571   5.319   2.295 -0.7555 -1.0400  0.3452
 5580TIP3    H238156   3.462   5.314   2.190  0.7431  1.0498 -1.3809
 5581TIP3   OH238157   1.975   4.957  16.223  0.4026 -0.5864  0.0669
 5581TIP3    H138158   2.037   5.013  16.269  2.3013 -2.8032  0.4378
 5581TIP3    H238159   1.891   4.972  16.268  0.3777  2.9857 -0.8818
 5582TIP3   OH238160   0.110   3.823  15.232 -0.1529 -0.4258 -0.2804
 5582TIP3    H138161   0.101   3.882  15.307  1.1045 -1.0929  0.4172
 5582TIP3    H238162   0.023   3.785  15.222 -0.3648 -0.2665  0.7934
 5583TIP3   OH238163   2.332   6.162  16.144  0.0800 -1.0474 -0.5601
 5583TIP3    H138164   2.386   6.227  16.100 -0.7273 -0.5220 -0.7704
 5583TIP3    H238165   2.300   6.206  16.222 -0.9684 -0.9844 -1.0167
 5584TIP3   OH238166   5.650   3.414  13.322  0.0454 -0.0172 -0.3055
 5584TIP3    H138167   5.610   3.399  13.236 -0.1837  0.5525 -0.2961
 5584TIP3    H238168   5.676   3.326  13.351 -3.9483 -0.9765  1.0730
 5585TIP3   OH238169   3.935   4.749  17.078  0.3413  0.2703 -0.0001
 5585TIP3    H138170   3.928   4.728  16.985 -0.4359 -0.6333  0.2463
 5585TIP3    H238171   3.844   4.761  17.107  0.5310 -0.1295  0.7826
 5586TIP3   OH238172   5.124   2.020   4.400  0.5440 -0.4803 -0.2950
 5586TIP3    H138173   5.112   2.104   4.355  1.2268 -0.5059 -0.5274
 5586TIP3    H238174   5.075   2.029   4.482 -0.6583 -0.4066 -1.0026
 5587TIP3   OH238175   4.022   4.902   3.900  0.4982 -0.2264  0.4222
 5587TIP3    H138176   4.019   4.882   3.807 -0.8601  0.5518  0.2684
 5587TIP3    H238177   4.088   4.971   3.908  0.7830 -0.4588  0.0761
 5588TIP3   OH238178   1.197   0.565  14.283  0.2075  0.6198 -0.1509
 5588TIP3    H138179   1.126   0.508  14.255 -1.6326  2.2778  0.8811
 5588TIP3    H238180   1.274   0.508  14.289 -0.8465 -1.0945 -1.9644
 5589TIP3   OH238181   4.146   1.475  10.883 -0.5170 -0.5953 -0.5069
 5589TIP3    H138182   4.154   1.565  10.851 -0.8876  0.1942  1.4664
 5589TIP3    H238183   4.231   1.435  10.864 -0.3411  0.1702 -1.4010
 5590TIP3   OH238184   0.458   1.422  13.660 -0.2097  0.4315  0.4122
 5590TIP3    H138185   0.474   1.513  13.686  1.6210 -0.0410  1.1118
 5590TIP3    H238186   0.535   1.398  13.609 -1.0407 -0.4934 -0.4485
 5591TIP3   OH238187   1.562   3.099  12.976 -0.3493  0.2212  0.1552
 5591TIP3    H138188   1.620   3.124  13.048 -0.5893  1.6541 -0.1268
 5591TIP3    H238189   1.599   3.141  12.899 -0.8353 -0.2227 -0.3308
 5592TIP3   OH238190   3.159   0.179   4.944  0.1583  0.4127  0.3505
 5592TIP3    H138191   3.184   0.215   5.029  0.0289 -0.1626  0.6410
 5592TIP3    H238192   3.228   0.115   4.925 -0.4712 -0.3571  0.6155
 5593TIP3   OH238193   5.439   3.966   5.180 -0.0734  0.1649 -0.1106
 5593TIP3    H138194   5.499   4.034   5.209 -0.6661  1.2066 -1.2500
 5593TIP3    H238195   5.445   3.968   5.084  0.9439 -2.3519 -0.1928
 5594TIP3   OH238196   3.390   3.705  15.123 -0.2609 -0.0793  0.8681
 5594TIP3    H138197   3.384   3.769  15.052  0.3435  0.0768  0.9506
 5594TIP3    H238198   3.320   3.728  15.183 -1.6046 -0.9946 -0.2975
 5595TIP3   OH238199   0.984   5.813  10.920  0.6144  0.4367 -0.2285
 5595TIP3    H138200   0.898   5.851  10.937 -0.3324 -1.9564  0.7377
 5595TIP3    H238201   0.966   5.732  10.872  2.4098  0.3035 -0.7792
 5596TIP3   OH238202   6.210   6.056  16.690  0.3161  0.8336 -0.3282
 5596TIP3    H138203   6.165   6.067  16.607 -1.3572  1.7654  0.6448
 5596TIP3    H238204   6.298   6.025  16.666 -0.2465  0.6781 -2.3845
 5597TIP3   OH238205   2.062   0.349  12.440 -0.4447 -0.1927 -0.4517
 5597TIP3    H138206   2.149   0.327  12.406  0.1286 -0.4597  1.1265
 5597TIP3    H238207   2.077   0.422  12.500 -1.1631 -0.7936  0.4890
 5598TIP3   OH238208   1.311   5.705   4.242  0.1258  0.3134 -0.5471
 5598TIP3    H138209   1.302   5.643   4.315  1.8348  1.9170  1.1074
 5598TIP3    H238210   1.401   5.695   4.213 -0.2044  0.5436 -1.7053
 5599TIP3   OH238211   3.556   1.307  17.072  0.5621 -0.8298 -0.5225
 5599TIP3    H138212   3.531   1.309  17.164 -0.1838  1.2714 -0.7130
 5599TIP3    H238213   3.627   1.371  17.065 -1.9616  2.1195 -1.9751
 5600TIP3   OH238214   2.514   3.444  16.106 -0.0416 -0.0697 -0.3912
 5600TIP3    H138215   2.477   3.410  16.025 -1.6407  0.7830 -0.0668
 5600TIP3    H238216   2.510   3.371  16.168 -1.0667 -0.0549 -0.4205
 5601TIP3   OH238217   0.072   1.187  13.337 -0.2066  0.1816  0.4616
 5601TIP3    H138218   0.125   1.123  13.290  0.3173  0.2536  0.9400
 5601TIP3    H238219   0.134   1.255  13.364 -0.7329  0.8245  0.0863
 5602TIP3   OH238220   2.017   0.329  16.704  0.0297 -0.4994 -0.1031
 5602TIP3    H138221   1.974   0.272  16.767  0.6324 -1.6173 -0.6636
 5602TIP3    H238222   1.967   0.410  16.706 -1.2133 -1.2485  0.3039
 5603TIP3   OH238223   2.332   6.232   2.004 -0.5616  0.1486 -0.5451
 5603TIP3    H138224   2.354   6.173   2.076  1.8043  0.7871 -0.6512
 5603TIP3    H238225   2.249   6.271   2.028 -0.4700 -0.6727  1.1881
 5604TIP3   OH238226   3.440   3.050   1.809 -0.4746 -0.4717 -0.4597
 5604TIP3    H138227   3.512   3.111   1.827 -0.9005  0.3500 -1.4019
 5604TIP3    H238228   3.479   2.985   1.750 -0.3639 -0.3150 -0.5626
 5605TIP3   OH238229   5.129   4.127  14.496  0.0909 -0.4047  0.4817
 5605TIP3    H138230   5.165   4.113  14.409  1.0035 -0.0040  0.7792
 5605TIP3    H238231   5.043   4.166  14.481 -1.4933 -3.8754 -0.3044
 5606TIP3   OH238232   3.126   6.084  15.467  0.1947  0.2454 -0.2681
 5606TIP3    H138233   3.085   6.164  15.434 -0.2369  0.1750  0.0873
 5606TIP3    H238234   3.054   6.022  15.475  0.1539  0.4684  1.4467
 5607TIP3   OH238235   1.837   6.460   3.685  0.3860  0.1987 -0.1858
 5607TIP3    H138236   1.856   6.367   3.674 -1.0292  0.0132 -1.4714
 5607TIP3    H238237   1.879   6.502   3.610  0.9892  0.6211  0.3696
 5608TIP3   OH238238   0.363   3.118  14.689 -0.4000  0.4454 -0.2909
 5608TIP3    H138239   0.379   3.213  14.690  1.3886  0.1724  0.1323
 5608TIP3    H238240   0.405   3.088  14.609 -2.7120  0.2251 -1.5196
 5609TIP3   OH238241   5.180   0.617  14.634  0.2131  0.4330  0.0990
 5609TIP3    H138242   5.136   0.655  14.709  2.0422  0.5777  1.1543
 5609TIP3    H238243   5.163   0.524  14.640 -1.3628  0.6623 -0.5037
 5610TIP3   OH238244   5.787   0.518   4.117 -0.3629  0.0717 -0.3551
 5610TIP3    H138245   5.784   0.569   4.036 -0.1977 -1.4427 -1.3564
 5610TIP3    H238246   5.790   0.427   4.088  3.1489 -0.4900  1.2581
 5611TIP3   OH238247   2.171   6.169   4.457  0.1690 -0.3394  0.1213
 5611TIP3    H138248   2.151   6.108   4.386  2.2472  2.1777 -2.8981
 5611TIP3    H238249   2.095   6.228   4.461  0.7139  0.5003 -1.2609
 5612TIP3   OH238250   6.336   0.619  16.992  0.5754  0.1101  0.3927
 5612TIP3    H138251   6.272   0.688  16.973  1.8853  1.0780 -0.7055
 5612TIP3    H238252   6.350   0.576  16.907  1.3550 -0.0974  0.6231
 5613TIP3   OH238253   4.623   2.306   1.932 -0.0896  0.0125 -0.7204
 5613TIP3    H138254   4.674   2.365   1.876  0.4967  1.3905  1.1411
 5613TIP3    H238255   4.669   2.223   1.929  0.2631  0.2343 -1.7897
 5614TIP3   OH238256   0.341   2.818  15.746  0.5863 -0.4051 -0.5245
 5614TIP3    H138257   0.402   2.855  15.682  0.6927  1.0746  0.3898
 5614TIP3    H238258   0.387   2.823  15.829 -0.6255  0.3760  0.1195
 5615TIP3   OH238259   0.076   4.468  10.602  0.0602 -0.2807  0.4194
 5615TIP3    H138260   0.003   4.407  10.594 -0.7699  0.6836  0.4255
 5615TIP3    H238261   0.034   4.554  10.615  1.1711  0.4348 -0.5143
 5616TIP3   OH238262   3.345   3.664  14.308  0.3603  0.1060 -0.1008
 5616TIP3    H138263   3.252   3.690  14.312  0.6991  1.5345 -0.8430
 5616TIP3    H238264   3.348   3.594  14.244 -0.5015 -1.5063  1.5199
 5617TIP3   OH238265   4.273   1.196   2.127  0.1399  0.4831 -0.2143
 5617TIP3    H138266   4.363   1.171   2.148  1.1971  3.2337 -1.0448
 5617TIP3    H238267   4.238   1.121   2.079  1.2822 -1.4542  1.7936
 5618TIP3   OH238268   5.642   3.088   1.444 -0.0491  0.1176 -0.3535
 5618TIP3    H138269   5.643   3.130   1.531 -0.6165 -1.7620  0.6111
 5618TIP3    H238270   5.550   3.092   1.418  0.2709  1.5836 -1.3745
 5619TIP3   OH238271   2.756   2.150   3.375 -0.0487 -0.2916  0.3602
 5619TIP3    H138272   2.811   2.096   3.318  3.6318  2.2088  1.1783
 5619TIP3    H238273   2.695   2.193   3.315  0.8448 -0.9595 -1.0840
 5620TIP3   OH238274   5.984   3.165  10.792 -0.1450 -0.0645  0.1338
 5620TIP3    H138275   5.947   3.203  10.712 -0.1209 -1.3792 -0.5218
 5620TIP3    H238276   5.913   3.113  10.829  0.4444 -1.0847 -0.1251
 5621TIP3   OH238277   3.989   5.356   2.294 -0.8220 -0.0922 -0.1481
 5621TIP3    H138278   4.009   5.439   2.339 -0.7294 -0.3683  0.3325
 5621TIP3    H238279   3.901   5.334   2.324 -0.3286 -0.8548  0.8116
 5622TIP3   OH238280   1.679   4.467   1.258 -0.1089 -0.5082 -0.0108
 5622TIP3    H138281   1.639   4.554   1.261  1.2158  0.1365 -0.5747
 5622TIP3    H238282   1.605   4.408   1.241 -1.1131  0.4208  0.8951
 5623TIP3   OH238283   2.660   4.423  16.339 -0.0808  0.0244 -0.4704
 5623TIP3    H138284   2.709   4.472  16.272 -0.3617  1.1930  0.1597
 5623TIP3    H238285   2.568   4.441  16.319 -0.1573  1.7298  1.1561
 5624TIP3   OH238286   2.260   4.454   3.854 -0.1576  0.5687 -0.5424
 5624TIP3    H138287   2.317   4.506   3.910  1.2846 -0.4958 -0.9642
 5624TIP3    H238288   2.172   4.468   3.889  0.8028 -1.3762  3.1611
 5625TIP3   OH238289   1.968   0.347   0.392 -0.1935 -0.0681  0.1482
 5625TIP3    H138290   1.909   0.279   0.358 -1.1186 -0.2042  1.8690
 5625TIP3    H238291   1.950   0.348   0.487  2.4559  0.0120  0.7250
 5626TIP3   OH238292   0.938   5.594  13.389 -0.2273 -0.6871  0.0886
 5626TIP3    H138293   0.929   5.598  13.294 -0.1713 -0.4046  0.0951
 5626TIP3    H238294   0.970   5.506  13.406 -0.2997 -0.7596 -0.1499
 5627TIP3   OH238295   6.627   1.517   4.829 -0.0665  0.0550 -0.4363
 5627TIP3    H138296   6.566   1.513   4.902 -1.4236  1.0162 -1.4809
 5627TIP3    H238297   6.712   1.497   4.868 -1.1263 -2.2413  0.9020
 5628TIP3   OH238298   1.639   5.601  11.370 -0.2845 -0.6561  0.3097
 5628TIP3    H138299   1.544   5.598  11.364 -0.3584  1.2872 -0.3761
 5628TIP3    H238300   1.658   5.682  11.417  1.0246 -0.1724 -0.9523
 5629TIP3   OH238301   5.311   3.558   3.974  0.0564  0.5159  0.5053
 5629TIP3    H138302   5.270   3.525   4.054 -1.3584 -0.0606 -0.4286
 5629TIP3    H238303   5.264   3.514   3.903 -0.8082  3.2791 -0.7638
 5630TIP3   OH238304   2.684   4.557   5.011 -0.4224 -0.1529  0.0313
 5630TIP3    H138305   2.623   4.615   4.965  0.3167  0.3610 -0.3163
 5630TIP3    H238306   2.632   4.479   5.031 -1.1934  0.2725 -0.2532
 5631TIP3   OH238307   5.034   4.705   1.983 -0.1796 -0.4487 -0.3254
 5631TIP3    H138308   5.051   4.617   2.016  0.8639 -0.2642 -0.3360
 5631TIP3    H238309   5.068   4.704   1.893  0.5110  0.1651 -0.0838
 5632TIP3   OH238310   5.749   1.225  12.434 -0.2527  0.2028  0.3040
 5632TIP3    H138311   5.739   1.204  12.341  1.7578  1.1768 -0.1928
 5632TIP3    H238312   5.790   1.312  12.434  1.2174 -0.4390  2.0571
 5633TIP3   OH238313   3.347   5.032  15.432  0.5895  0.2965 -0.2922
 5633TIP3    H138314   3.390   5.066  15.511  1.2476 -0.8833 -0.1177
 5633TIP3    H238315   3.257   5.017  15.458  0.8695 -0.3680  0.3409
 5634TIP3   OH238316   2.537   5.078   4.333  0.2902 -0.0015 -0.0016
 5634TIP3    H138317   2.456   5.109   4.295 -0.0269 -1.1265 -0.2841
 5634TIP3    H238318   2.590   5.156   4.345 -0.3371  0.5865 -1.0079
 5635TIP3   OH238319   0.711   4.225   4.011 -0.4018 -0.5226  0.3667
 5635TIP3    H138320   0.720   4.145   3.959  0.7162 -0.6756  0.7747
 5635TIP3    H238321   0.652   4.281   3.959 -0.6422 -1.3308 -0.2442
 5636TIP3   OH238322   4.872   0.196  16.265 -0.4971 -0.3260 -0.4245
 5636TIP3    H138323   4.903   0.235  16.347 -0.9441 -2.3387  0.7869
 5636TIP3    H238324   4.786   0.160  16.287 -1.0090 -0.1611 -2.0415
 5637TIP3   OH238325   6.339   4.810   1.981 -0.0859  0.3493  0.0643
 5637TIP3    H138326   6.254   4.833   2.018 -0.0051  0.2036  0.3472
 5637TIP3    H238327   6.401   4.827   2.052  0.2093  1.1169 -0.3631
 5638TIP3   OH238328   0.753   4.275  16.511 -0.2480  0.3506 -0.2046
 5638TIP3    H138329   0.815   4.302  16.443  0.0785  0.0609 -0.0265
 5638TIP3    H238330   0.748   4.180  16.502  0.1262  0.2607  0.4492
 5639TIP3   OH238331   3.623   1.557   5.230 -0.4321 -0.4073  0.2412
 5639TIP3    H138332   3.658   1.552   5.319 -0.3376  0.0925  0.2339
 5639TIP3    H238333   3.540   1.603   5.240 -1.4333 -2.1274  0.3546
 5640TIP3   OH238334   2.590   2.724   3.813  0.0514 -0.1261  0.1264
 5640TIP3    H138335   2.651   2.769   3.756 -0.1452  0.7967  0.6307
 5640TIP3    H238336   2.636   2.715   3.897  0.1650 -1.0503 -0.0241
 5641TIP3   OH238337   6.041   6.608   3.470 -0.3213 -0.3712 -0.1368
 5641TIP3    H138338   6.042   6.585   3.377  1.8401  0.6193 -0.4145
 5641TIP3    H238339   5.972   6.675   3.477 -0.5371 -0.4865 -1.0066
 5642TIP3   OH238340   5.640   3.193  13.969 -0.3933  0.2315 -0.7275
 5642TIP3    H138341   5.675   3.271  13.925  0.8055 -0.6951 -1.4981
 5642TIP3    H238342   5.665   3.121  13.912 -1.4879 -0.7325 -0.0302
 5643TIP3   OH238343   2.923   2.555  16.137  0.2983 -0.5633  0.5863
 5643TIP3    H138344   2.886   2.474  16.103 -0.5980 -0.1601  0.5716
 5643TIP3    H238345   2.907   2.550  16.232 -0.2831 -0.1400  0.5104
 5644TIP3   OH238346   1.360   0.344   4.333 -0.0973  0.0162 -0.0990
 5644TIP3    H138347   1.302   0.415   4.358  0.3776  0.5173 -0.3929
 5644TIP3    H238348   1.437   0.387   4.296  0.5412 -0.6293  0.4343
 5645TIP3   OH238349   1.631   4.193  12.084 -0.0154  0.0999 -0.3030
 5645TIP3    H138350   1.711   4.221  12.042  0.2701 -0.2580 -0.0084
 5645TIP3    H238351   1.652   4.107  12.121 -0.8252 -0.4467 -1.0734
 5646TIP3   OH238352   0.491   5.237  11.851  0.3272 -0.5104 -0.4494
 5646TIP3    H138353   0.422   5.171  11.859 -0.4360  0.2613 -0.6112
 5646TIP3    H238354   0.480   5.272  11.763  0.9954 -0.4476 -0.5125
 5647TIP3   OH238355   3.709   4.611   1.808 -0.1261 -0.3523  0.2876
 5647TIP3    H138356   3.688   4.675   1.877 -1.8001 -0.8319  0.2860
 5647TIP3    H238357   3.792   4.641   1.772 -0.8378  1.8261  0.2876
 5648TIP3   OH238358   5.994   6.304  13.479 -0.4049  0.2635  0.6908
 5648TIP3    H138359   5.964   6.224  13.438  2.2950 -0.3595 -0.2565
 5648TIP3    H238360   6.002   6.282  13.572  0.9223 -0.8173  0.3523
 5649TIP3   OH238361   1.742   3.714  10.168  0.4363 -0.1129  0.0944
 5649TIP3    H138362   1.834   3.715  10.194  0.2297 -1.5124  0.9917
 5649TIP3    H238363   1.730   3.627  10.128 -0.3707  0.2609 -0.4965
 5650TIP3   OH238364   2.773   5.545   0.778  0.4149  0.8524 -0.3773
 5650TIP3    H138365   2.737   5.462   0.811  2.2046 -0.3983 -1.4017
 5650TIP3    H238366   2.813   5.586   0.855  1.8947 -0.5833 -0.3260
 5651TIP3   OH238367   5.748   3.090  16.349  0.5340 -1.1407 -0.1332
 5651TIP3    H138368   5.778   3.167  16.396  0.9152 -1.1224 -0.4047
 5651TIP3    H238369   5.656   3.108  16.329  1.1914  0.2770 -2.2394
 5652TIP3   OH238370   2.203   4.850  16.622 -0.0093 -0.2619  0.2775
 5652TIP3    H138371   2.283   4.803  16.646 -1.0129 -0.5642  3.4589
 5652TIP3    H238372   2.165   4.799  16.551  1.5709 -1.2717  0.1139
 5653TIP3   OH238373   0.211   5.197   5.718  0.0366  0.6943  0.0292
 5653TIP3    H138374   0.220   5.110   5.758 -0.5204  1.2704  1.4842
 5653TIP3    H238375   0.136   5.236   5.763 -1.2237  1.0655 -2.2545
 5654TIP3   OH238376   6.488   5.757  11.753  0.3569 -0.1420  0.1050
 5654TIP3    H138377   6.522   5.751  11.664  1.4283 -1.3569  0.5672
 5654TIP3    H238378   6.429   5.682  11.761 -0.4894  0.5029  0.1425
 5655TIP3   OH238379   4.162   4.745   5.181  0.3650  0.4757  0.2660
 5655TIP3    H138380   4.225   4.694   5.233 -2.3239 -1.3419  1.9929
 5655TIP3    H238381   4.172   4.835   5.213  2.1184  0.2637  0.4077
 5656TIP3   OH238382   5.570   0.910  16.603  0.4739  0.0657 -0.9546
 5656TIP3    H138383   5.486   0.893  16.560  0.1031 -1.3682  0.2105
 5656TIP3    H238384   5.551   0.980  16.666 -0.5380 -1.8410  0.9942
 5657TIP3   OH238385   3.379   4.490  15.619 -0.5552 -0.2422  0.0399
 5657TIP3    H138386   3.391   4.424  15.551  1.5021  0.0014  0.0966
 5657TIP3    H238387   3.318   4.451  15.681 -0.8440 -1.3001 -0.8837
 5658TIP3   OH238388   4.534   0.693  10.750 -0.5186 -0.7347  0.6473
 5658TIP3    H138389   4.472   0.711  10.678  1.3097  1.1589 -0.5687
 5658TIP3    H238390   4.555   0.600  10.741  0.2271 -0.4014 -1.8394
 5659TIP3   OH238391   5.602   0.850   3.967 -0.3332  0.2477  0.1513
 5659TIP3    H138392   5.509   0.871   3.962 -0.4597 -0.0990  0.9547
 5659TIP3    H238393   5.608   0.761   3.934 -0.1896  0.4994 -0.5194
 5660TIP3   OH238394   6.761   1.650   0.838  0.2211  0.1892 -1.0930
 5660TIP3    H138395   6.790   1.583   0.777  0.3385 -0.4301 -0.3679
 5660TIP3    H238396   6.837   1.706   0.850 -0.3122  1.3664 -2.8625
 5661TIP3   OH238397   2.389   1.394   0.884  0.2178  0.0975 -0.2804
 5661TIP3    H138398   2.472   1.347   0.879 -0.2389 -0.6831 -0.6138
 5661TIP3    H238399   2.414   1.482   0.913  0.9552 -0.6953  1.6812
 5662TIP3   OH238400   6.069   4.280  16.175 -0.4417  0.4237 -0.4813
 5662TIP3    H138401   6.096   4.226  16.249 -1.4187 -0.8076 -0.9820
 5662TIP3    H238402   6.060   4.368  16.211  0.9707  0.2226  0.4073
 5663TIP3   OH238403   5.873   2.652   4.395 -0.0296 -0.4810  0.4174
 5663TIP3    H138404   5.849   2.565   4.364  2.3281 -0.7905 -0.8250
 5663TIP3    H238405   5.850   2.652   4.487 -2.7117 -1.3523 -0.1635
 5664TIP3   OH238406   5.642   3.410   1.874 -0.1544  0.7226 -0.3839
 5664TIP3    H138407   5.651   3.484   1.814  2.0334  0.0580 -0.9773
 5664TIP3    H238408   5.728   3.403   1.915 -1.4403  0.9373  2.6474
 5665TIP3   OH238409   2.416   1.538  13.062 -0.2972 -0.5430 -0.8086
 5665TIP3    H138410   2.466   1.573  13.135  0.2480  0.4522 -1.6355
 5665TIP3    H238411   2.454   1.579  12.984 -0.9382 -1.4860 -1.6475
 5666TIP3   OH238412   3.753   1.645  15.418 -0.7151  0.0928  0.4841
 5666TIP3    H138413   3.700   1.568  15.439  0.2556 -1.0428 -1.0002
 5666TIP3    H238414   3.690   1.715  15.404 -1.7456 -0.8772  0.1477
 5667TIP3   OH238415   2.886   2.351  15.651  0.4424  0.1896  0.2108
 5667TIP3    H138416   2.971   2.307  15.642  0.9783  0.7253  2.1538
 5667TIP3    H238417   2.826   2.297  15.599  1.7433 -0.8394 -0.3036
 5668TIP3   OH238418   1.521   4.406  16.509  0.0674 -0.7720 -0.3106
 5668TIP3    H138419   1.461   4.476  16.484  1.5190 -0.0721 -2.0498
 5668TIP3    H238420   1.572   4.443  16.582  0.0393 -0.4416 -0.4572
 5669TIP3   OH238421   0.446   0.176  13.488  0.7285 -0.1869  0.6689
 5669TIP3    H138422   0.490   0.091  13.490  1.9578  0.4182 -0.1252
 5669TIP3    H238423   0.356   0.156  13.513  1.4780 -1.4071  2.6220
 5670TIP3   OH238424   0.224   6.802  15.753  0.3751 -0.1420  0.2431
 5670TIP3    H138425   0.206   6.886  15.795 -0.8467  0.2891 -1.0581
 5670TIP3    H238426   0.152   6.746  15.778 -0.0877 -0.0411 -0.7909
 5671TIP3   OH238427   4.392   3.487   4.023 -0.0325 -0.7139 -0.1228
 5671TIP3    H138428   4.480   3.519   4.003 -0.0609  0.3568  1.3169
 5671TIP3    H238429   4.370   3.430   3.949  0.9863  0.7264 -1.6054
 5672TIP3   OH238430   1.109   5.258   3.304 -0.0443 -0.5806  0.2284
 5672TIP3    H138431   1.153   5.185   3.261 -3.1317 -2.4064 -0.1481
 5672TIP3    H238432   1.084   5.223   3.389 -2.3864 -0.3818 -0.3187
 5673TIP3   OH238433   3.484   1.079   2.069 -0.5292 -0.1637 -0.1295
 5673TIP3    H138434   3.508   1.137   2.142 -0.8748  0.7438 -0.7213
 5673TIP3    H238435   3.428   1.012   2.110  1.2051 -1.0760  0.8641
 5674TIP3   OH238436   5.342   4.983  12.124 -0.0155 -0.5491 -0.0755
 5674TIP3    H138437   5.358   5.077  12.131  1.0925 -0.6522 -0.9085
 5674TIP3    H238438   5.399   4.955  12.053 -1.2158 -1.6485 -0.6569
 5675TIP3   OH238439   1.730   6.673  16.339 -0.4596  0.1623 -0.5680
 5675TIP3    H138440   1.687   6.662  16.254  1.4226 -1.5609 -1.3825
 5675TIP3    H238441   1.708   6.594  16.387 -0.4648  0.5508  0.0781
 5676TIP3   OH238442   6.451   0.183  11.146 -0.6798  0.4313  0.4330
 5676TIP3    H138443   6.526   0.224  11.190  0.7797 -1.0773 -0.5292
 5676TIP3    H238444   6.483   0.164  11.057 -2.1909 -0.2950  0.0166
 5677TIP3   OH238445   3.071   1.468   1.116 -0.1438 -0.1273  0.6930
 5677TIP3    H138446   3.018   1.433   1.044  0.0447 -0.7927  0.8734
 5677TIP3    H238447   3.146   1.409   1.122  0.5932  0.7513  0.4977
 5678TIP3   OH238448   5.409   0.988   3.773 -0.3720 -0.0848 -0.2140
 5678TIP3    H138449   5.350   0.939   3.716  1.0241 -1.1459 -0.8191
 5678TIP3    H238450   5.354   1.054   3.814 -1.9050 -0.8425 -0.9658
 5679TIP3   OH238451   0.116   3.033   3.809 -0.4370 -0.0191  0.3958
 5679TIP3    H138452   0.181   3.048   3.878  2.2390 -0.6134 -1.8215
 5679TIP3    H238453   0.129   3.104   3.747 -0.8611 -0.9537 -0.8184
 5680TIP3   OH238454   3.792   4.945  10.519  0.6057  0.2914  0.4899
 5680TIP3    H138455   3.844   4.937  10.439 -1.2588 -0.8296 -0.6857
 5680TIP3    H238456   3.715   4.995  10.493 -0.1668 -0.3221  1.5063
 5681TIP3   OH238457   4.619   4.610   0.484  0.3881  0.3860 -0.0241
 5681TIP3    H138458   4.589   4.687   0.533 -0.1240 -0.1253  0.4758
 5681TIP3    H238459   4.620   4.639   0.393 -2.2033  0.2732 -0.1480
 5682TIP3   OH238460   5.793   4.800   4.012  0.3400  0.3449 -0.2957
 5682TIP3    H138461   5.780   4.812   4.106 -0.4209 -0.2013 -0.3257
 5682TIP3    H238462   5.861   4.733   4.005  3.2265  2.9866 -0.1421
 5683TIP3   OH238463   3.700   3.323   5.136  1.0418 -0.6085 -0.1292
 5683TIP3    H138464   3.635   3.297   5.201  0.3617  0.6135 -0.2886
 5683TIP3    H238465   3.690   3.259   5.065 -0.1952 -0.2785 -0.2731
 5684TIP3   OH238466   0.508   6.093  16.913  0.3231 -0.1789 -0.1550
 5684TIP3    H138467   0.413   6.093  16.929  0.1779  1.3355 -0.7864
 5684TIP3    H238468   0.544   6.141  16.988  0.7250 -1.5511  0.5663
 5685TIP3   OH238469   2.400   0.799   3.250 -0.7672  0.2554 -0.1308
 5685TIP3    H138470   2.433   0.878   3.294 -0.8818 -0.5877  1.5835
 5685TIP3    H238471   2.354   0.831   3.173  0.8028  1.7163 -0.5215
 5686TIP3   OH238472   5.947   3.776  15.940  0.0636  0.1644 -0.4305
 5686TIP3    H138473   6.036   3.811  15.928 -0.7519  2.1664 -1.0928
 5686TIP3    H238474   5.904   3.840  15.997 -1.5779  0.3634 -1.8260
 5687TIP3   OH238475   6.652   3.935   3.857 -0.1074  0.6909 -0.0803
 5687TIP3    H138476   6.721   3.870   3.865  0.1435  1.0401  0.6438
 5687TIP3    H238477   6.611   3.939   3.943  1.8447  3.6444  0.8671
 5688TIP3   OH238478   1.271   1.992   3.745 -0.2219  0.1095 -0.1050
 5688TIP3    H138479   1.198   1.958   3.695  0.1990  0.6122 -1.0792
 5688TIP3    H238480   1.317   2.051   3.685  1.1683 -0.4391  0.3678
 5689TIP3   OH238481   2.304   5.562  14.114 -0.0189 -0.0796  0.4269
 5689TIP3    H138482   2.385   5.567  14.064  2.4893  1.1217  4.1457
 5689TIP3    H238483   2.315   5.485  14.170 -1.1958  0.3918  1.3598
 5690TIP3   OH238484   2.660   5.132   5.535  0.2060  1.2512  0.4280
 5690TIP3    H138485   2.700   5.152   5.620  0.0391 -1.1864  1.1509
 5690TIP3    H238486   2.570   5.108   5.556  0.6288 -1.0756 -0.1610
 5691TIP3   OH238487   4.883   6.241   4.552 -0.3551  0.2781 -0.1997
 5691TIP3    H138488   4.963   6.289   4.532  0.6602 -1.8014 -1.5734
 5691TIP3    H238489   4.821   6.269   4.485  1.0786 -2.0849 -2.7423
 5692TIP3   OH238490   0.079   1.727  12.410  0.2579  0.4564 -0.4086
 5692TIP3    H138491   0.071   1.822  12.420 -1.6843  0.1583  1.5207
 5692TIP3    H238492   0.009   1.702  12.350 -0.0457  0.1046  0.0870
 5693TIP3   OH238493   0.763   1.484  14.662  0.4206  0.6096 -0.0683
 5693TIP3    H138494   0.805   1.461  14.579 -1.4367 -1.0408 -0.6364
 5693TIP3    H238495   0.753   1.400  14.707 -0.4342  1.2263  0.9161
 5694TIP3   OH238496   5.101   6.710  11.147 -0.0336 -0.1483  0.2489
 5694TIP3    H138497   5.018   6.670  11.174 -0.4121  1.3579  1.4608
 5694TIP3    H238498   5.164   6.639  11.151 -0.3214 -0.3970  4.0362
 5695TIP3   OH238499   2.568   3.926   6.194  0.0898 -0.0585 -0.1648
 5695TIP3    H138500   2.571   3.842   6.240 -0.4193 -1.0248 -1.8338
 5695TIP3    H238501   2.653   3.966   6.213  0.6507 -1.3034  0.0507
 5696TIP3   OH238502   4.485   3.505  14.703 -0.8592 -0.0060  0.5454
 5696TIP3    H138503   4.563   3.497  14.759  0.0999  0.2025 -0.7041
 5696TIP3    H238504   4.474   3.600  14.692  0.5189 -0.0237 -1.6198
 5697TIP3   OH238505   3.664   2.857   0.527 -0.2722  0.4010 -0.1138
 5697TIP3    H138506   3.575   2.829   0.546 -0.4600  0.0894 -1.3685
 5697TIP3    H238507   3.681   2.826   0.438  1.0584  0.5371  0.0688
 5698TIP3   OH238508   4.811   1.840  13.888 -0.1768 -0.6294  0.4480
 5698TIP3    H138509   4.898   1.802  13.899 -0.2173 -0.9127 -0.1636
 5698TIP3    H238510   4.752   1.764  13.884 -0.2945 -0.4940 -0.4760
 5699TIP3   OH238511   6.154   2.228  10.676  0.3928 -0.0054 -0.0216
 5699TIP3    H138512   6.177   2.160  10.740  0.8113 -0.7963 -0.9937
 5699TIP3    H238513   6.206   2.207  10.599 -0.7257  0.4396 -0.9239
 5700TIP3   OH238514   6.382   1.754   1.171 -0.1058 -0.1333  0.6112
 5700TIP3    H138515   6.454   1.702   1.136 -0.7885  0.3431 -1.6571
 5700TIP3    H238516   6.322   1.689   1.209 -1.9032 -1.4564 -3.8600
 5701TIP3   OH238517   0.620   1.566   2.397 -0.4334  0.2587 -0.2597
 5701TIP3    H138518   0.715   1.559   2.399 -0.4533  0.0459  0.1052
 5701TIP3    H238519   0.591   1.493   2.343 -0.5020 -1.0863  1.4758
 5702TIP3   OH238520   3.442   2.653  11.040 -0.3684  0.2230 -0.6741
 5702TIP3    H138521   3.378   2.582  11.043 -0.9993  0.8193  1.0371
 5702TIP3    H238522   3.482   2.653  11.127  1.2123  0.5684 -1.3637
 5703TIP3   OH238523   0.565   1.017  16.842 -0.3466 -0.0838  0.0978
 5703TIP3    H138524   0.615   0.937  16.861 -1.1146 -0.7154 -0.4720
 5703TIP3    H238525   0.474   0.988  16.843 -0.6530  0.8830  0.2957
 5704TIP3   OH238526   2.158   4.843  13.941  0.0310 -0.1196  0.4384
 5704TIP3    H138527   2.146   4.887  13.857  0.9285 -0.8949 -0.1256
 5704TIP3    H238528   2.076   4.856  13.987 -1.1135 -1.0270 -1.2109
 5705TIP3   OH238529   3.212   0.115   4.473 -0.2148 -0.1019  0.5393
 5705TIP3    H138530   3.302   0.133   4.501  0.2576  0.0571 -1.0009
 5705TIP3    H238531   3.158   0.167   4.533  0.6547 -0.7718  1.9631
 5706TIP3   OH238532   0.059   0.754   3.955  0.0805  0.0887  0.6681
 5706TIP3    H138533   0.146   0.774   3.921 -0.1361  0.2770  0.2185
 5706TIP3    H238534   0.050   0.659   3.947  0.1059  0.1098  0.3673
 5707TIP3   OH238535   2.928   4.390  14.532 -0.0285  0.0812  0.6081
 5707TIP3    H138536   2.882   4.420  14.611  1.5576  3.3874  0.4801
 5707TIP3    H238537   2.889   4.441  14.461  0.6657 -0.5457 -0.2390
 5708TIP3   OH238538   3.269   2.982   4.180  0.1008 -0.7087  0.4656
 5708TIP3    H138539   3.196   2.977   4.242 -0.6897 -0.1021 -0.3932
 5708TIP3    H238540   3.228   3.003   4.097  1.3511  0.5454  0.1451
 5709TIP3   OH238541   4.953   4.915   2.113  1.0975  0.2632  0.1424
 5709TIP3    H138542   4.908   4.974   2.053 -0.3994 -1.9348 -0.9997
 5709TIP3    H238543   4.963   4.833   2.065  0.8131 -1.2583  2.4827
 5710TIP3   OH238544   3.969   6.603   0.926  0.1671 -0.6656 -0.5812
 5710TIP3    H138545   4.035   6.607   0.995 -0.8192 -2.3181  0.5388
 5710TIP3    H238546   3.908   6.536   0.956 -0.5076 -1.1771 -2.8993
 5711TIP3   OH238547   3.795   0.353  11.988 -0.3191 -0.1287 -0.0636
 5711TIP3    H138548   3.883   0.317  11.973 -0.1010  0.7317 -0.9936
 5711TIP3    H238549   3.744   0.324  11.912  0.2565  2.6370 -1.6414
 5712TIP3   OH238550   1.933   4.617  16.819 -0.1150  0.4715 -0.1670
 5712TIP3    H138551   2.024   4.637  16.841 -0.0184  1.7751 -1.5971
 5712TIP3    H238552   1.884   4.639  16.899  0.6001  1.8217 -0.0602
 5713TIP3   OH238553   0.229   3.042   0.213  0.0435  0.0728 -0.2272
 5713TIP3    H138554   0.278   2.976   0.263 -1.0815 -0.1886  0.5790
 5713TIP3    H238555   0.250   3.023   0.122  1.7360  0.2228  0.1024
 5714TIP3   OH238556   6.602   0.240   0.861 -0.2032 -0.2635 -0.3947
 5714TIP3    H138557   6.626   0.229   0.769  0.4636  0.0218 -0.2606
 5714TIP3    H238558   6.682   0.270   0.903 -0.7183  0.4121  0.1303
 5715TIP3   OH238559   5.767   5.927  16.188  0.2679 -0.5258  0.4159
 5715TIP3    H138560   5.712   5.852  16.166  1.4704 -1.1668 -0.5370
 5715TIP3    H238561   5.771   5.978  16.107  0.8690 -0.3589  0.5464
 5716TIP3   OH238562   6.214   4.286   0.942 -0.3608  0.1402  0.5947
 5716TIP3    H138563   6.237   4.206   0.895 -1.0788  0.1636  0.2047
 5716TIP3    H238564   6.119   4.289   0.941 -0.3451  0.9755  0.6488
 5717TIP3   OH238565   5.564   3.552   2.329  0.3150  0.1499  0.1643
 5717TIP3    H138566   5.612   3.471   2.348  0.0970  0.0040  0.0943
 5717TIP3    H238567   5.507   3.564   2.406 -0.2907 -0.2343 -0.2206
 5718TIP3   OH238568   3.568   6.446  15.238  0.0842 -0.2229  0.3211
 5718TIP3    H138569   3.661   6.431  15.258  0.6303  1.5552 -0.6109
 5718TIP3    H238570   3.540   6.368  15.191  1.2780 -0.5457  0.1226
 5719TIP3   OH238571   5.334   4.272   1.534 -0.0029  1.2129 -0.5176
 5719TIP3    H138572   5.245   4.272   1.499  0.2966 -0.7337 -1.4041
 5719TIP3    H238573   5.329   4.216   1.612  0.5769  0.3988 -1.0461
 5720TIP3   OH238574   4.871   4.544  16.702 -0.5497  0.2076 -0.6934
 5720TIP3    H138575   4.912   4.615  16.752 -1.7561 -0.2644  1.0593
 5720TIP3    H238576   4.899   4.464  16.747 -1.4097 -0.2563 -0.9560
 5721TIP3   OH238577   6.426   4.225  10.973  0.2607  0.1564 -0.4284
 5721TIP3    H138578   6.424   4.156  11.040 -0.6753 -0.3192 -0.9329
 5721TIP3    H238579   6.515   4.223  10.939  0.6375  0.1304  0.5086
 5722TIP3   OH238580   1.319   6.560  14.144  0.2592  0.1463  0.1173
 5722TIP3    H138581   1.263   6.535  14.217 -0.4401 -0.9863 -0.7644
 5722TIP3    H238582   1.380   6.624  14.181 -0.0802 -0.3829  1.6752
 5723TIP3   OH238583   1.359   4.634   0.333  0.5430 -0.0745 -0.0674
 5723TIP3    H138584   1.332   4.685   0.256 -0.3248 -0.2544  0.1008
 5723TIP3    H238585   1.402   4.698   0.390  0.3828  0.2533 -0.3094
 5724TIP3   OH238586   2.671   5.317   2.683  0.5695 -0.4642  0.1931
 5724TIP3    H138587   2.644   5.312   2.775  0.3028  0.6817  0.2002
 5724TIP3    H238588   2.741   5.382   2.682  1.1197 -1.0611 -0.3021
 5725TIP3   OH238589   6.078   4.832  11.542 -0.4990  0.4497  0.6856
 5725TIP3    H138590   6.080   4.890  11.618  1.3503  1.1069  0.1857
 5725TIP3    H238591   6.124   4.880  11.474 -1.6376 -0.3623 -0.6970
 5726TIP3   OH238592   2.950   2.718  14.999  0.1765 -0.1220  0.2419
 5726TIP3    H138593   3.007   2.688  14.928  0.4327 -0.9130  0.7641
 5726TIP3    H238594   2.897   2.641  15.021  0.7026 -0.1532  1.4754
 5727TIP3   OH238595   0.086   4.102  16.316 -0.1619 -0.2425  0.0630
 5727TIP3    H138596   0.004   4.152  16.315 -0.3564 -0.5022  1.1792
 5727TIP3    H238597   0.146   4.152  16.261 -0.9016  0.2524 -0.3059
 5728TIP3   OH238598   3.362   2.834   5.201  0.5187  0.4029 -0.0760
 5728TIP3    H138599   3.340   2.749   5.238  2.1963  0.0578  0.2016
 5728TIP3    H238600   3.409   2.814   5.120 -0.2523  1.0981 -0.7051
 5729TIP3   OH238601   3.794   6.265  12.118  0.1914  0.8556 -0.3390
 5729TIP3    H138602   3.724   6.212  12.158  0.1794  0.1669 -1.2432
 5729TIP3    H238603   3.855   6.201  12.082  0.4893  1.4636 -0.9283
 5730TIP3   OH238604   5.115   4.998  12.814  0.1111 -0.0820 -0.2022
 5730TIP3    H138605   5.038   5.034  12.769  0.9572  0.6890 -1.0759
 5730TIP3    H238606   5.119   5.047  12.896  0.2445  0.6035 -0.6089
 5731TIP3   OH238607   4.352   2.953   0.936 -0.4241 -0.2646 -0.2599
 5731TIP3    H138608   4.289   2.985   0.872 -0.1084 -0.7117 -0.8019
 5731TIP3    H238609   4.388   2.873   0.897  0.2048 -0.2165  0.2038
 5732TIP3   OH238610   4.575   1.348  13.796  0.1288  0.4502  0.1787
 5732TIP3    H138611   4.666   1.375  13.785 -0.2287  1.4156 -0.4852
 5732TIP3    H238612   4.570   1.264  13.751  0.8478  0.0629  0.7981
 5733TIP3   OH238613   4.368   2.628   3.310  0.1719  0.0490 -0.5310
 5733TIP3    H138614   4.372   2.638   3.405  0.4128 -0.6781 -0.4632
 5733TIP3    H238615   4.277   2.650   3.288  0.5996  2.2625 -0.3945
 5734TIP3   OH238616   0.712   4.253  15.574  0.3499  0.2636  0.3669
 5734TIP3    H138617   0.789   4.275  15.523  1.0592 -0.4273  1.1015
 5734TIP3    H238618   0.710   4.157  15.575 -1.2023  0.2515 -0.6271
 5735TIP3   OH238619   4.895   2.092  14.725 -0.0013  0.0572 -0.1844
 5735TIP3    H138620   4.912   2.014  14.674 -1.5154 -0.1084 -0.4746
 5735TIP3    H238621   4.904   2.164  14.663  0.0981  0.0131 -0.2214
 5736TIP3   OH238622   3.603   0.448   4.775  0.4960  0.2447 -0.7347
 5736TIP3    H138623   3.674   0.405   4.823  0.0471 -0.5877 -0.8089
 5736TIP3    H238624   3.523   0.413   4.814  0.0802  2.0441  0.1430
 5737TIP3   OH238625   1.841   0.493  12.055  0.3838 -0.3788 -0.2374
 5737TIP3    H138626   1.879   0.564  12.106 -0.0073 -1.5778  1.8634
 5737TIP3    H238627   1.747   0.505  12.064  0.3131 -0.6687 -0.5791
 5738TIP3   OH238628   5.612   4.224  11.649 -0.1298  0.1248 -0.7811
 5738TIP3    H138629   5.598   4.265  11.735  0.2161 -0.3232 -0.5098
 5738TIP3    H238630   5.569   4.284  11.587 -1.6014 -0.2587 -0.1705
 5739TIP3   OH238631   5.792   5.718  15.887 -0.2421  0.1564  0.0513
 5739TIP3    H138632   5.725   5.652  15.907 -0.8463  0.1681 -1.7252
 5739TIP3    H238633   5.764   5.755  15.803  1.3584  1.0209 -0.1310
 5740TIP3   OH238634   1.502   5.967   6.020 -0.2596 -0.1513  0.7029
 5740TIP3    H138635   1.411   5.942   6.033 -0.8366  1.5451  0.1509
 5740TIP3    H238636   1.498   6.053   5.978  1.5928  0.1205  0.9880
 5741TIP3   OH238637   4.720   4.715  12.090  0.5095 -0.2432 -0.2602
 5741TIP3    H138638   4.753   4.768  12.017 -0.4866 -1.2549 -1.4840
 5741TIP3    H238639   4.774   4.636  12.089  0.6267 -0.1711  0.2359
 5742TIP3   OH238640   5.386   0.594   1.378 -0.1298 -0.0494  0.1334
 5742TIP3    H138641   5.352   0.512   1.414  0.2374  0.3037  1.3395
 5742TIP3    H238642   5.373   0.658   1.448 -0.6973  1.0079 -0.8991
 5743TIP3   OH238643   4.698   4.072  16.476 -0.1144  0.4848  0.0406
 5743TIP3    H138644   4.671   3.980  16.478  0.2671  0.3559 -0.4013
 5743TIP3    H238645   4.781   4.071  16.428 -0.3517  1.1203 -0.4002
 5744TIP3   OH238646   4.372   5.559   1.412  0.0382 -0.1419  0.0412
 5744TIP3    H138647   4.456   5.523   1.439  0.9516 -0.1798 -2.5239
 5744TIP3    H238648   4.389   5.652   1.397 -0.2806 -0.2023 -0.7613
 5745TIP3   OH238649   0.572   2.796  14.297  0.4698  0.4227 -0.2673
 5745TIP3    H138650   0.589   2.752  14.213  0.2211 -0.6706  0.2385
 5745TIP3    H238651   0.574   2.725  14.361  3.0213  1.5122  1.0113
 5746TIP3   OH238652   6.096   3.332  12.897 -0.6874  0.2303 -0.9177
 5746TIP3    H138653   6.177   3.323  12.846 -0.9196 -1.0507 -1.0988
 5746TIP3    H238654   6.050   3.250  12.883 -0.1686 -0.7802  2.4173
 5747TIP3   OH238655   5.555   0.286  10.999  0.4088  0.3593  0.0300
 5747TIP3    H138656   5.547   0.379  10.982 -1.5449  0.3026  0.4241
 5747TIP3    H238657   5.603   0.252  10.923 -1.4007  1.2700 -1.6091
 5748TIP3   OH238658   4.422   0.070  16.150  0.2632  0.3064 -0.0174
 5748TIP3    H138659   4.340   0.055  16.103  0.0306  0.5415  0.3051
 5748TIP3    H238660   4.490   0.033  16.094 -0.1340 -0.4839  0.0146
 5749TIP3   OH238661   6.154   6.737  14.303 -0.2994  0.3089 -0.3132
 5749TIP3    H138662   6.241   6.747  14.265 -0.5444 -1.7680 -1.5736
 5749TIP3    H238663   6.146   6.809  14.365  1.9014  1.1478 -0.9301
 5750TIP3   OH238664   6.071   0.905  15.249  0.1314  0.2181 -0.1570
 5750TIP3    H138665   6.073   0.919  15.344  2.4491  0.7199 -0.2227
 5750TIP3    H238666   5.993   0.951  15.220 -0.1748  0.7598  1.4195
 5751TIP3   OH238667   5.549   4.509   0.193  0.6653 -0.0121  0.1890
 5751TIP3    H138668   5.551   4.437   0.130  1.1385 -0.7941  1.0822
 5751TIP3    H238669   5.507   4.473   0.271 -0.3217  1.0728  0.1985
 5752TIP3   OH238670   6.719   1.038   1.743 -0.2183  0.2064  0.3102
 5752TIP3    H138671   6.656   1.100   1.707  0.8559  0.1976 -1.7001
 5752TIP3    H238672   6.803   1.085   1.742  0.3302 -0.7441  0.2081
 5753TIP3   OH238673   1.506   4.145   1.912 -0.5355  0.6614  0.0304
 5753TIP3    H138674   1.493   4.124   2.005 -0.1679  0.8046  0.1168
 5753TIP3    H238675   1.460   4.228   1.900 -1.6690  0.0120 -0.2228
 5754TIP3   OH238676   4.986   2.030   3.330 -0.1696 -0.1277 -0.1538
 5754TIP3    H138677   4.953   2.120   3.329  0.1336  0.0064  0.7809
 5754TIP3    H238678   5.073   2.037   3.289  1.2022  0.6024  2.6528
 5755TIP3   OH238679   5.142   3.162   4.633 -0.7087  0.3535 -0.0500
 5755TIP3    H138680   5.130   3.081   4.683 -1.2048  0.8101  0.5998
 5755TIP3    H238681   5.089   3.149   4.554 -0.4830 -0.1027 -0.1281
 5756TIP3   OH238682   2.154   6.302   5.142  0.0384  0.1418  0.2267
 5756TIP3    H138683   2.104   6.300   5.224 -0.0344 -0.3884  0.1799
 5756TIP3    H238684   2.135   6.217   5.102 -0.3550  0.6015 -0.5952
 5757TIP3   OH238685   0.918   4.827   0.908 -0.3583 -0.0461 -0.4451
 5757TIP3    H138686   0.933   4.755   0.969  1.5622  0.3661 -0.3759
 5757TIP3    H238687   0.842   4.873   0.944 -1.3886 -1.7808 -0.2946
 5758TIP3   OH238688   6.628   4.795  16.537  0.0871  0.6598 -0.4268
 5758TIP3    H138689   6.634   4.865  16.473 -0.1700  1.7955  0.7452
 5758TIP3    H238690   6.555   4.741  16.507 -0.8596  1.8951 -0.4374
 5759TIP3   OH238691   2.807   1.279  16.999  0.1789 -0.9724 -0.2081
 5759TIP3    H138692   2.818   1.291  17.094  1.6266  1.7758 -0.6243
 5759TIP3    H238693   2.719   1.312  16.981  0.5684  0.2348 -0.0077
 5760TIP3   OH238694   4.081   2.201  16.056 -0.9248 -0.2821 -0.4129
 5760TIP3    H138695   4.074   2.162  16.143 -0.1176 -0.9168 -0.6174
 5760TIP3    H238696   4.050   2.291  16.067  1.6937  0.5606  1.1687
 5761TIP3   OH238697   2.915   3.300   5.001 -0.5348  0.0413 -0.3742
 5761TIP3    H138698   2.937   3.267   5.089  0.2182  2.2039  0.3244
 5761TIP3    H238699   2.946   3.232   4.942  3.6099  0.5765  0.8195
 5762TIP3   OH238700   4.473   2.653   1.432 -0.0345 -0.5406  0.1300
 5762TIP3    H138701   4.420   2.678   1.357  2.1754  0.3475 -1.2173
 5762TIP3    H238702   4.410   2.615   1.494 -2.1695  0.2617 -1.4310
 5763TIP3   OH238703   4.322   5.525   4.853  0.3428 -0.2437 -0.3372
 5763TIP3    H138704   4.391   5.582   4.818  0.5958 -0.0090  0.5174
 5763TIP3    H238705   4.260   5.585   4.894 -0.6922 -0.4082 -1.6093
 5764TIP3   OH238706   6.520   4.093  17.180 -0.1708  0.4088  0.1230
 5764TIP3    H138707   6.566   4.110  17.097  1.4804 -1.5965  0.5523
 5764TIP3    H238708   6.495   4.000  17.175 -0.2732  0.3219  1.7613
 5765TIP3   OH238709   6.056   3.320   4.154 -0.0869 -0.0867  0.3910
 5765TIP3    H138710   6.020   3.250   4.208  0.4096  1.1858  2.4925
 5765TIP3    H238711   5.993   3.392   4.164  0.4477  0.4539 -0.0792
 5766TIP3   OH238712   4.211   1.542   1.299  0.0700 -0.2905 -0.0142
 5766TIP3    H138713   4.228   1.583   1.214  0.5009  0.5580  0.4663
 5766TIP3    H238714   4.292   1.495   1.319  1.2891  2.1801  1.3890
 5767TIP3   OH238715   4.009   0.109  13.816  0.2784  0.0523 -0.2671
 5767TIP3    H138716   4.098   0.138  13.832 -0.0563  0.4605  0.9755
 5767TIP3    H238717   3.962   0.188  13.789 -0.3205  0.4432  1.7887
 5768TIP3   OH238718   5.127   6.348   4.659 -0.3665  0.2263 -0.4348
 5768TIP3    H138719   5.200   6.378   4.714 -0.0905  0.9112 -1.1546
 5768TIP3    H238720   5.067   6.306   4.720  0.6337 -0.3667  0.1737
 5769TIP3   OH238721   1.351   6.658  10.790 -0.1403 -0.1775  0.3452
 5769TIP3    H138722   1.442   6.636  10.806 -0.1959  0.4771  1.7340
 5769TIP3    H238723   1.306   6.637  10.872 -0.6934  2.3020  0.7497
 5770TIP3   OH238724   4.368   4.151   3.963  0.2101  0.2519 -0.3623
 5770TIP3    H138725   4.427   4.104   3.904  0.3291 -0.1257  0.0478
 5770TIP3    H238726   4.426   4.212   4.010  0.7807 -1.8076  1.8182
 5771TIP3   OH238727   3.188   6.268  13.907  0.1448 -0.0405  0.5098
 5771TIP3    H138728   3.255   6.208  13.940  2.1320  2.2274  0.9072
 5771TIP3    H238729   3.183   6.250  13.814  0.0282 -1.3922  0.7575
 5772TIP3   OH238730   5.943   1.650  13.846  0.1001 -0.6589  0.0031
 5772TIP3    H138731   5.856   1.611  13.840  0.6933 -2.1876  0.7333
 5772TIP3    H238732   5.984   1.607  13.921  1.2662  0.5017  0.0806
 5773TIP3   OH238733   1.602   6.487  14.059  0.1715 -0.1692 -0.2382
 5773TIP3    H138734   1.552   6.546  14.116  0.5815  1.0474 -1.0935
 5773TIP3    H238735   1.693   6.503  14.082  0.2562 -1.0739  0.0775
 5774TIP3   OH238736   4.930   1.327   1.592 -0.1827 -0.5280 -0.0345
 5774TIP3    H138737   4.905   1.419   1.586 -2.2832 -1.1174 -1.4322
 5774TIP3    H238738   4.896   1.299   1.677 -0.7559 -0.3326 -0.1945
 5775TIP3   OH238739   1.717   2.418  15.980  0.1022 -0.5750 -0.4899
 5775TIP3    H138740   1.669   2.411  16.062  2.9185 -4.1844  1.1248
 5775TIP3    H238741   1.649   2.424  15.913 -2.3483  0.7512  1.8955
 5776TIP3   OH238742   0.704   3.606   3.119  0.1633  0.1292 -0.0230
 5776TIP3    H138743   0.648   3.657   3.061  1.9317  3.2507  0.7959
 5776TIP3    H238744   0.778   3.579   3.064 -1.6568 -3.5722 -0.9788
 5777TIP3   OH238745   6.663   6.716  16.660  0.1458 -0.5234 -0.1837
 5777TIP3    H138746   6.596   6.785  16.659  1.2603  0.5984  0.6252
 5777TIP3    H238747   6.728   6.745  16.596  0.5920 -0.8661  0.1149
 5778TIP3   OH238748   5.134   4.672  16.137 -0.5029 -0.3102 -0.3043
 5778TIP3    H138749   5.200   4.613  16.102 -0.5858 -0.5886 -0.0073
 5778TIP3    H238750   5.068   4.678  16.068  0.1483  0.5087 -0.8729
 5779TIP3   OH238751   1.961   4.631   0.075 -0.1068  0.8304  0.2129
 5779TIP3    H138752   1.948   4.699   0.141 -2.3162 -0.5253  1.2691
 5779TIP3    H238753   1.908   4.658   0.001 -1.5373 -0.0177  0.8935
 5780TIP3   OH238754   1.888   0.507  16.183 -0.2753 -0.1190 -0.1588
 5780TIP3    H138755   1.889   0.481  16.274  0.7580  0.4560  0.0125
 5780TIP3    H238756   1.879   0.425  16.134 -0.7868 -0.4316  0.4471
 5781TIP3   OH238757   0.746   0.472  12.596  0.6418  0.2222 -0.2226
 5781TIP3    H138758   0.675   0.502  12.653 -0.4852  1.4437 -2.1262
 5781TIP3    H238759   0.747   0.535  12.524  3.0010 -0.3701 -0.8056
 5782TIP3   OH238760   3.172   6.179  12.541 -0.1819  0.3020 -0.1852
 5782TIP3    H138761   3.211   6.094  12.564  0.2576  0.0169 -1.8904
 5782TIP3    H238762   3.201   6.196  12.452 -1.9041  1.3137 -0.6004
 5783TIP3   OH238763   6.447   1.022   1.322 -0.2013 -0.3767  0.5716
 5783TIP3    H138764   6.492   0.978   1.394  2.4553  2.8636  1.1519
 5783TIP3    H238765   6.517   1.046   1.262 -1.6819  1.4866 -0.5175
 5784TIP3   OH238766   5.011   6.568  13.315 -0.4244  0.1959 -0.2905
 5784TIP3    H138767   5.035   6.652  13.276 -2.1970  1.8507  1.8881
 5784TIP3    H238768   4.940   6.536  13.261 -0.9189  1.0179 -0.1514
 5785TIP3   OH238769   6.273   2.331  11.642  0.2641  0.2479  0.0608
 5785TIP3    H138770   6.251   2.258  11.583 -2.0113 -0.3183  1.5120
 5785TIP3    H238771   6.295   2.289  11.725 -2.4096  1.1554  1.3319
 5786TIP3   OH238772   3.250   5.381  10.793  0.1955  0.1120 -0.5627
 5786TIP3    H138773   3.185   5.451  10.793  1.1474  1.0111 -0.6138
 5786TIP3    H238774   3.215   5.317  10.731 -1.5789 -0.3381  0.8310
 5787TIP3   OH238775   1.725   6.428   0.864 -0.3181  0.2455 -0.3268
 5787TIP3    H138776   1.645   6.382   0.839 -0.1596  0.3899 -1.1084
 5787TIP3    H238777   1.781   6.423   0.787  1.7663 -2.6620  1.1476
 5788TIP3   OH238778   3.396   0.488  11.363 -0.3547  0.4276 -0.0683
 5788TIP3    H138779   3.335   0.447  11.303  0.5219 -0.2124 -0.5464
 5788TIP3    H238780   3.363   0.577  11.374 -1.2467  0.1594 -0.4723
 5789TIP3   OH238781   5.885   3.821   3.046 -1.0101 -0.0639  0.2142
 5789TIP3    H138782   5.957   3.863   2.998 -0.7992  0.8445  1.2848
 5789TIP3    H238783   5.871   3.878   3.122 -1.4431 -1.3795  1.1453
 5790TIP3   OH238784   3.112   1.311  17.137  0.3803  0.1407  0.0961
 5790TIP3    H138785   3.197   1.295  17.095 -0.6716 -0.3760 -1.9520
 5790TIP3    H238786   3.121   1.398  17.175  0.5955  1.8918 -3.5514
 5791TIP3   OH238787   0.662   0.435  11.154  0.3928 -0.6024 -0.2374
 5791TIP3    H138788   0.591   0.499  11.149 -1.4291 -2.6038 -2.7057
 5791TIP3    H238789   0.656   0.399  11.242 -0.4031  0.5860  0.2181
 5792TIP3   OH238790   0.234   0.065  16.830  0.2155  0.5092 -0.5344
 5792TIP3    H138791   0.144   0.081  16.858  0.8906  1.0305  1.5112
 5792TIP3    H238792   0.244  -0.030  16.834 -0.3535  0.4118 -1.1957
 5793TIP3   OH238793   3.076   1.259  13.962  0.2502 -0.1836  0.1487
 5793TIP3    H138794   3.120   1.234  14.043 -1.0082 -0.4997  0.7527
 5793TIP3    H238795   3.015   1.188  13.944 -0.4899  0.5420 -0.3014
 5794TIP3   OH238796   6.298   3.975  13.125 -0.3976  0.1440 -0.0934
 5794TIP3    H138797   6.310   4.018  13.210 -1.3666  0.8927 -0.3164
 5794TIP3    H238798   6.232   4.029  13.080  0.6033  0.1670 -1.5978
 5795TIP3   OH238799   0.014   6.706   1.067  0.2688 -0.1601  0.3894
 5795TIP3    H138800   0.005   6.622   1.111  2.0425 -0.5919 -0.0133
 5795TIP3    H238801  -0.037   6.697   0.986 -3.0203  0.6384  2.1887
 5796TIP3   OH238802   5.009   3.300   4.274  0.9111  0.3741 -0.3253
 5796TIP3    H138803   4.966   3.266   4.352  0.4922 -0.8249 -1.0441
 5796TIP3    H238804   4.973   3.247   4.202  2.3087  0.5161 -1.1638
 5797TIP3   OH238805   3.396   3.108   0.624 -0.1741 -0.3513  0.2504
 5797TIP3    H138806   3.359   3.166   0.691 -1.7659 -1.6879  0.6019
 5797TIP3    H238807   3.321   3.084   0.570  1.0384  0.5659 -1.9631
 5798TIP3   OH238808   4.385   5.002  16.452  0.2628 -0.3869  0.0625
 5798TIP3    H138809   4.305   4.954  16.473  0.0046  0.5664  1.3437
 5798TIP3    H238810   4.456   4.945  16.482 -0.0571  0.2455  2.2258
 5799TIP3   OH238811   5.430   4.553   1.086  0.2980 -0.4275  0.3671
 5799TIP3    H138812   5.437   4.495   1.162 -1.0807 -1.0408  0.0505
 5799TIP3    H238813   5.345   4.532   1.047 -0.2423  1.8121  0.2176
 5800TIP3   OH238814   4.857   5.644  12.644 -0.4205  0.0894  0.2143
 5800TIP3    H138815   4.776   5.596  12.661  1.2731 -3.5081 -0.9354
 5800TIP3    H238816   4.842   5.687  12.560 -1.3284  0.0143  0.3259
 5801TIP3   OH238817   2.641   3.704   2.439 -0.0722  0.0562  0.6158
 5801TIP3    H138818   2.687   3.741   2.514 -3.1364  0.7926  2.3026
 5801TIP3    H238819   2.629   3.779   2.380 -0.5177  0.2608  0.9566
 5802TIP3   OH238820   2.538   3.436   2.465  0.1043  0.0331  0.4232
 5802TIP3    H138821   2.594   3.361   2.480 -1.5228 -0.9416  2.1903
 5802TIP3    H238822   2.597   3.511   2.461  1.7621 -1.2989 -1.4131
 5803TIP3   OH238823   3.094   2.955  13.369 -0.5068  0.2390 -0.1964
 5803TIP3    H138824   3.171   3.011  13.378 -1.9731  2.6179 -1.3004
 5803TIP3    H238825   3.070   2.932  13.459  0.0442  1.6081  0.3245
 5804TIP3   OH238826   0.953   2.831  11.522 -0.1313 -0.2713 -0.3405
 5804TIP3    H138827   0.895   2.855  11.594 -1.4446  0.0220 -1.4615
 5804TIP3    H238828   0.946   2.736  11.516  2.0063 -0.6543  1.5327
 5805TIP3   OH238829   1.297   3.445  10.191 -0.1051 -0.4195 -0.2395
 5805TIP3    H138830   1.278   3.532  10.158 -0.1368 -0.8548 -1.4139
 5805TIP3    H238831   1.211   3.406  10.207 -0.1264  0.5279  2.5193
 5806TIP3   OH238832   4.208   5.821  11.506  0.0209  0.0895  0.2800
 5806TIP3    H138833   4.193   5.911  11.534  0.6447  0.2338  0.1605
 5806TIP3    H238834   4.297   5.821  11.470 -0.9917  0.1139 -2.4694
 5807TIP3   OH238835   3.707   5.407   5.054  0.2467  0.2653 -0.2321
 5807TIP3    H138836   3.676   5.494   5.029 -0.5879  0.3502  1.0368
 5807TIP3    H238837   3.736   5.417   5.145  0.2858 -0.7452 -0.1246
 5808TIP3   OH238838   4.717   5.642   1.169 -0.0541  0.3439  0.0657
 5808TIP3    H138839   4.716   5.549   1.189 -2.7337  0.3903  0.6287
 5808TIP3    H238840   4.638   5.655   1.116  0.4045  2.2544 -0.2250
 5809TIP3   OH238841   2.640   6.173  16.911 -0.1872  0.0900 -0.0916
 5809TIP3    H138842   2.643   6.205  16.821  0.2335 -0.1802 -0.1747
 5809TIP3    H238843   2.726   6.132  16.925  0.3810  1.5612  0.9634
 5810TIP3   OH238844   6.259   3.960   2.185 -0.1210  0.8151 -0.2618
 5810TIP3    H138845   6.270   3.865   2.184  2.1373  0.9931 -2.7010
 5810TIP3    H238846   6.182   3.974   2.241 -1.4949 -2.5272 -1.0297
 5811TIP3   OH238847   5.825   1.064  13.796  0.4518 -0.1305  0.4381
 5811TIP3    H138848   5.845   1.154  13.821 -0.7160  0.7314 -1.4855
 5811TIP3    H238849   5.791   1.023  13.876 -0.8629  1.7331  0.8867
 5812TIP3   OH238850   3.139   1.387   0.836 -0.0211  0.3203 -0.4030
 5812TIP3    H138851   3.200   1.441   0.785  0.6528 -0.3124 -0.2773
 5812TIP3    H238852   3.193   1.346   0.903  0.2019 -3.1347 -2.4507
 5813TIP3   OH238853   3.256   1.571  14.986 -0.5246 -0.0280 -0.6371
 5813TIP3    H138854   3.241   1.640  15.050 -1.4747 -2.1211  1.5300
 5813TIP3    H238855   3.346   1.585  14.957 -0.0672  0.9979  1.1433
 5814TIP3   OH238856   5.686   2.118  13.605  0.4709 -0.4434 -0.5137
 5814TIP3    H138857   5.771   2.161  13.599  0.0774  0.3116 -0.7654
 5814TIP3    H238858   5.700   2.046  13.667  0.7086  1.1338  1.3557
 5815TIP3   OH238859   4.716   6.223  11.106 -0.0157 -0.3672  0.1568
 5815TIP3    H138860   4.676   6.193  11.188  0.5362 -1.1348  0.1571
 5815TIP3    H238861   4.701   6.151  11.045 -1.3368  0.6147 -0.7478
 5816TIP3   OH238862   1.359   3.574  15.104  0.2809  0.1200  0.4988
 5816TIP3    H138863   1.272   3.549  15.133 -0.0109  0.1511 -0.3472
 5816TIP3    H238864   1.363   3.549  15.012  1.1717  0.0972  0.5303
 5817TIP3   OH238865   1.607   6.459  11.562  0.1414  0.1894  0.2514
 5817TIP3    H138866   1.639   6.547  11.543  0.6362  0.3827  1.8092
 5817TIP3    H238867   1.579   6.463  11.654 -0.1392 -1.1848  0.2464
 5818TIP3   OH238868   4.203   1.258  14.380  0.7050 -0.7279  0.1015
 5818TIP3    H138869   4.210   1.317  14.455 -0.4598 -1.9013  1.1944
 5818TIP3    H238870   4.186   1.172  14.419 -0.8762 -1.2118 -1.5373
 5819TIP3   OH238871   0.214   1.706  11.646  0.0372  0.3892 -0.9532
 5819TIP3    H138872   0.272   1.782  11.650  2.0543 -1.0876 -0.1867
 5819TIP3    H238873   0.235   1.665  11.562 -1.6568  1.0924 -1.7586
 5820TIP3   OH238874   6.246   3.562   1.466 -0.4240 -0.4383  0.5568
 5820TIP3    H138875   6.260   3.656   1.454 -1.5959 -0.4811 -1.6765
 5820TIP3    H238876   6.251   3.526   1.377  3.3923 -3.0706  1.6091
 5821TIP3   OH238877   1.880   4.998  13.857 -0.2394 -0.2769  0.1791
 5821TIP3    H138878   1.861   4.944  13.780 -1.5783  1.3411 -0.7014
 5821TIP3    H238879   1.796   5.005  13.902  0.3800 -0.6235  1.4275
 5822TIP3   OH238880   1.211   2.932   0.899 -0.2020  0.3850  0.2536
 5822TIP3    H138881   1.284   2.889   0.944 -0.4196  1.5160  1.7437
 5822TIP3    H238882   1.133   2.899   0.942 -0.4963  0.3043 -0.3392
 5823TIP3   OH238883   0.934   5.622   4.282 -0.9244 -0.5913 -0.2455
 5823TIP3    H138884   0.878   5.577   4.219 -0.2810  0.6147 -1.7685
 5823TIP3    H238885   0.999   5.557   4.308 -0.4249 -0.7883 -1.8646
 5824TIP3   OH238886   5.075   4.312  13.323 -0.1407  0.2431 -0.6818
 5824TIP3    H138887   4.997   4.324  13.377  0.5143 -0.0136  0.3496
 5824TIP3    H238888   5.080   4.391  13.270  0.3636  1.5186  1.1711
 5825TIP3   OH238889   2.022   3.857  16.486 -0.3452  0.0749 -0.8536
 5825TIP3    H138890   1.936   3.900  16.483 -1.0125 -1.1440 -0.1888
 5825TIP3    H238891   2.045   3.857  16.579 -0.0116 -0.3355 -0.9369
 5826TIP3   OH238892   4.652   0.633  16.980  0.3731 -0.1935 -0.1061
 5826TIP3    H138893   4.659   0.708  16.921 -0.0066 -1.2503 -1.5737
 5826TIP3    H238894   4.741   0.596  16.982  0.6690  0.5369  0.9895
 5827TIP3   OH238895   5.927   3.036   5.263 -0.3862 -0.3026  0.0231
 5827TIP3    H138896   5.953   3.017   5.173  1.6735  2.1888 -0.0354
 5827TIP3    H238897   5.988   2.985   5.317  2.6089  2.7718 -0.1273
 5828TIP3   OH238898   3.907   1.909  15.952 -0.4258  0.4534  0.3168
 5828TIP3    H138899   3.971   1.884  15.886 -0.8082 -0.0527  0.1318
 5828TIP3    H238900   3.906   1.836  16.014  0.6877  1.3784  1.4650
 5829TIP3   OH238901   2.044   2.175   0.122 -0.0973  0.5507  0.0231
 5829TIP3    H138902   1.973   2.167   0.186  1.3476 -0.9186  1.5515
 5829TIP3    H238903   2.088   2.257   0.146 -1.2146  1.4558 -0.9170
 5830TIP3   OH238904   1.451   2.848  14.048 -0.3702 -0.3612 -0.5674
 5830TIP3    H138905   1.510   2.852  13.972  0.6729 -2.3193  0.0586
 5830TIP3    H238906   1.383   2.912  14.028  1.7433  1.7757 -1.4971
 5831TIP3   OH238907   4.682   1.528   4.742  0.2544 -0.2390  0.1294
 5831TIP3    H138908   4.596   1.528   4.700  0.0929  0.3844  0.4462
 5831TIP3    H238909   4.700   1.620   4.760  1.0108 -0.3617  0.0303
 5832TIP3   OH238910   3.615   2.645  11.241  0.0656  0.2855  0.5125
 5832TIP3    H138911   3.683   2.654  11.174  0.0329 -1.5922  0.1679
 5832TIP3    H238912   3.664   2.635  11.323  0.2928 -1.8975  0.1629
 5833TIP3   OH238913   5.746   3.555  12.662  0.0761 -0.4513 -0.4588
 5833TIP3    H138914   5.815   3.549  12.728  1.0183  2.1627 -1.0823
 5833TIP3    H238915   5.779   3.502  12.589  0.8397 -0.2576 -0.2633
 5834TIP3   OH238916   3.480   3.411  12.878 -0.2020 -0.1653  0.1787
 5834TIP3    H138917   3.521   3.324  12.877 -1.3714 -0.7344 -1.3100
 5834TIP3    H238918   3.422   3.409  12.953  1.3378  0.1256  1.4305
 5835TIP3   OH238919   2.491   0.714  15.664 -0.1701 -0.1569  0.4378
 5835TIP3    H138920   2.429   0.739  15.596 -0.2766 -1.7028 -0.0799
 5835TIP3    H238921   2.515   0.624  15.643  0.1394 -0.5345  2.1931
 5836TIP3   OH238922   1.168   5.594   5.416 -0.0860 -0.4850 -0.0171
 5836TIP3    H138923   1.145   5.507   5.447 -1.8077  0.3162  1.1348
 5836TIP3    H238924   1.170   5.648   5.495 -0.6186  0.8216 -0.8663
 5837TIP3   OH238925   2.872   5.762  10.503 -0.4990  0.3930 -0.2637
 5837TIP3    H138926   2.842   5.736  10.590 -0.5759 -2.0123 -0.9349
 5837TIP3    H238927   2.792   5.774  10.452 -0.4349  0.2133 -0.4099
 5838TIP3   OH238928   0.039   1.377   5.305 -0.6319 -0.2874 -0.4968
 5838TIP3    H138929   0.022   1.301   5.360 -0.7801  0.2153  0.1590
 5838TIP3    H238930  -0.030   1.374   5.238  0.6217 -1.9371 -1.8176
 5839TIP3   OH238931   1.528   4.492  11.888  0.0508  0.5011 -0.4604
 5839TIP3    H138932   1.596   4.430  11.862  0.1325  0.3605  0.0695
 5839TIP3    H238933   1.571   4.578  11.886  0.6228  0.2714  1.1364
 5840TIP3   OH238934   3.462   0.779   1.111  0.5588  0.1925  0.1028
 5840TIP3    H138935   3.413   0.728   1.046 -2.2429  1.1134  1.2994
 5840TIP3    H238936   3.459   0.726   1.191  1.6025  0.2485  0.1860
 5841TIP3   OH238937   0.069   1.381   0.970 -0.1626  0.3235 -0.0538
 5841TIP3    H138938   0.147   1.421   0.932 -0.1163  0.3433  0.0620
 5841TIP3    H238939   0.095   1.355   1.058 -0.2288  0.1530 -0.0819
 5842TIP3   OH238940   2.460   2.203   1.096  0.6660  0.0318 -0.3799
 5842TIP3    H138941   2.514   2.271   1.137 -0.1244  1.3570 -1.4742
 5842TIP3    H238942   2.507   2.181   1.016  1.1804 -1.1117  0.2156
 5843TIP3   OH238943   1.185   5.307  11.129 -0.0683 -0.0392  0.4399
 5843TIP3    H138944   1.260   5.365  11.140  0.2328 -0.2685 -0.3687
 5843TIP3    H238945   1.219   5.219  11.142 -0.4257 -0.0834  1.1605
 5844TIP3   OH238946   3.587   2.100  11.937  0.1944 -0.1205  0.2235
 5844TIP3    H138947   3.645   2.149  11.879 -1.0293  0.7207 -0.3218
 5844TIP3    H238948   3.499   2.119  11.905 -0.3803 -1.7479  0.7342
 5845TIP3   OH238949   1.129   3.062   1.790  0.4136 -0.1979 -0.6948
 5845TIP3    H138950   1.106   3.004   1.862  0.2609 -0.4114 -0.9159
 5845TIP3    H238951   1.107   3.150   1.822  0.6328 -0.2613 -0.3678
 5846TIP3   OH238952   2.593   1.995  12.811  0.3524  0.0016 -0.0425
 5846TIP3    H138953   2.574   1.928  12.876  2.1116  0.2963  0.8440
 5846TIP3    H238954   2.687   2.012  12.821  0.4293  0.9059 -1.8605
 5847TIP3   OH238955   5.805   5.626  15.523 -0.2155  0.3250 -0.6528
 5847TIP3    H138956   5.797   5.544  15.573  1.5990 -1.0644 -2.4422
 5847TIP3    H238957   5.866   5.679  15.575 -2.0337  0.9424  0.9322
 5848TIP3   OH238958   3.006   2.397  10.841  0.0924  0.0648 -0.2788
 5848TIP3    H138959   2.982   2.308  10.816 -1.8253  0.8226 -1.3804
 5848TIP3    H238960   3.050   2.433  10.764  1.6914 -0.1641  0.4794
 5849TIP3   OH238961   5.260   0.125  11.495  0.0500 -0.2104 -0.7458
 5849TIP3    H138962   5.238   0.216  11.478 -0.2048  0.0054  0.6185
 5849TIP3    H238963   5.283   0.089  11.410 -2.4638  0.4011 -1.7423
 5850TIP3   OH238964   2.853   2.979   2.785 -0.1210  0.0198 -0.2277
 5850TIP3    H138965   2.764   2.988   2.749 -0.5310  0.3037  0.8137
 5850TIP3    H238966   2.910   3.003   2.712 -0.7611 -2.6033 -1.7372
 5851TIP3   OH238967   5.883   4.451   1.683  0.2224  0.1296 -0.1724
 5851TIP3    H138968   5.920   4.368   1.653  1.5962  0.0210  1.6554
 5851TIP3    H238969   5.948   4.517   1.659  0.0902  0.3856  0.1505
 5852TIP3   OH238970   1.998   5.338  15.554 -0.0622  0.1293 -0.0337
 5852TIP3    H138971   2.002   5.424  15.597 -0.9106 -0.3980  1.1460
 5852TIP3    H238972   1.985   5.276  15.626  0.6419 -1.0146 -0.8563
 5853TIP3   OH238973   6.012   4.395  14.347 -0.6671  0.4383 -0.0394
 5853TIP3    H138974   5.941   4.345  14.306  0.2321 -1.2917  0.4301
 5853TIP3    H238975   6.047   4.337  14.414  2.4592  0.3898 -1.5216
 5854TIP3   OH238976   2.679   0.241  15.425  0.0007  0.2582  0.2370
 5854TIP3    H138977   2.720   0.166  15.470  0.3448  0.6187  0.5357
 5854TIP3    H238978   2.662   0.209  15.337 -0.8838 -0.5380  0.6707
 5855TIP3   OH238979   2.495   6.760  13.713  0.5086  0.8705 -0.4935
 5855TIP3    H138980   2.504   6.674  13.671  0.6605  0.2153  0.8551
 5855TIP3    H238981   2.401   6.779  13.708  0.5246  0.8167 -1.1328
 5856TIP3   OH238982   2.433   5.577   0.899 -0.1960 -0.4843  0.3111
 5856TIP3    H138983   2.443   5.486   0.872  1.2666 -0.4210  0.5281
 5856TIP3    H238984   2.443   5.628   0.818  0.9391 -0.4488  0.4521
 5857TIP3   OH238985   4.097   4.345  14.136  0.8252 -0.0884  0.0137
 5857TIP3    H138986   4.157   4.279  14.171  1.0264  0.5949  0.9801
 5857TIP3    H238987   4.115   4.424  14.186 -0.8775  0.1392  0.3349
 5858TIP3   OH238988   6.018   2.418   2.535 -0.1366 -0.5653  0.3497
 5858TIP3    H138989   6.037   2.477   2.462 -0.2684  0.1269  0.8656
 5858TIP3    H238990   5.928   2.440   2.560  0.0333 -0.5433  0.9546
 5859TIP3   OH238991   1.392   6.147  15.842  0.5416  0.1884 -0.7926
 5859TIP3    H138992   1.463   6.083  15.847  0.3034 -0.0303 -0.1315
 5859TIP3    H238993   1.437   6.232  15.836  0.9060  0.1788  1.1357
 5860TIP3   OH238994   1.711   5.604  15.057 -0.0622 -0.1272  0.6938
 5860TIP3    H138995   1.642   5.663  15.089  0.3038  0.9180 -0.4051
 5860TIP3    H238996   1.763   5.585  15.135 -0.9624 -0.0741  1.3276
 5861TIP3   OH238997   0.857   0.175  15.097 -0.0090  0.7181  0.0924
 5861TIP3    H138998   0.916   0.225  15.041  0.4519  1.4747  1.2274
 5861TIP3    H238999   0.796   0.239  15.132 -1.6101 -0.0789 -1.1630
 5862TIP3   OH239000   6.762   4.070  13.600 -0.0732 -0.1324  0.0227
 5862TIP3    H139001   6.768   4.120  13.519  0.3724 -0.5951 -0.2379
 5862TIP3    H239002   6.845   4.022  13.605 -0.4998 -0.8694  0.2446
 5863TIP3   OH239003   2.045   0.879  11.857  0.4366  0.4463  0.4701
 5863TIP3    H139004   2.135   0.906  11.874  0.8016 -0.8121  0.6237
 5863TIP3    H239005   2.000   0.891  11.941  1.2559 -1.9077  1.3314
 5864TIP3   OH239006   5.119   5.962   3.499  0.0995  0.3880  0.1448
 5864TIP3    H139007   5.068   5.948   3.579  0.3780 -0.0073  0.2587
 5864TIP3    H239008   5.054   5.969   3.429 -0.0877 -1.5434  0.0690
 5865TIP3   OH239009   2.847   1.202   4.957 -0.4551 -0.1272  0.3477
 5865TIP3    H139010   2.793   1.184   4.880 -0.4187 -0.8430  0.4835
 5865TIP3    H239011   2.810   1.282   4.994 -1.0927 -0.3235  0.1467
 5866TIP3   OH239012   0.536   0.878  12.203  0.0499  0.0062  0.3886
 5866TIP3    H139013   0.447   0.858  12.230 -0.0224 -0.3229 -0.0781
 5866TIP3    H239014   0.589   0.808  12.242 -0.0590 -0.4887 -0.3362
 5867TIP3   OH239015   6.376   4.601  12.545 -0.0089  0.4338  0.3921
 5867TIP3    H139016   6.387   4.580  12.452  1.3743  0.2403  0.5801
 5867TIP3    H239017   6.283   4.584  12.562 -0.0256 -0.6824 -0.6616
 5868TIP3   OH239018   0.258   1.660   2.724 -0.0577 -0.1687  0.2438
 5868TIP3    H139019   0.347   1.631   2.706  0.3800  0.4605  1.3128
 5868TIP3    H239020   0.206   1.579   2.722  0.3778 -0.4496 -1.1408
 5869TIP3   OH239021   5.120   3.612  13.491 -0.0728  0.0998 -0.4314
 5869TIP3    H139022   5.031   3.643  13.474 -0.3252  0.1057  0.8172
 5869TIP3    H239023   5.154   3.587  13.404 -0.6506  1.7483 -1.1677
 5870TIP3   OH239024   2.336   3.820  11.344 -0.3478  0.0568  0.4699
 5870TIP3    H139025   2.273   3.869  11.396  0.2477  1.7371 -0.3360
 5870TIP3    H239026   2.284   3.750  11.305 -0.9244 -0.9321  2.8021
 5871TIP3   OH239027   5.439   3.174  14.160  1.1677 -0.6483  0.1048
 5871TIP3    H139028   5.509   3.155  14.098  0.4561 -0.4585 -0.7776
 5871TIP3    H239029   5.361   3.133  14.122  0.0729  1.9396 -0.6795
 5872TIP3   OH239030   1.028   0.631  15.260 -0.5382 -0.2613 -0.5726
 5872TIP3    H139031   0.999   0.680  15.183  2.0856  0.1655 -1.4207
 5872TIP3    H239032   1.067   0.551  15.224 -3.5289 -2.4547  0.7058
 5873TIP3   OH239033   3.563   0.883  13.996  0.1196  0.1467  0.1870
 5873TIP3    H139034   3.498   0.927  14.051  1.0325  1.1547  0.4774
 5873TIP3    H239035   3.512   0.850  13.922 -0.8149  0.4336  0.6790
 5874TIP3   OH239036   3.988   0.849  14.434 -0.0370  0.4101  0.2575
 5874TIP3    H139037   4.074   0.890  14.443  0.9604 -1.5006  0.1192
 5874TIP3    H239038   4.008   0.756  14.417 -2.1299 -0.2182  0.9170
 5875TIP3   OH239039   4.081   3.328   2.893 -0.4181 -0.0806  0.2274
 5875TIP3    H139040   4.001   3.377   2.912 -0.0652 -0.1371  2.0524
 5875TIP3    H239041   4.083   3.260   2.961  0.5532 -0.8330 -0.5432
 5876TIP3   OH239042   2.860   6.703  14.259 -0.7865  0.3418  0.3874
 5876TIP3    H139043   2.940   6.668  14.298 -0.8213 -1.1741 -0.8168
 5876TIP3    H239044   2.844   6.648  14.183 -4.0050 -0.6370  1.5948
 5877TIP3   OH239045   2.021   5.137   0.182  0.2431 -0.1591 -0.2904
 5877TIP3    H139046   2.109   5.173   0.171  0.4598 -0.3264  0.7832
 5877TIP3    H239047   2.034   5.059   0.235 -0.5267 -0.3393 -0.3595
 5878TIP3   OH239048   2.928   2.655  14.713 -0.1804  0.0319 -0.3884
 5878TIP3    H139049   3.023   2.639  14.711  0.1752  1.4308  1.9679
 5878TIP3    H239050   2.917   2.741  14.674 -0.3074  0.4492  0.5481
 5879TIP3   OH239051   3.353   2.619   1.582 -0.3237 -0.1771 -0.0845
 5879TIP3    H139052   3.309   2.558   1.523 -1.5869  0.0149  0.6212
 5879TIP3    H239053   3.378   2.693   1.527 -1.3832 -0.0489 -0.4205
 5880TIP3   OH239054   4.719   2.128  14.414  0.0586 -0.1389  0.7749
 5880TIP3    H139055   4.733   2.216  14.380  0.1460 -0.1420  0.8019
 5880TIP3    H239056   4.643   2.136  14.472 -0.7364 -0.3340 -0.1985
 5881TIP3   OH239057   0.105   0.284  14.513 -0.1261 -0.1367  0.8335
 5881TIP3    H139058   0.026   0.236  14.539 -0.8706 -0.0210 -1.0848
 5881TIP3    H239059   0.115   0.265  14.420  1.7827  0.3583  0.8994
 5882TIP3   OH239060   0.074   2.290  11.012  0.0669 -0.0440 -0.7244
 5882TIP3    H139061   0.167   2.313  11.003  0.5281 -1.1909  0.6922
 5882TIP3    H239062   0.029   2.374  11.010  1.4827  0.9217  2.0203
 5883TIP3   OH239063   5.252   3.148  16.112  0.0573  0.6971  0.4417
 5883TIP3    H139064   5.224   3.099  16.034  0.0607 -0.6584  1.2691
 5883TIP3    H239065   5.171   3.184  16.148 -0.3688 -1.2121  1.4838
 5884TIP3   OH239066   1.968   5.019   0.625 -0.2566 -0.0574  0.0112
 5884TIP3    H139067   2.016   5.031   0.707 -0.9889 -0.1509  0.4627
 5884TIP3    H239068   2.005   4.940   0.586  0.4624  0.2817 -0.0238
 5885TIP3   OH239069   4.154   5.483  13.880  0.8640 -0.3247  0.5605
 5885TIP3    H139070   4.127   5.393  13.898 -2.6190  0.4629  0.1410
 5885TIP3    H239071   4.133   5.531  13.961  0.5049  0.4603  0.0205
 5886TIP3   OH239072   6.768   2.934   3.254 -0.0124  0.0750  0.2945
 5886TIP3    H139073   6.817   2.973   3.182 -1.1787 -0.1818 -0.6704
 5886TIP3    H239074   6.741   3.008   3.309  0.2995  0.3412  0.0862
 5887TIP3   OH239075   0.649   3.521  15.254  0.1602 -0.1424 -0.1344
 5887TIP3    H139076   0.664   3.588  15.188  0.5757 -0.2147 -0.1191
 5887TIP3    H239077   0.737   3.491  15.278  0.0302  0.1504  0.7306
 5888TIP3   OH239078   0.462   4.531   1.082 -0.0196  0.4207  0.3097
 5888TIP3    H139079   0.384   4.531   1.025 -0.0285 -0.1161  0.3206
 5888TIP3    H239080   0.519   4.598   1.044 -0.6912  1.1697  0.5874
 5889TIP3   OH239081   4.052   3.262  15.710  0.3080 -0.3104  0.9379
 5889TIP3    H139082   3.967   3.303  15.723 -0.1768 -1.4417  1.4517
 5889TIP3    H239083   4.107   3.301  15.779  0.3703  0.8123  0.2733
 5890TIP3   OH239084   2.350   6.794  14.500 -0.3049 -0.2728 -0.0458
 5890TIP3    H139085   2.412   6.866  14.503 -0.2924 -0.3073  0.6250
 5890TIP3    H239086   2.404   6.715  14.503 -0.3831 -0.3038  0.8558
 5891TIP3   OH239087   5.548   2.935  12.499  0.4086 -0.2091 -0.7802
 5891TIP3    H139088   5.505   2.853  12.522 -0.9481  0.8558  0.7139
 5891TIP3    H239089   5.491   2.975  12.434 -0.1189  0.5068  0.0885
 5892TIP3   OH239090   2.405   3.404  11.577  0.6976 -0.2050 -0.0600
 5892TIP3    H139091   2.381   3.311  11.573  2.5302 -0.6819 -1.1596
 5892TIP3    H239092   2.353   3.445  11.507  0.3036 -0.5056  0.0540
 5893TIP3   OH239093   2.201   2.638   4.260 -0.1352  0.1485 -0.2757
 5893TIP3    H139094   2.244   2.720   4.235 -0.4309  0.5267  0.4283
 5893TIP3    H239095   2.128   2.629   4.199 -1.7988  1.8590  1.3317
 5894TIP3   OH239096   5.259   4.868  11.446  0.4675  0.1571 -0.0938
 5894TIP3    H139097   5.353   4.884  11.449  0.6182 -0.5126 -0.9688
 5894TIP3    H239098   5.229   4.915  11.368  0.5014 -1.5950 -1.2296
 5895TIP3   OH239099   0.467   2.549   6.078 -0.1840  0.5452  0.6102
 5895TIP3    H139100   0.555   2.584   6.062  0.8545 -2.8333 -2.4337
 5895TIP3    H239101   0.408   2.623   6.061  1.9288  1.9808 -1.0558
 5896TIP3   OH239102   1.280   4.748  13.942 -0.3693  0.3442 -0.0300
 5896TIP3    H139103   1.209   4.790  13.894 -1.2786 -1.2200 -0.1339
 5896TIP3    H239104   1.360   4.777  13.898 -1.0306  0.9395 -0.8687
 5897TIP3   OH239105   6.650   5.395  11.280  0.8587 -0.1272 -0.2881
 5897TIP3    H139106   6.638   5.321  11.221 -1.0603  0.5603 -0.8629
 5897TIP3    H239107   6.581   5.457  11.254 -0.9140 -0.2920  3.4134
 5898TIP3   OH239108   4.359   2.779   1.187  0.2579  0.3258  0.1815
 5898TIP3    H139109   4.386   2.870   1.200  0.6813  0.0538  1.2712
 5898TIP3    H239110   4.378   2.762   1.095 -4.2703  2.8192 -1.5654
 5899TIP3   OH239111   3.559   2.611  16.813  0.0682 -0.0107  0.0394
 5899TIP3    H139112   3.493   2.674  16.841 -1.9284 -0.9320 -2.2585
 5899TIP3    H239113   3.511   2.530  16.796  2.4712 -2.2215  2.5486
 5900TIP3   OH239114   4.533   2.599  17.062 -0.0537 -0.2816 -0.1211
 5900TIP3    H139115   4.457   2.656  17.047 -0.9128 -0.6472  2.3561
 5900TIP3    H239116   4.504   2.512  17.035 -0.3306 -0.3108  0.2565
 5901TIP3   OH239117   5.200   4.013   6.145 -0.3170  0.6345  0.3482
 5901TIP3    H139118   5.116   3.967   6.146  0.5295 -1.0634 -1.1975
 5901TIP3    H239119   5.184   4.090   6.090 -1.0789  0.8128  0.8081
 5902TIP3   OH239120   5.015   6.610  16.498  0.3508 -0.6485  0.5759
 5902TIP3    H139121   5.014   6.542  16.564  1.9702  0.2978  1.6476
 5902TIP3    H239122   4.927   6.647  16.499 -1.1755 -3.8203 -1.3383
 5903TIP3   OH239123   4.746   5.612  13.933 -0.1671 -0.8337 -0.2696
 5903TIP3    H139124   4.655   5.637  13.926 -0.1405 -0.4073  0.6775
 5903TIP3    H239125   4.795   5.693  13.917  0.0766 -1.1769 -1.3380
 5904TIP3   OH239126   2.486   3.351  13.911  0.5451 -0.2143  0.0554
 5904TIP3    H139127   2.433   3.272  13.916  1.1156 -0.7445 -1.5134
 5904TIP3    H239128   2.434   3.411  13.858 -0.2964  0.8553  1.9954
 5905TIP3   OH239129   5.996   6.569  16.548 -0.0584 -0.3515  0.4026
 5905TIP3    H139130   6.003   6.665  16.545  0.4863 -0.4045  0.0178
 5905TIP3    H239131   6.086   6.538  16.550 -0.2344 -0.8638  0.4430
 5906TIP3   OH239132   6.084   2.850  12.795  0.3095 -0.2855  0.0550
 5906TIP3    H139133   6.149   2.835  12.725 -2.5623 -1.5908 -2.5844
 5906TIP3    H239134   6.060   2.762  12.824 -1.9768 -0.0224 -0.8334
 5907TIP3   OH239135   6.568   2.789  15.646  0.1436 -0.2016 -0.1420
 5907TIP3    H139136   6.615   2.733  15.584 -0.6296  0.8517 -1.7542
 5907TIP3    H239137   6.597   2.759  15.732  2.4504 -0.7245 -1.0213
 5908TIP3   OH239138   3.533   3.422   2.826  0.0216  0.4117  0.5629
 5908TIP3    H139139   3.493   3.465   2.751  1.6949  0.4344 -0.3774
 5908TIP3    H239140   3.550   3.333   2.796  2.1578  0.8508  0.2880
 5909TIP3   OH239141   5.292   5.385  15.318 -0.2577 -0.2646  0.0249
 5909TIP3    H139142   5.366   5.357  15.372  0.0386 -0.3649 -0.4236
 5909TIP3    H239143   5.327   5.458  15.266 -0.3616 -0.5655 -0.4714
 5910TIP3   OH239144   3.108   3.235   3.624  0.5077  0.2601 -0.4137
 5910TIP3    H139145   3.024   3.245   3.579  1.3952  1.6243 -1.8239
 5910TIP3    H239146   3.091   3.268   3.713 -0.8646 -1.0961 -0.1159
 5911TIP3   OH239147   5.414   4.898   1.603 -0.4000  0.2394  0.1957
 5911TIP3    H139148   5.424   4.853   1.687  0.6387  0.0524 -0.0066
 5911TIP3    H239149   5.327   4.938   1.606 -0.8322 -0.7181  0.8940
 5912TIP3   OH239150   5.985   2.591  14.703 -0.6414 -0.1128 -0.2533
 5912TIP3    H139151   5.972   2.676  14.660  0.3259  0.3397  0.3071
 5912TIP3    H239152   6.071   2.561  14.672 -0.2602 -0.1266  0.7474
 5913TIP3   OH239153   4.755   6.543  16.863  0.0789 -0.1150 -0.1585
 5913TIP3    H139154   4.841   6.559  16.901 -0.8240  0.9144  1.5339
 5913TIP3    H239155   4.724   6.463  16.906 -0.2330  0.0985  0.0214
 5914TIP3   OH239156   0.698   4.795   1.225  0.5823 -0.0342 -0.7053
 5914TIP3    H139157   0.695   4.709   1.268 -1.4717 -0.4277 -1.5438
 5914TIP3    H239158   0.707   4.774   1.132  0.2063  0.6728 -0.8994
 5915TIP3   OH239159   2.796   1.762   2.226  0.2757  0.6072 -0.3434
 5915TIP3    H139160   2.747   1.688   2.191  0.8805 -0.7996  1.6173
 5915TIP3    H239161   2.882   1.756   2.186  0.6861 -0.4712  0.6492
 5916TIP3   OH239162   5.920   1.269   2.083 -0.6127  0.6632 -0.3399
 5916TIP3    H139163   5.895   1.296   2.172 -3.4726 -1.0937 -0.4950
 5916TIP3    H239164   5.854   1.309   2.027  1.2317  1.8512 -1.7688
 5917TIP3   OH239165   0.173   4.235  11.946 -0.3359  0.0987  0.2355
 5917TIP3    H139166   0.204   4.168  11.886 -0.6617  0.1243  0.0332
 5917TIP3    H239167   0.206   4.209  12.032  2.0879  1.2649 -0.2528
 5918TIP3   OH239168   0.710   5.084   2.497 -0.0394 -0.0624  0.0593
 5918TIP3    H139169   0.757   5.157   2.457  2.3026 -1.5201  0.0129
 5918TIP3    H239170   0.776   5.036   2.546 -1.6164 -1.8760  0.5439
 5919TIP3   OH239171   6.563   5.020  12.094  0.3222 -0.0797 -0.3003
 5919TIP3    H139172   6.638   4.968  12.123  0.1053  0.0900  0.6253
 5919TIP3    H239173   6.527   5.056  12.175  0.4095  1.4296 -0.9077
 5920TIP3   OH239174   1.674   0.062   3.216 -0.0625 -0.2914 -0.4495
 5920TIP3    H139175   1.631   0.037   3.134  0.3087 -0.4148 -0.6078
 5920TIP3    H239176   1.602   0.067   3.279 -0.8123  2.5615 -1.3813
 5921TIP3   OH239177   4.479   1.050   2.256 -0.3695 -0.2293  0.3098
 5921TIP3    H139178   4.515   1.136   2.234 -1.0973  0.3598  1.3659
 5921TIP3    H239179   4.535   0.988   2.209  0.0624  0.8209 -0.5977
 5922TIP3   OH239180   5.782   6.133  14.340  0.1356  0.1274 -0.5322
 5922TIP3    H139181   5.710   6.096  14.391  0.6172 -0.1144 -0.0233
 5922TIP3    H239182   5.822   6.197  14.399  0.8725 -0.3541 -0.4945
 5923TIP3   OH239183   1.602   3.379  16.529  0.4539 -0.0833  0.0686
 5923TIP3    H139184   1.685   3.331  16.526  0.2137 -0.4621 -0.7275
 5923TIP3    H239185   1.548   3.328  16.589  1.1674  0.8008  1.5240
 5924TIP3   OH239186   1.374   4.213  14.370  0.3597  0.6468  0.1752
 5924TIP3    H139187   1.401   4.302  14.347 -0.9942  1.1861  0.5281
 5924TIP3    H239188   1.422   4.193  14.451  1.0942  0.8296 -0.2099
 5925TIP3   OH239189   5.164   3.751   5.889  0.4272 -0.1227 -0.1331
 5925TIP3    H139190   5.126   3.712   5.810  0.8085 -2.5023  0.7589
 5925TIP3    H239191   5.091   3.754   5.951  1.0008 -2.2909  0.7459
 5926TIP3   OH239192   3.733   6.147   6.286 -0.2398 -0.0762  0.2114
 5926TIP3    H139193   3.788   6.166   6.211  0.7587 -0.0133  0.9365
 5926TIP3    H239194   3.770   6.067   6.324 -0.0899  0.4439  1.2094
 5927TIP3   OH239195   6.251   5.789  13.127  0.1576  0.2819  0.6835
 5927TIP3    H139196   6.223   5.880  13.135  0.4699  0.5119 -0.5431
 5927TIP3    H239197   6.260   5.776  13.032  1.8802 -0.4774  0.9170
 5928TIP3   OH239198   3.259   1.293  12.941 -0.7660 -0.5219  1.2134
 5928TIP3    H139199   3.290   1.337  13.020 -2.3589  0.4589  1.3535
 5928TIP3    H239200   3.170   1.265  12.963 -1.2444 -0.2124 -0.2364
 5929TIP3   OH239201   1.774   3.852   5.366 -0.4597  0.4475  0.2050
 5929TIP3    H139202   1.865   3.839   5.339 -1.2499 -1.5011 -1.8324
 5929TIP3    H239203   1.729   3.772   5.338 -2.6097  0.8591  2.1805
 5930TIP3   OH239204   0.930   0.572   3.785  0.3358 -0.6425  0.2763
 5930TIP3    H139205   0.849   0.620   3.770  0.0519 -0.8157  1.2093
 5930TIP3    H239206   0.999   0.636   3.765 -0.0237 -0.5707 -0.7449
 5931TIP3   OH239207   1.463   0.613  13.422 -0.1466 -0.9533  0.7234
 5931TIP3    H139208   1.422   0.699  13.411 -1.2267 -1.3803  1.2753
 5931TIP3    H239209   1.409   0.554  13.368  1.4097 -1.0793 -0.8007
 5932TIP3   OH239210   2.348   5.947  16.496  0.1365 -0.4322  0.1773
 5932TIP3    H139211   2.287   5.940  16.570 -1.5284  1.4920 -0.9213
 5932TIP3    H239212   2.392   6.031  16.509 -0.8725  0.3878 -1.4910
 5933TIP3   OH239213   1.029   1.130  11.415 -0.6724 -0.4497 -0.0148
 5933TIP3    H139214   0.968   1.075  11.464 -1.4334 -2.5098 -2.9817
 5933TIP3    H239215   0.999   1.125  11.324  1.8952  1.3031 -1.1057
 5934TIP3   OH239216   0.882   3.939   4.486  0.3759  0.2600 -0.5048
 5934TIP3    H139217   0.876   3.990   4.405  0.3422 -0.2621 -0.8381
 5934TIP3    H239218   0.809   3.877   4.481  2.3267 -2.1230 -1.7602
 5935TIP3   OH239219   3.220   1.301  14.940  0.5252  0.1453  0.3214
 5935TIP3    H139220   3.237   1.392  14.967  0.2345 -0.1523  1.5784
 5935TIP3    H239221   3.158   1.268  15.005 -1.1389 -0.2851 -1.4211
 5936TIP3   OH239222   4.428   2.112  13.687  0.4287 -0.2714  0.2829
 5936TIP3    H139223   4.514   2.140  13.654  0.8849 -0.2436  1.4781
 5936TIP3    H239224   4.447   2.044  13.751 -0.4265 -0.0558  0.7818
 5937TIP3   OH239225   0.285   6.324  16.395  0.0009 -0.2906  0.1355
 5937TIP3    H139226   0.379   6.310  16.383  0.0448  0.5639 -0.6371
 5937TIP3    H239227   0.250   6.328  16.306 -0.8361 -0.9683  0.4145
 5938TIP3   OH239228   6.278   3.627  14.178 -0.1513 -0.3521 -0.4187
 5938TIP3    H139229   6.336   3.592  14.246 -1.6049  2.5268  2.5596
 5938TIP3    H239230   6.336   3.642  14.103  1.9875 -1.7089  0.8628
 5939TIP3   OH239231   5.828   2.191   2.227 -0.2387  0.6321  0.4954
 5939TIP3    H139232   5.804   2.216   2.138  0.2629  0.3325  0.2744
 5939TIP3    H239233   5.751   2.213   2.280 -0.2284  1.6113  0.1304
 5940TIP3   OH239234   2.194   4.366   5.738 -0.8832  0.2449  0.0537
 5940TIP3    H139235   2.237   4.444   5.704  1.7211 -0.7903  0.6931
 5940TIP3    H239236   2.250   4.294   5.710 -1.8740 -1.1786  1.5375
 5941TIP3   OH239237   5.125   0.751   1.746 -0.1453 -0.1029  0.3725
 5941TIP3    H139238   5.122   0.788   1.658 -0.0431 -0.0635  0.3864
 5941TIP3    H239239   5.190   0.680   1.740  1.5048  1.2990  0.9681
 5942TIP3   OH239240   6.394   0.023   2.446 -0.3812  0.9901  0.0042
 5942TIP3    H139241   6.489   0.032   2.457 -0.2441  0.6131 -0.7742
 5942TIP3    H239242   6.377   0.053   2.357 -0.6596 -1.0171 -0.6871
 5943TIP3   OH239243   1.022   2.285   4.489  0.0816 -0.6116 -0.1062
 5943TIP3    H139244   1.056   2.282   4.579 -0.1343  0.4322  0.0309
 5943TIP3    H239245   1.098   2.310   4.436 -0.5854  2.8672  0.3452
 5944TIP3   OH239246   6.204   3.312   1.844 -0.7752  0.1954  1.0474
 5944TIP3    H139247   6.214   3.346   1.933 -1.9055 -0.3139  1.3954
 5944TIP3    H239248   6.212   3.217   1.853  0.1275  0.1956  0.4310
 5945TIP3   OH239249   2.473   5.722   4.611 -0.0553  0.0143  0.6838
 5945TIP3    H139250   2.511   5.809   4.612 -1.1112  0.5532 -1.5085
 5945TIP3    H239251   2.437   5.711   4.699 -0.6525  2.1461  0.7577
 5946TIP3   OH239252   1.725   5.545   4.958  0.0342 -0.3316 -0.7177
 5946TIP3    H139253   1.806   5.587   4.932 -0.3622  0.8491 -0.1339
 5946TIP3    H239254   1.751   5.458   4.988  1.3101  0.5493  0.8807
 5947TIP3   OH239255   1.426   0.734   0.262  0.3153 -0.5720 -0.1578
 5947TIP3    H139256   1.501   0.719   0.319 -0.6505 -1.2031  0.9705
 5947TIP3    H239257   1.448   0.815   0.215  1.2445 -0.1852  0.8983
 5948TIP3   OH239258   1.587   6.459   4.018 -0.7656 -0.0531  0.2149
 5948TIP3    H139259   1.600   6.364   4.011  0.5991  0.1101  0.2998
 5948TIP3    H239260   1.672   6.493   4.043 -1.7538  0.9678  2.5553
 5949TIP3   OH239261   0.947   0.349   5.166  0.9440 -0.8685 -0.6375
 5949TIP3    H139262   0.874   0.383   5.115  0.7411 -0.1335  0.1236
 5949TIP3    H239263   1.008   0.316   5.101  1.2385  1.1477 -1.4634
 5950TIP3   OH239264   5.323   0.023  16.765 -0.2270  0.1067 -0.2164
 5950TIP3    H139265   5.282   0.055  16.846  0.0562  0.0802 -0.0604
 5950TIP3    H239266   5.374   0.098  16.733 -0.5104  0.1832 -0.4830
 5951TIP3   OH239267   1.495   3.701  14.548 -0.0561  0.8147 -0.0801
 5951TIP3    H139268   1.491   3.776  14.607 -1.2985  1.7299 -1.2466
 5951TIP3    H239269   1.577   3.712  14.500 -0.2752  1.4834 -0.3041
 5952TIP3   OH239270   0.868   5.716  11.424  0.0161  0.4502  0.3950
 5952TIP3    H139271   0.844   5.660  11.350 -0.6644  0.1807  0.8175
 5952TIP3    H239272   0.788   5.724  11.475  0.0651  1.8831  0.2973
 5953TIP3   OH239273   1.905   5.951  13.144 -0.7579  0.0567 -0.2036
 5953TIP3    H139274   1.882   5.928  13.234  0.1218  2.3659  0.6902
 5953TIP3    H239275   1.982   6.007  13.153 -0.4808  0.0938 -2.4187
 5954TIP3   OH239276   3.214   4.954   1.012 -0.1244  0.0083 -0.3983
 5954TIP3    H139277   3.158   4.955   0.935 -0.3015 -0.3901 -0.2761
 5954TIP3    H239278   3.230   4.862   1.030 -1.5116  0.0189  1.0721
 5955TIP3   OH239279   6.271   5.920  16.369 -0.3158 -0.0889 -0.0629
 5955TIP3    H139280   6.224   5.999  16.344 -3.2080 -1.5184  0.4782
 5955TIP3    H239281   6.337   5.950  16.431  0.8432  2.2479 -2.2269
 5956TIP3   OH239282   4.224   0.531   5.402 -0.5172 -0.5338 -0.3999
 5956TIP3    H139283   4.196   0.605   5.456 -1.6206 -0.5882 -0.8631
 5956TIP3    H239284   4.310   0.507   5.437 -1.0823 -0.4103  1.1671
 5957TIP3   OH239285   2.446   5.125   5.954  0.7954  0.0974 -0.0825
 5957TIP3    H139286   2.468   5.183   5.880 -0.9927  0.4386 -0.3853
 5957TIP3    H239287   2.440   5.184   6.029  0.4887  0.0832 -0.0942
 5958TIP3   OH239288   2.837   0.716   4.652  0.5007 -0.1392 -0.0893
 5958TIP3    H139289   2.907   0.711   4.717  0.4281  0.1500  0.0091
 5958TIP3    H239290   2.800   0.804   4.661  0.0270 -0.3377 -0.0397
 5959TIP3   OH239291   4.932   3.103  14.029 -0.2786 -0.2136  0.0263
 5959TIP3    H139292   4.881   3.097  14.110  0.4739 -1.4838  0.4402
 5959TIP3    H239293   4.879   3.057  13.964 -0.2543 -0.4069  0.1415
 5960TIP3   OH239294   5.489   4.133   2.101 -0.0543 -0.0398 -0.7404
 5960TIP3    H139295   5.511   4.196   2.169  0.7388 -2.1881  1.1076
 5960TIP3    H239296   5.393   4.128   2.103 -0.0276 -0.3735  0.5503
 5961TIP3   OH239297   6.711   1.849  11.416  0.1191 -0.0316  0.8332
 5961TIP3    H139298   6.653   1.840  11.340 -0.0254  0.3602  0.8984
 5961TIP3    H239299   6.796   1.871  11.378 -0.6114  3.3270  0.9066
 5962TIP3   OH239300   1.671   2.382   1.598  0.2837 -0.2964  0.3715
 5962TIP3    H139301   1.623   2.317   1.648 -0.4925  0.1731  0.2496
 5962TIP3    H239302   1.612   2.458   1.594  0.7230  0.0108 -0.4356
 5963TIP3   OH239303   0.205   4.234   0.616 -0.2017  0.2576 -0.3958
 5963TIP3    H139304   0.268   4.304   0.631  1.4367 -0.8455 -1.6287
 5963TIP3    H239305   0.259   4.160   0.587 -1.8400 -1.5429  0.8909
 5964TIP3   OH239306   5.091   6.175   1.000  0.2565  0.3167 -0.0557
 5964TIP3    H139307   5.000   6.164   0.973  0.5384 -2.7572 -0.1408
 5964TIP3    H239308   5.090   6.252   1.057 -2.4308  0.2498  0.1393
 5965TIP3   OH239309   3.153   5.314  13.786 -0.5726  0.3809 -0.8290
 5965TIP3    H139310   3.059   5.327  13.790 -0.8226 -0.7725 -2.0615
 5965TIP3    H239311   3.183   5.378  13.721 -0.1799  2.1058  0.9783
 5966TIP3   OH239312   0.657   4.794   0.673  0.1488 -0.3320 -0.4575
 5966TIP3    H139313   0.619   4.852   0.606  0.2175  1.6141  1.0934
 5966TIP3    H239314   0.752   4.809   0.666  0.2663 -1.2613 -0.9067
 5967TIP3   OH239315   6.272   3.587   5.306  0.6315  0.2206 -0.5688
 5967TIP3    H139316   6.245   3.495   5.310  0.7278  0.2031 -0.2681
 5967TIP3    H239317   6.191   3.636   5.293  0.4456  0.1668  0.3113
 5968TIP3   OH239318   4.951   3.282   2.988  0.2071 -0.0879 -0.1761
 5968TIP3    H139319   4.916   3.361   3.029 -0.3233  0.1516 -1.0532
 5968TIP3    H239320   4.874   3.230   2.966  0.6064 -1.5187  1.6352
 5969TIP3   OH239321   3.237   5.898   1.108 -0.6595  0.1806  0.1305
 5969TIP3    H139322   3.321   5.925   1.145 -1.6423  1.3119  1.6338
 5969TIP3    H239323   3.253   5.810   1.073  0.9260  0.0479  1.1166
 5970TIP3   OH239324   5.712   4.693  12.772 -0.1745  0.7954 -0.0431
 5970TIP3    H139325   5.659   4.637  12.716  0.4540 -0.7103  0.8058
 5970TIP3    H239326   5.799   4.693  12.731  0.3130 -0.3853  0.9157
 5971TIP3   OH239327   6.102   2.108   4.066  0.1699 -0.2169  0.0836
 5971TIP3    H139328   6.184   2.114   4.016  0.9091  0.1374  1.2819
 5971TIP3    H239329   6.117   2.164   4.142  0.3633 -3.2666  2.4508
 5972TIP3   OH239330   3.464   4.320  16.863 -0.6203 -0.0502  0.1002
 5972TIP3    H139331   3.514   4.248  16.825  1.1487  1.1591  0.0468
 5972TIP3    H239332   3.506   4.337  16.947 -1.0088  0.8938  0.1191
 5973TIP3   OH239333   1.727   4.390   0.708  0.6445 -0.0877 -0.6272
 5973TIP3    H139334   1.731   4.301   0.741  0.8640 -1.2965 -3.6617
 5973TIP3    H239335   1.635   4.404   0.685  0.8970 -0.1746 -1.7308
 5974TIP3   OH239336   2.114   2.676  15.928  0.2949 -0.1671 -0.0396
 5974TIP3    H139337   2.192   2.725  15.902  0.4133 -0.8245 -0.9825
 5974TIP3    H239338   2.068   2.734  15.988  0.4870  1.0481 -1.0295
 5975TIP3   OH239339   5.426   5.198  13.444 -0.3700 -0.1253 -0.1267
 5975TIP3    H139340   5.386   5.235  13.522 -1.6534 -1.3275 -0.1713
 5975TIP3    H239341   5.353   5.159  13.396  0.7159 -1.4788 -0.7473
 5976TIP3   OH239342   5.373   0.035  12.759 -0.1503 -0.1308 -0.0083
 5976TIP3    H139343   5.426   0.070  12.831  1.3018 -3.2538  0.5931
 5976TIP3    H239344   5.436  -0.009  12.702 -1.7722 -1.5840 -0.7737
 5977TIP3   OH239345   3.491   6.049  16.665  0.2773  0.1677  0.2591
 5977TIP3    H139346   3.573   6.006  16.689  1.5155  2.5602  0.6190
 5977TIP3    H239347   3.503   6.140  16.691 -2.0896  0.8327 -0.6977
 5978TIP3   OH239348   4.041   3.540  11.747  0.0118 -0.1183  0.3110
 5978TIP3    H139349   4.074   3.500  11.666 -1.5254 -0.4705 -0.1851
 5978TIP3    H239350   4.119   3.557  11.799  1.0385  0.0428 -1.2116
 5979TIP3   OH239351   1.796   2.598   5.756  0.6023 -0.5335 -0.7073
 5979TIP3    H139352   1.813   2.544   5.679  1.9284 -0.4310 -0.5026
 5979TIP3    H239353   1.877   2.646   5.771 -0.5455  1.5549 -0.8757
 5980TIP3   OH239354   4.481   2.251  14.904  0.2018  0.0535 -0.3853
 5980TIP3    H139355   4.407   2.199  14.872 -0.0689  0.5451 -0.5618
 5980TIP3    H239356   4.557   2.194  14.891 -0.4523 -1.6528  2.5321
 5981TIP3   OH239357   6.325   1.431   1.337 -0.1835 -0.3355  0.6442
 5981TIP3    H139358   6.302   1.397   1.251  0.2492  1.0859 -0.0751
 5981TIP3    H239359   6.338   1.354   1.391  2.5023 -1.4152 -1.3169
 5982TIP3   OH239360   3.053   4.836  17.149 -0.1398 -0.2992 -0.5463
 5982TIP3    H139361   3.023   4.745  17.143  0.7130 -0.5187 -1.9499
 5982TIP3    H239362   3.148   4.831  17.138  0.0062  0.7051  0.1185
 5983TIP3   OH239363   1.085   1.427  16.262  0.0054  0.0385 -0.1636
 5983TIP3    H139364   1.039   1.504  16.227  0.0075  0.6551  1.1151
 5983TIP3    H239365   1.021   1.385  16.320  0.7545  0.4791  1.0399
 5984TIP3   OH239366   2.749   5.076   0.733 -0.1671  0.4504  0.0580
 5984TIP3    H139367   2.797   5.113   0.659  0.8670 -0.9305 -0.0038
 5984TIP3    H239368   2.804   5.095   0.809 -1.2348  1.8800  0.5140
 5985TIP3   OH239369   1.992   6.775  12.195 -0.4734 -0.1842 -0.1305
 5985TIP3    H139370   1.975   6.867  12.172 -1.1827 -0.2955 -0.0916
 5985TIP3    H239371   1.951   6.764  12.281 -0.2880 -0.5063 -0.0819
 5986TIP3   OH239372   1.131   2.396  13.634  0.1154 -0.5271 -0.4330
 5986TIP3    H139373   1.044   2.386  13.673  0.5956  0.6736  1.0340
 5986TIP3    H239374   1.114   2.397  13.540 -1.4649 -0.2488 -0.1844
 5987TIP3   OH239375   4.561   4.032   3.816  0.2382 -0.1314  0.5645
 5987TIP3    H139376   4.585   3.944   3.846 -2.1746 -0.7823  0.8326
 5987TIP3    H239377   4.533   4.020   3.726 -0.6180  0.2450  0.7723
 5988TIP3   OH239378   5.323   4.596   2.440 -0.6037 -0.4724  0.6053
 5988TIP3    H139379   5.228   4.599   2.448 -0.5573 -1.1395  1.7262
 5988TIP3    H239380   5.343   4.652   2.366 -1.8368  0.0523  0.6457
 5989TIP3   OH239381   6.425   5.315   4.539  0.2546  0.0807  0.3387
 5989TIP3    H139382   6.461   5.392   4.581 -1.0292  0.1539  1.3654
 5989TIP3    H239383   6.334   5.338   4.519  0.2631 -0.6647 -0.6407
 5990TIP3   OH239384   4.602   4.945  13.978  0.5038 -0.9732 -0.5958
 5990TIP3    H139385   4.681   4.961  14.029  0.7590  1.2636 -1.5744
 5990TIP3    H239386   4.549   5.024  13.989 -1.8063 -2.5392  0.3077
 5991TIP3   OH239387   4.724   5.742   5.870 -0.2853 -0.6973 -0.4543
 5991TIP3    H139388   4.692   5.830   5.885  0.1432 -0.7435  0.9453
 5991TIP3    H239389   4.706   5.724   5.778  1.3966  1.5832 -1.3247
 5992TIP3   OH239390   5.204   3.998   2.814 -0.1319  0.0257 -0.2705
 5992TIP3    H139391   5.144   3.954   2.755 -0.2960  0.2823 -0.2943
 5992TIP3    H239392   5.269   3.931   2.837 -2.5003 -1.5017  2.7881
 5993TIP3   OH239393   4.956   3.470  14.800 -0.2835  0.6604 -1.2767
 5993TIP3    H139394   5.029   3.444  14.856 -2.1493  0.4592  1.2742
 5993TIP3    H239395   4.977   3.560  14.774  0.1042  1.2904  0.9424
 5994TIP3   OH239396   2.178   4.510   3.241  0.4075  0.2631 -0.1045
 5994TIP3    H139397   2.129   4.475   3.167 -2.6027 -1.1925  2.3415
 5994TIP3    H239398   2.222   4.587   3.206 -1.7845  0.3431 -3.1021
 5995TIP3   OH239399   3.898   1.218  16.326 -0.4547 -0.3749 -0.7275
 5995TIP3    H139400   3.900   1.199  16.419 -0.7044 -0.4317 -0.7346
 5995TIP3    H239401   3.958   1.154  16.287  2.8511  2.1173 -0.1796
 5996TIP3   OH239402   3.801   3.337  17.180 -0.2530  0.2648 -0.4016
 5996TIP3    H139403   3.856   3.379  17.114 -0.0435 -1.8916 -1.6649
 5996TIP3    H239404   3.848   3.257  17.203 -2.4840 -1.2753 -0.9886
 5997TIP3   OH239405   4.062   6.021  10.767 -0.0797  0.2943 -0.0377
 5997TIP3    H139406   4.133   5.958  10.770 -0.5345 -0.2485 -0.3594
 5997TIP3    H239407   4.047   6.046  10.858  0.0798 -0.0889  0.0922
 5998TIP3   OH239408   2.142   2.323  13.424 -0.2889 -0.5542  0.0678
 5998TIP3    H139409   2.101   2.237  13.434 -3.1723  0.9715  3.9902
 5998TIP3    H239410   2.079   2.374  13.373  0.6809 -0.3053 -0.9146
 5999TIP3   OH239411   2.060   0.388  11.183  0.6993  0.2151 -0.3086
 5999TIP3    H139412   2.092   0.329  11.250  3.1305 -0.5438 -2.0189
 5999TIP3    H239413   2.000   0.335  11.131 -0.8616  0.6896  0.9177
 6000TIP3   OH239414   0.193   0.246   0.180 -0.5910 -0.4434 -0.2425
 6000TIP3    H139415   0.142   0.197   0.116  1.1500 -2.5432 -0.1325
 6000TIP3    H239416   0.283   0.243   0.147 -0.3292  2.6338 -0.1318
 6001TIP3   OH239417   1.778   0.689   5.701 -0.1476  0.5559  0.0690
 6001TIP3    H139418   1.708   0.727   5.648 -0.7225  1.6668  1.5392
 6001TIP3    H239419   1.735   0.626   5.758  0.4352 -0.5158 -0.6579
 6002TIP3   OH239420   1.778   2.493   1.233  0.1442  0.1572  0.2596
 6002TIP3    H139421   1.845   2.427   1.252  0.8776  0.6864 -0.3782
 6002TIP3    H239422   1.714   2.448   1.179  0.0622 -0.3168  0.7466
 6003TIP3   OH239423   5.135   4.285  11.719  0.5463  0.1075  0.2957
 6003TIP3    H139424   5.210   4.343  11.724  0.9539 -0.4129  0.2472
 6003TIP3    H239425   5.170   4.198  11.736 -0.2729  0.0280  1.6939
 6004TIP3   OH239426   2.812   0.179   5.292  0.1917 -0.1906  0.9226
 6004TIP3    H139427   2.773   0.231   5.363 -1.6420 -2.3475  1.6069
 6004TIP3    H239428   2.801   0.089   5.320  4.4090 -1.0371  0.3710
 6005TIP3   OH239429   1.845   4.699  14.064  0.0836 -0.0505 -0.8495
 6005TIP3    H139430   1.880   4.655  14.141 -1.8858 -0.3445 -0.0499
 6005TIP3    H239431   1.867   4.641  13.991  0.7902 -0.4534 -0.3340
 6006TIP3   OH239432   3.914   1.691   1.649 -0.2739  0.3769  0.1553
 6006TIP3    H139433   3.958   1.716   1.568 -0.7921  2.0708  0.3582
 6006TIP3    H239434   3.969   1.729   1.718 -1.9034  2.4601  0.4122
 6007TIP3   OH239435   1.398   1.464  15.714  0.4492 -0.1651 -0.2442
 6007TIP3    H139436   1.333   1.424  15.656  1.0984  0.1904 -1.2527
 6007TIP3    H239437   1.435   1.391  15.764 -0.1898 -0.4678 -0.2116
 6008TIP3   OH239438   1.190   3.359   5.161 -0.5350  0.3539 -0.2206
 6008TIP3    H139439   1.277   3.331   5.134  0.1501 -1.6116  3.4035
 6008TIP3    H239440   1.134   3.283   5.141 -0.4783 -0.1562  1.4399
 6009TIP3   OH239441   0.509   3.413   3.123  0.0384  0.0986 -0.2052
 6009TIP3    H139442   0.502   3.346   3.190 -0.8565  0.2414 -0.1457
 6009TIP3    H239443   0.590   3.460   3.144 -0.2202  0.1314  0.7599
 6010TIP3   OH239444   3.573   2.880   2.847  0.2479 -0.1048  0.2543
 6010TIP3    H139445   3.492   2.896   2.895 -0.1554  0.7561 -0.6675
 6010TIP3    H239446   3.561   2.793   2.809 -0.0485 -0.1760  0.5044
 6011TIP3   OH239447   2.907   6.108  11.278 -0.1193 -0.4483 -0.0835
 6011TIP3    H139448   2.851   6.068  11.344 -0.7462  1.4707  0.5834
 6011TIP3    H239449   2.847   6.155  11.220  0.5708 -0.7869 -1.1095
 6012TIP3   OH239450   2.028   4.219  16.819  0.5280  0.1777 -0.3961
 6012TIP3    H139451   2.038   4.125  16.808  1.0763 -0.0452  1.4917
 6012TIP3    H239452   2.115   4.249  16.846  0.5539  1.3626 -1.7252
 6013TIP3   OH239453   2.413   3.362  15.116 -0.3196 -0.9983 -0.1773
 6013TIP3    H139454   2.357   3.351  15.193 -0.1229 -0.3006  0.0725
 6013TIP3    H239455   2.354   3.353  15.042 -0.7148 -0.6126  0.0826
 6014TIP3   OH239456   0.261   6.450   0.673  0.7243  0.8111  0.3209
 6014TIP3    H139457   0.345   6.448   0.718  1.8621 -2.0327 -1.6148
 6014TIP3    H239458   0.282   6.480   0.584 -0.0535 -0.7398 -0.4501
 6015TIP3   OH239459   2.768   5.615  15.444  0.1630  0.1384  0.2077
 6015TIP3    H139460   2.853   5.599  15.403  0.2675  0.1079  0.4345
 6015TIP3    H239461   2.759   5.543  15.507 -0.9934 -1.1377 -1.3159
 6016TIP3   OH239462   3.714   6.025   2.428 -0.1769  0.3578 -0.6806
 6016TIP3    H139463   3.666   6.071   2.358 -1.8071  1.8128  1.2581
 6016TIP3    H239464   3.667   5.942   2.437 -0.8067  0.7250 -0.4627
 6017TIP3   OH239465   4.548   1.881  11.623  0.3607 -0.4724 -0.0600
 6017TIP3    H139466   4.599   1.809  11.659  2.1204  1.0944  0.7700
 6017TIP3    H239467   4.479   1.896  11.687 -0.1316 -1.4882 -0.3271
 6018TIP3   OH239468   5.983   4.778   0.488  0.1840  0.2050  0.2218
 6018TIP3    H139469   5.981   4.729   0.570 -0.4913 -0.0512  0.0595
 6018TIP3    H239470   6.066   4.752   0.447  0.0432 -0.4586  0.3495
 6019TIP3   OH239471   3.802   5.392  10.214 -0.2427 -0.1937 -0.0315
 6019TIP3    H139472   3.830   5.333  10.144 -2.0353 -0.7010 -0.3720
 6019TIP3    H239473   3.882   5.412  10.262  0.2973 -3.9659  0.9106
 6020TIP3   OH239474   5.450   4.192  12.107  0.1258  0.1264 -0.6821
 6020TIP3    H139475   5.492   4.194  12.193  1.7821 -0.4469 -1.4369
 6020TIP3    H239476   5.363   4.157  12.124  0.4262  0.0012  0.7583
 6021TIP3   OH239477   5.035   5.183  13.473 -0.3972 -0.1451  0.3850
 6021TIP3    H139478   5.103   5.139  13.422  0.0795  0.8291  0.1492
 6021TIP3    H239479   5.027   5.270  13.432 -0.2852  0.5214  1.7319
 6022TIP3   OH239480   0.029   6.508   2.159  0.1535  0.0686 -0.5831
 6022TIP3    H139481   0.073   6.423   2.151 -0.8171 -0.4873 -0.2443
 6022TIP3    H239482  -0.002   6.527   2.071  1.3834  0.6475 -0.9011
 6023TIP3   OH239483   3.854   5.834  14.873 -0.6788 -0.4374  0.3518
 6023TIP3    H139484   3.784   5.884  14.831 -0.3124  0.1390  0.4041
 6023TIP3    H239485   3.914   5.812  14.801 -1.3783 -1.7389  0.1571
 6024TIP3   OH239486   3.214   1.901  17.111 -0.1740  0.3328 -0.3302
 6024TIP3    H139487   3.142   1.840  17.097 -0.3757  0.4867  0.0383
 6024TIP3    H239488   3.227   1.942  17.025 -0.6888  0.4819 -0.3410
 6025TIP3   OH239489   1.482   4.085   3.285 -0.5376  0.5143  0.2333
 6025TIP3    H139490   1.400   4.104   3.329 -0.7871  1.1145 -0.4562
 6025TIP3    H239491   1.468   4.115   3.195  0.5208  0.8674  0.1703
 6026TIP3   OH239492   3.971   6.011   4.909  0.0196  0.4789  0.2437
 6026TIP3    H139493   3.986   6.087   4.965 -0.9045  1.0637 -0.2799
 6026TIP3    H239494   4.017   6.032   4.827  1.6743 -0.5296  0.8715
 6027TIP3   OH239495   0.870   0.783  13.347 -0.2070  0.0597 -0.5855
 6027TIP3    H139496   0.780   0.789  13.381 -0.4373 -0.0861 -1.1633
 6027TIP3    H239497   0.900   0.697  13.377 -0.2160  0.1589 -0.2883
 6028TIP3   OH239498   3.749   3.768   6.094  0.0125 -0.1006 -0.4582
 6028TIP3    H139499   3.837   3.799   6.071 -1.2762  2.6414 -2.2171
 6028TIP3    H239500   3.728   3.704   6.027  0.1445  0.2754 -0.8621
 6029TIP3   OH239501   3.710   5.375  13.820 -0.4564  0.1820 -0.3068
 6029TIP3    H139502   3.713   5.436  13.894 -0.7116 -1.3212  1.0057
 6029TIP3    H239503   3.790   5.394  13.771  1.0711 -0.4456  1.7883
 6030TIP3   OH239504   1.771   1.603  10.971 -0.2317  0.0393  0.5999
 6030TIP3    H139505   1.729   1.520  10.947 -1.2745  0.4224  1.0337
 6030TIP3    H239506   1.831   1.621  10.899 -0.1219 -1.0063  0.4186
 6031TIP3   OH239507   6.669   4.901   1.366  0.6272 -0.0302  0.5196
 6031TIP3    H139508   6.615   4.860   1.299  2.1005 -0.2414 -0.6069
 6031TIP3    H239509   6.611   4.914   1.440 -0.7305 -1.0000 -0.3373
 6032TIP3   OH239510   3.156   4.645  14.964  0.0328 -0.5702 -0.2089
 6032TIP3    H139511   3.067   4.660  14.932  0.4544 -1.1128 -1.7148
 6032TIP3    H239512   3.207   4.625  14.885  1.8982  1.5206  0.3584
 6033TIP3   OH239513   4.334   3.957  13.823 -0.3988 -0.4566 -0.3198
 6033TIP3    H139514   4.284   3.973  13.743 -0.4801 -0.0730 -0.1945
 6033TIP3    H239515   4.415   3.917  13.793 -0.1156  0.3450 -0.6643
 6034TIP3   OH239516   3.884   3.041   0.623 -0.8571 -0.1130 -0.3125
 6034TIP3    H139517   3.796   3.078   0.630 -0.8220 -0.2008  0.7170
 6034TIP3    H239518   3.872   2.947   0.633 -0.3777  0.0805  2.8546
 6035TIP3   OH239519   0.782   3.422  17.089 -0.2209 -0.0663  0.2825
 6035TIP3    H139520   0.770   3.510  17.053  1.1059  0.0581  0.1057
 6035TIP3    H239521   0.719   3.369  17.042  0.5209  0.3660 -1.2714
 6036TIP3   OH239522   3.199   2.249  11.534 -0.4532  0.4953 -0.9079
 6036TIP3    H139523   3.156   2.334  11.547  0.0086  0.4780  1.0858
 6036TIP3    H239524   3.128   2.188  11.518 -1.0062  0.8981 -0.0913
 6037TIP3   OH239525   0.979   3.186  10.781  0.5680  0.1475  0.1994
 6037TIP3    H139526   0.947   3.151  10.864 -0.2389  0.2586 -0.0543
 6037TIP3    H239527   1.074   3.172  10.784  0.6513  0.8363  1.4659
 6038TIP3   OH239528   4.540   2.956   2.273  0.2273 -0.2251 -0.1433
 6038TIP3    H139529   4.446   2.975   2.268 -0.2043 -1.8983  0.7096
 6038TIP3    H239530   4.569   2.958   2.182 -0.7250 -0.0856 -0.4618
 6039TIP3   OH239531   1.427   1.627  14.418 -0.1484  0.2564  0.1765
 6039TIP3    H139532   1.401   1.594  14.504  0.0029 -0.3391 -0.0042
 6039TIP3    H239533   1.521   1.613  14.415 -0.3503 -1.0748 -0.6477
 6040TIP3   OH239534   4.065   3.559   6.420 -0.4607  0.0952 -0.4872
 6040TIP3    H139535   4.059   3.627   6.353 -1.0222  0.8098  0.2801
 6040TIP3    H239536   3.986   3.569   6.472 -0.6280 -1.2548 -0.4492
 6041TIP3   OH239537   5.084   3.575   5.276 -0.4522 -0.2822 -0.0697
 6041TIP3    H139538   5.114   3.665   5.273 -2.9074  0.6327  0.1198
 6041TIP3    H239539   5.106   3.544   5.364  0.2588  0.1695 -0.0842
 6042TIP3   OH239540   0.753   2.559  13.239 -0.1253 -0.3945 -0.0127
 6042TIP3    H139541   0.712   2.474  13.249 -0.5287 -0.5026 -2.0458
 6042TIP3    H239542   0.690   2.611  13.189  0.0550  1.1618  1.2901
 6043TIP3   OH239543   0.891   4.850  15.272  0.4100  0.0044 -0.2647
 6043TIP3    H139544   0.879   4.758  15.295  0.7588  0.0041 -0.0680
 6043TIP3    H239545   0.826   4.867  15.205 -0.5350 -0.0372  0.6206
 6044TIP3   OH239546   6.313   0.585   1.416 -0.0572  0.5849 -0.4638
 6044TIP3    H139547   6.319   0.621   1.328  0.8430 -1.6850 -1.4244
 6044TIP3    H239548   6.220   0.587   1.437 -0.4640 -0.0624 -2.0476
 6045TIP3   OH239549   2.670   5.863  13.858  0.3705  0.2624  0.3342
 6045TIP3    H139550   2.711   5.939  13.818  0.9771  0.4638  1.3131
 6045TIP3    H239551   2.674   5.880  13.952  1.3599 -1.3955  0.6296
 6046TIP3   OH239552   0.136   4.097   5.648 -0.4477  0.5076  0.7706
 6046TIP3    H139553   0.200   4.167   5.640 -1.1758  1.0722 -0.3644
 6046TIP3    H239554   0.188   4.019   5.666  0.9081  0.4560 -2.5918
 6047TIP3   OH239555   3.641   5.332  16.339 -0.2215  0.3462 -0.2295
 6047TIP3    H139556   3.708   5.375  16.391 -0.6515 -0.8893  1.4400
 6047TIP3    H239557   3.558   5.368  16.372 -0.4588  0.5675 -1.0420
 6048TIP3   OH239558   4.145   6.220   3.428 -0.8655  0.1471 -0.4583
 6048TIP3    H139559   4.194   6.218   3.510  0.4390  2.3251 -1.0976
 6048TIP3    H239560   4.195   6.163   3.369 -1.5709 -1.0833  0.0981
 6049TIP3   OH239561   3.520   0.721  14.956 -0.6358  0.1195 -0.5942
 6049TIP3    H139562   3.544   0.748  15.045 -3.5192  3.3246 -0.5574
 6049TIP3    H239563   3.453   0.654  14.969 -1.7976  1.2961 -0.1859
 6050TIP3   OH239564   6.200   5.602   0.844  0.1565 -0.0210 -0.0536
 6050TIP3    H139565   6.196   5.533   0.910 -1.0984  1.7745  1.8287
 6050TIP3    H239566   6.110   5.629   0.831  0.7235  2.4575  0.6177
 6051TIP3   OH239567   1.567   6.284  14.249  0.1273  0.1503  0.2943
 6051TIP3    H139568   1.576   6.331  14.166  0.5114  2.0853  1.3675
 6051TIP3    H239569   1.637   6.320  14.304 -1.1835  0.1721  2.0041
 6052TIP3   OH239570   4.908   3.401  15.423  0.0754  0.1802  0.3503
 6052TIP3    H139571   4.851   3.477  15.411 -0.1964 -0.0698  0.0576
 6052TIP3    H239572   4.881   3.364  15.507 -1.3491 -0.9156 -0.5543
 6053TIP3   OH239573   4.458   1.842  12.863 -0.0934  0.6468 -0.5191
 6053TIP3    H139574   4.405   1.764  12.846 -0.5435  0.5850  1.0391
 6053TIP3    H239575   4.402   1.898  12.916  0.7409  1.4035 -0.4093
 6054TIP3   OH239576   1.544   6.654  14.968  0.1217  0.0889 -0.3627
 6054TIP3    H139577   1.589   6.736  14.945  1.1147 -0.5083 -0.6060
 6054TIP3    H239578   1.604   6.610  15.028 -0.4983 -0.3849 -0.0764
 6055TIP3   OH239579   4.016   6.456   5.673  0.0614 -0.1027  0.0828
 6055TIP3    H139580   4.026   6.550   5.691 -3.5445  0.0992  1.9571
 6055TIP3    H239581   4.105   6.421   5.680  1.5053  3.0913 -0.4397
 6056TIP3   OH239582   6.699   3.567  14.171 -0.0678  0.0538  0.1333
 6056TIP3    H139583   6.794   3.566  14.181 -0.0592 -1.0790 -0.0224
 6056TIP3    H239584   6.673   3.475  14.167 -0.9943  0.3400 -1.5729
 6057TIP3   OH239585   1.686   1.799   3.482  0.2280  0.1063  0.2463
 6057TIP3    H139586   1.619   1.788   3.550 -1.2311  0.5987 -1.0585
 6057TIP3    H239587   1.695   1.893   3.473  3.8454  0.2131  2.9285
 6058TIP3   OH239588   1.021   2.936  15.487 -0.3554 -0.0129  0.4225
 6058TIP3    H139589   1.099   2.974  15.528  0.4608  0.6049 -1.5348
 6058TIP3    H239590   1.033   2.842  15.496  0.8239  0.0574 -0.1312
 6059TIP3   OH239591   1.066   4.997  15.049  0.8059 -0.0508  0.0367
 6059TIP3    H139592   1.147   5.038  15.018  0.7385  0.5206  0.5931
 6059TIP3    H239593   1.080   4.984  15.143 -1.0118  3.2530  0.9279
 6060TIP3   OH239594   1.730   3.985   3.220 -0.0311 -0.0921  0.0550
 6060TIP3    H139595   1.655   4.033   3.256  0.9019  0.6093  1.1577
 6060TIP3    H239596   1.739   3.909   3.278  0.8597  0.5013  0.7218
 6061TIP3   OH239597   2.328   3.058   2.942  0.0430  0.5849 -0.2468
 6061TIP3    H139598   2.414   3.096   2.963 -0.1864  0.4800  0.9754
 6061TIP3    H239599   2.347   2.965   2.926  0.1072  0.4614  0.4961
 6062TIP3   OH239600   1.720   6.321   2.043  0.0074 -0.1799 -0.2757
 6062TIP3    H139601   1.653   6.365   2.096 -0.1913 -0.5115 -0.2446
 6062TIP3    H239602   1.742   6.384   1.974 -2.1675 -0.9816 -1.8043
 6063TIP3   OH239603   4.478   5.695  13.947 -0.2891 -0.3858  0.5174
 6063TIP3    H139604   4.436   5.734  14.024 -2.7310 -0.7115 -0.5615
 6063TIP3    H239605   4.416   5.710  13.875  1.6938 -0.5006 -1.3135
 6064TIP3   OH239606   2.966   5.244   3.910  0.1748 -0.1247 -0.4402
 6064TIP3    H139607   2.973   5.313   3.844 -1.2120 -0.9844 -1.5408
 6064TIP3    H239608   2.989   5.164   3.863 -0.0477 -0.6557  0.3365
 6065TIP3   OH239609   0.432   1.010   1.368 -0.9115 -0.2982 -0.1594
 6065TIP3    H139610   0.451   0.922   1.400  0.4898  0.3592  0.9284
 6065TIP3    H239611   0.351   1.036   1.412 -0.1440 -0.2237  1.2646
 6066TIP3   OH239612   6.095   0.684   4.921  0.1994 -0.1373 -0.2077
 6066TIP3    H139613   6.090   0.657   5.012 -0.7776  1.9482  0.4124
 6066TIP3    H239614   6.106   0.602   4.872  0.6941 -1.2995  1.7460
 6067TIP3   OH239615   3.907   1.841   3.870  0.1698  0.2958 -0.6925
 6067TIP3    H139616   3.913   1.805   3.959  0.5975  0.1421 -0.7779
 6067TIP3    H239617   3.917   1.935   3.881  2.2858  0.1375 -0.7373
 6068TIP3   OH239618   5.107   4.134   2.036  0.5125 -0.3762  0.0949
 6068TIP3    H139619   5.112   4.111   2.129  2.4669 -0.4626 -0.0025
 6068TIP3    H239620   5.099   4.229   2.035  1.5213 -0.2827  0.3454
 6069TIP3   OH239621   3.352   1.022   0.409  0.2859 -0.0929  0.6104
 6069TIP3    H139622   3.372   1.019   0.315  2.2521 -0.3550  0.9993
 6069TIP3    H239623   3.432   0.991   0.452 -0.9378 -1.0573  2.3476
 6070TIP3   OH239624   4.401   1.996  15.870 -0.1856  0.3226  0.8217
 6070TIP3    H139625   4.460   1.948  15.927 -0.8604 -1.0265  0.4150
 6070TIP3    H239626   4.378   2.075  15.920  0.2950 -0.1684  1.8339
 6071TIP3   OH239627   3.587   1.526   2.436 -0.0975  0.3325 -0.2783
 6071TIP3    H139628   3.667   1.527   2.489  0.5724 -0.1772 -1.2566
 6071TIP3    H239629   3.516   1.515   2.500  0.5300  1.5200  0.6732
 6072TIP3   OH239630   0.171   5.498  14.140  0.0635 -0.2541  0.0689
 6072TIP3    H139631   0.200   5.409  14.121  1.3399  0.3324 -0.8689
 6072TIP3    H239632   0.115   5.521  14.066  0.1341 -0.1051  0.0618
 6073TIP3   OH239633   0.002   5.206   2.904  0.3954 -0.1298 -0.4513
 6073TIP3    H139634   0.072   5.144   2.928  1.4547  1.1437 -0.1176
 6073TIP3    H239635   0.013   5.279   2.966 -2.4094 -0.6697  0.8071
 6074TIP3   OH239636   5.930   0.482  14.628  0.2811 -0.1791 -0.3357
 6074TIP3    H139637   5.947   0.464  14.720  0.6080 -1.9459 -0.7060
 6074TIP3    H239638   5.846   0.441  14.610 -0.7273  1.7863 -0.4124
 6075TIP3   OH239639   4.798   6.291   2.144 -0.0255  0.3624 -0.5355
 6075TIP3    H139640   4.853   6.353   2.097 -2.5343  1.4698 -2.2369
 6075TIP3    H239641   4.711   6.303   2.106 -1.5652 -0.9703  2.2691
 6076TIP3   OH239642   2.995   4.558   0.097 -0.4068 -0.0291 -0.1690
 6076TIP3    H139643   3.054   4.573   0.170  0.0688 -0.0585 -0.5419
 6076TIP3    H239644   2.918   4.517   0.136  0.0208 -0.4385  0.2485
 6077TIP3   OH239645   5.503   2.422   3.370 -0.4234 -0.2713 -0.4543
 6077TIP3    H139646   5.427   2.372   3.401  0.1887 -1.0206 -0.1268
 6077TIP3    H239647   5.555   2.359   3.321 -1.1226  0.7883 -2.6614
 6078TIP3   OH239648   1.433   6.571   4.350 -0.1888  0.3600  0.0771
 6078TIP3    H139649   1.394   6.529   4.427  0.3092 -0.9125 -0.3466
 6078TIP3    H239650   1.450   6.661   4.378 -1.6878  0.4281  0.8645
 6079TIP3   OH239651   5.010   0.678   5.601 -0.2055 -0.3522  0.4870
 6079TIP3    H139652   5.080   0.713   5.657 -0.8533 -0.4399  1.3666
 6079TIP3    H239653   5.024   0.584   5.600 -0.4228 -0.3863  0.8080
 6080TIP3   OH239654   4.249   0.571   3.487 -0.0704  0.5802 -0.0030
 6080TIP3    H139655   4.293   0.488   3.505 -2.2810 -0.9035 -1.0545
 6080TIP3    H239656   4.312   0.638   3.517  2.1476 -1.3948  0.0726
 6081TIP3   OH239657   4.709   1.742   3.489  0.2347  0.1746  0.6307
 6081TIP3    H139658   4.621   1.774   3.508 -0.4412  0.7687 -2.9253
 6081TIP3    H239659   4.737   1.701   3.571 -3.1136  0.4157  2.0682
 6082TIP3   OH239660   2.268   5.048  16.076  0.4699  0.7698  0.8941
 6082TIP3    H139661   2.256   4.985  16.147  0.1866  0.7911  0.8647
 6082TIP3    H239662   2.182   5.055  16.036  0.8414  0.0002 -0.0870
 6083TIP3   OH239663   0.129   0.458  11.242 -0.0577 -0.7491  0.6056
 6083TIP3    H139664   0.220   0.430  11.252  0.6349  0.5202 -1.4353
 6083TIP3    H239665   0.125   0.496  11.154 -2.7162 -1.3007  0.3852
 6084TIP3   OH239666   1.008   4.310   3.389 -0.2034 -0.5856 -0.1437
 6084TIP3    H139667   1.098   4.341   3.377  0.4287 -2.4172 -0.4877
 6084TIP3    H239668   1.002   4.288   3.482 -0.0369 -1.1297 -0.2531
 6085TIP3   OH239669   4.575   2.774  11.404  0.0548 -0.2408 -0.0762
 6085TIP3    H139670   4.642   2.767  11.336  3.4169 -0.0588  2.8954
 6085TIP3    H239671   4.534   2.859  11.389  2.2086  0.7675 -0.6887
 6086TIP3   OH239672   5.479   2.464   3.659 -0.6623  0.0963 -0.2728
 6086TIP3    H139673   5.467   2.369   3.655  0.8790 -0.3856  3.0908
 6086TIP3    H239674   5.564   2.481   3.618 -0.1995 -0.2282  0.5333
 6087TIP3   OH239675   1.097   2.731  11.792 -0.2487  0.2293  0.2505
 6087TIP3    H139676   1.095   2.727  11.888  1.0693 -0.1762  0.2774
 6087TIP3    H239677   1.042   2.807  11.771 -0.3489  0.4832  1.3419
 6088TIP3   OH239678   4.827   4.913  10.092  0.3518 -0.1472  0.4933
 6088TIP3    H139679   4.752   4.867  10.055  0.8762  0.4009 -1.3680
 6088TIP3    H239680   4.794   4.951  10.173 -0.9804 -1.0771  0.4234
 6089TIP3   OH239681   0.599   3.649  12.734  0.1362 -0.1223  0.1397
 6089TIP3    H139682   0.576   3.742  12.728  0.0215 -0.2075 -0.8882
 6089TIP3    H239683   0.629   3.638  12.824  0.7748  1.0526  0.0960
 6090TIP3   OH239684   0.752   1.166  15.648  0.3293  0.1752 -0.3611
 6090TIP3    H139685   0.739   1.168  15.743  1.2389 -1.4659 -0.1552
 6090TIP3    H239686   0.664   1.166  15.612 -0.0599 -0.2184  0.5400
 6091TIP3   OH239687   2.565   1.373  10.894 -0.6226 -0.6515  0.2176
 6091TIP3    H139688   2.633   1.306  10.904  2.8100  2.6485  1.6159
 6091TIP3    H239689   2.524   1.378  10.980  0.1451 -0.0749  0.5675
 6092TIP3   OH239690   0.665   3.361   1.406 -0.4080 -0.0083  0.0712
 6092TIP3    H139691   0.676   3.352   1.311  1.0223  1.2696  0.0790
 6092TIP3    H239692   0.688   3.452   1.424 -0.8812 -0.1737  1.6279
 6093TIP3   OH239693   2.440   4.712  13.322 -0.1803 -0.0764 -0.3795
 6093TIP3    H139694   2.366   4.703  13.262  0.2187  0.7955 -1.0317
 6093TIP3    H239695   2.472   4.801  13.307  1.4780 -0.6907 -0.6631
 6094TIP3   OH239696   3.125   5.525  14.528 -0.1367 -0.0324  0.2294
 6094TIP3    H139697   3.150   5.504  14.618 -1.3189 -1.2583  0.2987
 6094TIP3    H239698   3.168   5.609  14.511  1.5234 -0.5893  1.3255
 6095TIP3   OH239699   5.415   4.230   5.486  0.6520  0.2099  0.3975
 6095TIP3    H139700   5.443   4.273   5.568 -0.9441  0.9731  0.5734
 6095TIP3    H239701   5.361   4.296   5.443 -1.1029 -1.2871  0.2133
 6096TIP3   OH239702   2.955   5.035   0.201 -0.0294 -0.0137 -0.2649
 6096TIP3    H139703   3.022   4.984   0.247 -1.4917 -0.5378  1.4038
 6096TIP3    H239704   2.950   4.995   0.114 -0.4928 -2.2216  0.6998
 6097TIP3   OH239705   1.460   1.724   1.960 -0.3778 -0.0464  0.1809
 6097TIP3    H139706   1.452   1.684   2.046 -1.2217  0.0353  0.1531
 6097TIP3    H239707   1.389   1.788   1.957 -1.5129 -1.3073 -1.2377
 6098TIP3   OH239708   4.582   3.979   1.278 -0.2035  0.2894 -0.0189
 6098TIP3    H139709   4.590   3.886   1.298 -0.2816  0.3185  0.1516
 6098TIP3    H239710   4.587   3.984   1.182 -1.7988 -0.0604 -0.1486
 6099TIP3   OH239711   6.329   2.685   2.295 -0.1171  0.6303 -0.7565
 6099TIP3    H139712   6.414   2.669   2.336 -0.8342 -1.3258  0.1075
 6099TIP3    H239713   6.306   2.774   2.321  0.7736  0.4728  0.7024
 6100TIP3   OH239714   5.622   3.298   5.099 -0.0851 -0.1547 -0.6021
 6100TIP3    H139715   5.556   3.280   5.032 -1.3780 -0.4401  0.6871
 6100TIP3    H239716   5.629   3.216   5.149 -0.4787  0.5796  0.7041
 6101TIP3   OH239717   4.838   5.437   5.944 -0.0166  0.1126  0.1869
 6101TIP3    H139718   4.870   5.450   5.855 -0.3770  2.3803  0.3286
 6101TIP3    H239719   4.881   5.506   5.995 -2.2357  0.9121  1.1014
 6102TIP3   OH239720   0.782   0.208   1.925 -0.0396 -0.9812 -0.0502
 6102TIP3    H139721   0.848   0.176   1.987 -2.0696 -3.6264  0.9532
 6102TIP3    H239722   0.766   0.134   1.866 -0.2224  0.5142 -1.9723
 6103TIP3   OH239723   3.143   2.286  14.259 -0.0466  0.2886 -0.3811
 6103TIP3    H139724   3.141   2.225  14.185  2.4305  0.3996 -0.6218
 6103TIP3    H239725   3.133   2.231  14.336  0.0523 -0.1721 -0.6909
 6104TIP3   OH239726   3.283   2.014  12.835  0.4191 -0.1098  0.1283
 6104TIP3    H139727   3.248   2.075  12.771 -1.5211 -0.6701  0.5748
 6104TIP3    H239728   3.333   2.069  12.896 -0.4963  0.9103 -0.0047
 6105TIP3   OH239729   4.930   3.850   4.243 -0.2870 -0.1608  0.0605
 6105TIP3    H139730   4.973   3.769   4.270  1.0577  1.4803  3.3875
 6105TIP3    H239731   4.842   3.844   4.280 -0.0546  0.0360  0.6563
 6106TIP3   OH239732   0.940   4.831   5.037  0.2939  0.3147  0.2567
 6106TIP3    H139733   0.928   4.743   4.999  0.3893  0.0114  0.9137
 6106TIP3    H239734   1.035   4.843   5.041  0.2910  0.2336  0.6371
 6107TIP3   OH239735   4.772   1.847   0.252  0.6883  0.9313 -0.7309
 6107TIP3    H139736   4.827   1.870   0.177  0.8834 -0.3248 -0.9886
 6107TIP3    H239737   4.830   1.801   0.312  0.8786  3.1071  0.8607
 6108TIP3   OH239738   2.157   3.690  14.020 -0.8814  0.0958 -0.3509
 6108TIP3    H139739   2.102   3.702  14.097  0.2628  1.0439  0.3558
 6108TIP3    H239740   2.230   3.751  14.033  1.4548 -2.5346 -0.2062
 6109TIP3   OH239741   2.295   1.150  11.595  0.2348 -0.1139 -0.1647
 6109TIP3    H139742   2.364   1.216  11.606 -0.1394  0.2421  0.0524
 6109TIP3    H239743   2.214   1.200  11.589  0.0060 -0.5238 -0.5914
 6110TIP3   OH239744   0.421   1.983  13.723 -0.5448 -0.7963 -0.5947
 6110TIP3    H139745   0.426   2.056  13.661 -0.3137 -1.9177 -1.9292
 6110TIP3    H239746   0.513   1.964  13.744 -0.5560 -1.3847 -1.0743
 6111TIP3   OH239747   0.191   6.028  10.771  0.1533 -0.2299  0.4914
 6111TIP3    H139748   0.153   5.986  10.694  0.5664  1.5423 -0.7425
 6111TIP3    H239749   0.177   6.122  10.757  2.1856  0.2823  1.5083
 6112TIP3   OH239750   3.589   3.082  11.648 -0.1100  0.0244 -0.7820
 6112TIP3    H139751   3.566   3.114  11.561  0.4609 -0.7474 -1.2243
 6112TIP3    H239752   3.513   3.102  11.702 -0.3186  0.8555 -1.3648
 6113TIP3   OH239753   3.072   4.912  11.644  0.1261  0.5898 -0.2786
 6113TIP3    H139754   3.056   5.006  11.638 -1.2292  0.4208  0.2111
 6113TIP3    H239755   2.992   4.872  11.609  1.6098 -0.4341 -2.7692
 6114TIP3   OH239756   6.129   1.248   2.502 -0.1049  0.6043 -0.1691
 6114TIP3    H139757   6.208   1.261   2.553  1.0442 -0.9274 -1.4472
 6114TIP3    H239758   6.157   1.196   2.427 -1.4739  3.4575 -2.9004
 6115TIP3   OH239759   1.940   5.689  13.027 -0.5131 -0.5100  0.6477
 6115TIP3    H139760   1.881   5.751  13.070 -1.0720 -0.7877  0.2795
 6115TIP3    H239761   2.027   5.717  13.055 -0.7331  0.6189  0.2828
 6116TIP3   OH239762   1.513   5.179  15.980  0.3974  0.2036 -0.0500
 6116TIP3    H139763   1.452   5.245  16.011 -0.1037  0.0902 -0.7756
 6116TIP3    H239764   1.461   5.099  15.973  0.2794  0.4136 -1.9627
 6117TIP3   OH239765   5.847   3.912   0.243 -0.3592 -0.3375 -0.4313
 6117TIP3    H139766   5.926   3.900   0.191  0.1557  0.9071  0.0230
 6117TIP3    H239767   5.778   3.868   0.193  0.3686 -0.2937 -1.4973
 6118TIP3   OH239768   4.099   4.383  11.121  0.1079 -0.0551  0.3854
 6118TIP3    H139769   4.172   4.357  11.177 -0.3351 -1.8144  0.2047
 6118TIP3    H239770   4.025   4.330  11.153 -1.1739  1.8293  0.7081
 6119TIP3   OH239771   5.968   2.042  14.702 -0.7217 -0.4401  0.3616
 6119TIP3    H139772   6.056   2.026  14.667  0.0152  0.6428  1.6057
 6119TIP3    H239773   5.920   1.962  14.684  0.1753 -0.6435 -1.3425
 6120TIP3   OH239774   3.572   5.445  10.329  0.3586  0.1458 -0.8460
 6120TIP3    H139775   3.652   5.429  10.280  0.2714 -0.9659 -0.6512
 6120TIP3    H239776   3.594   5.420  10.419  0.9139  3.3091  0.0448
 6121TIP3   OH239777   1.031   6.490  14.906  0.0504 -0.2136  0.5524
 6121TIP3    H139778   1.029   6.416  14.967 -0.2062  0.0462  0.8617
 6121TIP3    H239779   0.940   6.503  14.880  0.3081 -1.2100 -0.9846
 6122TIP3   OH239780   1.209   0.754  15.414  0.2451 -0.3014 -0.3894
 6122TIP3    H139781   1.267   0.721  15.346  1.2947 -0.3905  0.5104
 6122TIP3    H239782   1.125   0.714  15.396  0.5252 -0.3965 -1.5655
 6123TIP3   OH239783   3.813   3.366   6.046 -0.2404 -0.0760 -0.2480
 6123TIP3    H139784   3.751   3.400   5.981 -0.3297 -1.2473 -0.8017
 6123TIP3    H239785   3.781   3.278   6.065  0.1413  0.0279  0.9365
 6124TIP3   OH239786   3.512   3.969  16.958 -0.2232  0.4773  0.3180
 6124TIP3    H139787   3.454   3.985  17.033 -0.6233 -1.0661  0.3841
 6124TIP3    H239788   3.473   3.893  16.914  2.5387 -1.6100  1.2231
 6125TIP3   OH239789   1.049   5.071   5.601  0.7161  0.2681 -0.8481
 6125TIP3    H139790   0.992   5.002   5.567 -0.0098 -0.4798  1.6726
 6125TIP3    H239791   1.052   5.137   5.532 -2.0657 -0.3379 -1.6379
 6126TIP3   OH239792   5.571   2.477  12.593 -0.0565  0.2326  0.1162
 6126TIP3    H139793   5.550   2.398  12.544 -2.2414  1.7463 -1.5755
 6126TIP3    H239794   5.517   2.546  12.554  0.7542  2.3254  2.3565
 6127TIP3   OH239795   2.234   5.814   2.681 -0.2608 -0.3069  0.2211
 6127TIP3    H139796   2.205   5.789   2.769  0.5399 -0.1552  0.5289
 6127TIP3    H239797   2.234   5.732   2.632 -0.4697 -0.4297  0.4227
 6128TIP3   OH239798   3.325   6.173  13.658 -0.3254 -0.2850 -0.5477
 6128TIP3    H139799   3.321   6.197  13.566 -0.7074  1.3372 -0.1417
 6128TIP3    H239800   3.397   6.224  13.694  0.5078 -1.6835 -0.1305
 6129TIP3   OH239801   3.181   2.499  15.652 -0.3101 -0.0468  0.0007
 6129TIP3    H139802   3.155   2.587  15.681 -1.5054  0.0481 -1.2817
 6129TIP3    H239803   3.149   2.492  15.563  1.9642 -0.8924 -0.8297
 6130TIP3   OH239804   4.498   4.728  16.291  0.0194  0.3036  0.0479
 6130TIP3    H139805   4.431   4.709  16.357 -2.3684  0.7962 -2.0918
 6130TIP3    H239806   4.581   4.712  16.336 -1.5234 -2.8592  2.1177
 6131TIP3   OH239807   0.242   4.436  10.831  0.1708  0.3243 -0.0438
 6131TIP3    H139808   0.230   4.358  10.884 -0.4438  1.6054  1.8047
 6131TIP3    H239809   0.168   4.435  10.770 -0.2918 -0.1125  0.5137
 6132TIP3   OH239810   3.313   6.653  16.262  0.0434  0.0342  0.0014
 6132TIP3    H139811   3.340   6.722  16.322 -0.3840 -0.8391  1.2295
 6132TIP3    H239812   3.324   6.572  16.311 -0.9563 -0.6598 -0.8580
 6133TIP3   OH239813   5.444   5.015  12.989 -0.5818 -0.0637  0.1875
 6133TIP3    H139814   5.442   4.983  13.080  1.5961  1.3520  0.8220
 6133TIP3    H239815   5.397   5.098  12.991 -0.8473 -0.2094 -0.0520
 6134TIP3   OH239816   3.343   6.487   3.209  0.4281  0.2596  0.2142
 6134TIP3    H139817   3.307   6.517   3.125  0.5134 -1.2016 -0.3868
 6134TIP3    H239818   3.267   6.451   3.256  0.6561 -0.5027  0.0157
 6135TIP3   OH239819   1.475   2.854  12.908  0.7016 -0.0706 -0.1438
 6135TIP3    H139820   1.489   2.851  12.813 -1.9960 -0.0683 -0.6499
 6135TIP3    H239821   1.481   2.947  12.929  0.9479 -0.0257 -0.4077
 6136TIP3   OH239822   1.831   4.131  14.439  0.0868  0.3229 -0.0716
 6136TIP3    H139823   1.869   4.057  14.485 -1.8565 -1.0679 -0.5551
 6136TIP3    H239824   1.787   4.182  14.507  1.9214  1.4323  0.3508
 6137TIP3   OH239825   3.276   2.221   3.061  0.1720 -0.2536  0.0249
 6137TIP3    H139826   3.305   2.205   2.971  2.1515 -0.6974  0.6958
 6137TIP3    H239827   3.336   2.169   3.115 -1.1459 -0.2163  1.5981
 6138TIP3   OH239828   6.685   3.885   6.143  0.2592 -0.0641 -0.8487
 6138TIP3    H139829   6.748   3.940   6.189 -1.1857  2.7001 -1.9514
 6138TIP3    H239830   6.610   3.880   6.201 -0.2181  0.4878 -1.4026
 6139TIP3   OH239831   5.938   4.046  13.220  0.2074 -0.9231 -0.0487
 6139TIP3    H139832   5.943   4.016  13.311 -1.3606  1.1498  0.8005
 6139TIP3    H239833   5.896   3.974  13.173  1.8448 -2.4037  0.6170
 6140TIP3   OH239834   0.435   2.559   4.275  0.2593 -0.0444 -0.3907
 6140TIP3    H139835   0.523   2.536   4.304  0.0414 -1.3240 -0.6604
 6140TIP3    H239836   0.413   2.493   4.209 -1.4861 -0.7209  0.7785
 6141TIP3   OH239837   4.009   4.167  15.876 -0.1124 -0.1212  0.0215
 6141TIP3    H139838   3.985   4.226  15.947  0.1281 -0.2050  0.1716
 6141TIP3    H239839   3.996   4.219  15.796 -0.9266 -0.2017  0.0847
 6142TIP3   OH239840   3.270   5.634   4.097  0.1135 -0.2772  0.3185
 6142TIP3    H139841   3.206   5.564   4.111  0.0608 -0.0624  1.2177
 6142TIP3    H239842   3.355   5.590   4.101  0.0821 -0.2992  0.9343
 6143TIP3   OH239843   1.303   1.137  12.907 -0.8741  0.4054 -0.0057
 6143TIP3    H139844   1.355   1.069  12.951 -0.7290 -0.0438 -0.8479
 6143TIP3    H239845   1.354   1.160  12.830 -0.4578  2.1735  0.7369
 6144TIP3   OH239846   0.697   4.640   3.474  1.0718 -0.0915  0.4830
 6144TIP3    H139847   0.692   4.582   3.398  0.6162 -0.3331  0.6962
 6144TIP3    H239848   0.663   4.588   3.546 -0.5198  0.8292  0.4410
 6145TIP3   OH239849   3.348   2.728   4.226 -0.2145  0.0925  0.3744
 6145TIP3    H139850   3.342   2.820   4.200  2.6077  0.0666 -0.7003
 6145TIP3    H239851   3.328   2.680   4.146  0.7182 -0.1399  0.2670
 6146TIP3   OH239852   5.345   5.611   1.477 -0.0979  0.5108 -0.2908
 6146TIP3    H139853   5.360   5.558   1.399 -1.3072 -0.8213  0.3405
 6146TIP3    H239854   5.379   5.557   1.549  0.9656  1.6995  0.1311
 6147TIP3   OH239855   1.603   3.404   1.046  0.6123 -0.7292  0.0338
 6147TIP3    H139856   1.653   3.405   1.128  0.6026  0.5769  0.0472
 6147TIP3    H239857   1.519   3.366   1.070  0.8364 -0.9453  0.4940
 6148TIP3   OH239858   3.650   4.913  10.086 -0.0253  0.8640 -0.1733
 6148TIP3    H139859   3.745   4.909  10.090 -0.0479  1.2126  1.0299
 6148TIP3    H239860   3.622   4.823  10.103  0.0843  0.4324 -1.9801
 6149TIP3   OH239861   2.107   1.924   3.217  0.1488  0.0376  0.5909
 6149TIP3    H139862   2.029   1.881   3.253  0.3677 -1.1833 -0.3686
 6149TIP3    H239863   2.125   1.879   3.135  1.4635  0.7740  0.4405
 6150TIP3   OH239864   4.222   3.089   0.270 -0.0171 -0.1490  0.0188
 6150TIP3    H139865   4.226   3.177   0.233 -1.2075 -0.3875 -0.7243
 6150TIP3    H239866   4.310   3.074   0.305  1.3004 -0.0354 -3.0118
 6151TIP3   OH239867   4.230   3.518   0.759  0.0218 -0.2577  0.0047
 6151TIP3    H139868   4.160   3.580   0.783  2.2652  2.6153 -0.3297
 6151TIP3    H239869   4.221   3.447   0.823 -2.5931  0.4288  0.5541
 6152TIP3   OH239870   0.974   4.657  12.629 -0.4080  0.4054 -0.5118
 6152TIP3    H139871   0.993   4.653  12.535  0.4929  1.3073 -0.3886
 6152TIP3    H239872   0.888   4.698  12.635 -0.9118 -0.5482 -0.9677
 6153TIP3   OH239873   1.523   5.057   0.797  0.5114 -0.3144  0.1541
 6153TIP3    H139874   1.580   5.126   0.763  0.5912  2.2921  4.7225
 6153TIP3    H239875   1.583   4.984   0.815  1.1912 -0.0703 -1.0135
 6154TIP3   OH239876   2.311   5.647  16.114  0.1679  0.0914  0.1958
 6154TIP3    H139877   2.282   5.591  16.186 -0.9568  0.7930  0.3077
 6154TIP3    H239878   2.279   5.734  16.137 -2.1237 -0.0268 -2.1421
 6155TIP3   OH239879   4.314   0.538   5.754 -0.2641 -0.2988 -0.2814
 6155TIP3    H139880   4.244   0.495   5.803 -0.1950 -0.3812 -0.2544
 6155TIP3    H239881   4.274   0.617   5.718 -0.8762 -1.2777 -1.8212
 6156TIP3   OH239882   1.522   0.379  12.825  0.1351 -0.1339 -0.0201
 6156TIP3    H139883   1.451   0.338  12.777  0.2639  0.1682 -0.4688
 6156TIP3    H239884   1.482   0.452  12.872 -0.0802 -0.7075  0.7193
 6157TIP3   OH239885   4.073   5.776  14.681  0.4765 -0.1188 -0.4685
 6157TIP3    H139886   4.152   5.722  14.691  0.6693  0.1773 -0.3669
 6157TIP3    H239887   4.104   5.866  14.694 -0.2121 -0.1262  1.6361
 6158TIP3   OH239888   2.856   1.289   4.337  0.0652  0.2168  0.7135
 6158TIP3    H139889   2.870   1.382   4.354  2.1040  0.1044 -0.0380
 6158TIP3    H239890   2.884   1.277   4.246 -1.3996 -0.9155  0.3654
 6159TIP3   OH239891   1.190   2.580   0.782  0.2070 -0.4885 -0.3059
 6159TIP3    H139892   1.209   2.617   0.868 -1.1853 -2.2063  0.8239
 6159TIP3    H239893   1.234   2.495   0.782 -0.3258 -0.7769 -1.0426
 6160TIP3   OH239894   3.647   1.648  12.386 -0.1533 -0.1325  0.0896
 6160TIP3    H139895   3.607   1.564  12.406  0.1324  0.0549  1.5361
 6160TIP3    H239896   3.719   1.627  12.326  1.8290 -1.3715  2.6845
 6161TIP3   OH239897   0.885   3.580  14.798 -0.5195  0.0073 -0.2347
 6161TIP3    H139898   0.943   3.513  14.835 -2.1357 -0.1841  2.1639
 6161TIP3    H239899   0.860   3.544  14.713  1.2583 -0.8256 -0.4650
 6162TIP3   OH239900   2.413   6.176   5.433 -0.1406 -0.0044  0.3099
 6162TIP3    H139901   2.475   6.195   5.362  0.6350 -0.0752  0.9575
 6162TIP3    H239902   2.459   6.112   5.488 -0.6852  0.1490  0.9524
 6163TIP3   OH239903   0.722   6.135   2.672 -0.0840  0.1147 -0.8783
 6163TIP3    H139904   0.635   6.130   2.711 -0.2152  0.1133 -1.1732
 6163TIP3    H239905   0.726   6.061   2.612  0.4740 -0.4668 -0.1487
 6164TIP3   OH239906   1.948   3.937   6.249 -0.5169  0.0069 -0.3639
 6164TIP3    H139907   1.914   4.018   6.286  0.3945 -0.1762  0.9381
 6164TIP3    H239908   2.039   3.956   6.228 -0.3995 -0.5697 -0.4057
 6165TIP3   OH239909   5.730   5.348   3.631 -0.0465 -0.1405 -0.1756
 6165TIP3    H139910   5.693   5.260   3.624 -1.1983  0.3507 -0.5230
 6165TIP3    H239911   5.689   5.397   3.560  0.8323  0.6001 -0.1951
 6166TIP3   OH239912   5.991   3.391   3.855  0.4340  0.0719  0.2349
 6166TIP3    H139913   5.931   3.391   3.780  0.7690  1.4775 -0.0641
 6166TIP3    H239914   5.934   3.397   3.931  0.0984 -1.1615  0.1103
 6167TIP3   OH239915   2.661   6.087   5.240 -0.5359  0.1742  0.1842
 6167TIP3    H139916   2.613   6.010   5.208 -0.1003  0.7297 -1.9291
 6167TIP3    H239917   2.642   6.155   5.176  1.6072  0.9393  0.2944
 6168TIP3   OH239918   0.639   3.127  10.840  0.1993 -0.4776  0.3661
 6168TIP3    H139919   0.627   3.221  10.825  1.6809 -0.1489  1.1012
 6168TIP3    H239920   0.670   3.093  10.756  1.5789  0.0809  0.6131
 6169TIP3   OH239921   5.326   5.031   2.166 -0.3777  0.1907  0.4984
 6169TIP3    H139922   5.313   5.078   2.084 -0.0510  0.3301  0.5202
 6169TIP3    H239923   5.410   5.064   2.199 -0.3119 -0.1577  0.6879
 6170TIP3   OH239924   2.970   0.695  12.894  0.4169  0.2594 -0.3872
 6170TIP3    H139925   2.890   0.694  12.842  0.6004  1.6821 -0.7289
 6170TIP3    H239926   2.952   0.636  12.967 -0.5118 -0.3269 -1.0777
 6171TIP3   OH239927   5.996   2.565   4.122  0.1903 -0.0092 -0.1368
 6171TIP3    H139928   5.960   2.501   4.184  0.4004 -0.4054 -0.4221
 6171TIP3    H239929   5.935   2.564   4.049 -0.5537  1.1210  0.4455
 6172TIP3   OH239930   5.734   6.495  14.221 -0.6566  0.0499 -0.1592
 6172TIP3    H139931   5.788   6.553  14.168  2.4217 -1.3387  1.2033
 6172TIP3    H239932   5.728   6.414  14.171  1.0931 -0.7949  0.9297
 6173TIP3   OH239933   0.100   2.496   1.312 -0.4406 -0.8268 -0.5733
 6173TIP3    H139934   0.020   2.480   1.261 -0.6957 -2.2876  0.2561
 6173TIP3    H239935   0.097   2.433   1.383  0.0053  1.0299  1.2070
 6174TIP3   OH239936   0.493   1.773   1.692  0.5714  0.3701  0.9535
 6174TIP3    H139937   0.478   1.793   1.600 -0.3291 -1.0334  0.7635
 6174TIP3    H239938   0.587   1.759   1.699  0.6969  0.8504  0.3348
 6175TIP3   OH239939   1.643   6.614   6.286  0.0872  0.0696  0.2645
 6175TIP3    H139940   1.587   6.546   6.249 -0.4026  0.7761 -0.3129
 6175TIP3    H239941   1.731   6.590   6.258  0.0795 -1.0183  1.1295
 6176TIP3   OH239942   1.750   4.244   2.970  0.3345  0.1252 -0.0860
 6176TIP3    H139943   1.725   4.174   3.030  0.9381  0.0596  0.1025
 6176TIP3    H239944   1.827   4.209   2.924  0.9008  0.8222  0.3126
 6177TIP3   OH239945   0.801   3.680  16.977 -0.8445  0.4318  0.1885
 6177TIP3    H139946   0.895   3.694  16.969 -0.9310  0.0449 -2.4424
 6177TIP3    H239947   0.767   3.763  17.012  0.3572  0.9381  0.1978
 6178TIP3   OH239948   2.186   2.148   1.876  0.1516  0.4908 -0.0154
 6178TIP3    H139949   2.123   2.077   1.874 -1.9493  2.2123  0.9571
 6178TIP3    H239950   2.189   2.181   1.786  0.0475  0.0705 -0.1705
 6179TIP3   OH239951   2.727   0.553  12.194 -0.1436  0.0140 -0.3295
 6179TIP3    H139952   2.778   0.472  12.205  0.4555  0.6044  1.8045
 6179TIP3    H239953   2.678   0.540  12.113 -0.7209 -2.8567  0.3668
 6180TIP3   OH239954   4.597   1.233   5.372 -0.0518 -0.4839  0.0652
 6180TIP3    H139955   4.542   1.192   5.304  1.2078 -1.8595 -0.1684
 6180TIP3    H239956   4.535   1.263   5.438 -1.1267 -1.8763 -0.2572
 6181TIP3   OH239957   5.361   3.841  11.414 -0.0282  0.0394  0.8269
 6181TIP3    H139958   5.280   3.807  11.377  1.2670 -0.8408 -1.3332
 6181TIP3    H239959   5.340   3.933  11.435 -1.1198  0.3236 -1.2399
 6182TIP3   OH239960   4.315   5.257   4.901  0.4796  0.3570  0.3484
 6182TIP3    H139961   4.288   5.345   4.872  0.6513  1.6906  3.7444
 6182TIP3    H239962   4.237   5.203   4.890 -0.0821  1.2988 -0.4442
 6183TIP3   OH239963   0.946   5.708  16.229  0.1165  0.1016  0.1437
 6183TIP3    H139964   0.896   5.746  16.156 -0.5100  0.3609  0.7031
 6183TIP3    H239965   0.980   5.626  16.194  0.6428  0.6773 -0.7553
 6184TIP3   OH239966   5.598   3.472  13.701  0.2616 -0.1724 -0.2347
 6184TIP3    H139967   5.641   3.492  13.618  0.2096 -1.5272 -0.6107
 6184TIP3    H239968   5.670   3.450  13.761  0.2266 -0.1820 -0.1965
 6185TIP3   OH239969   4.283   0.432   6.072 -0.5951  0.3262 -0.5639
 6185TIP3    H139970   4.204   0.434   6.019  0.2012 -0.7220 -1.8515
 6185TIP3    H239971   4.260   0.379   6.148 -0.5394 -1.8967 -2.0219
 6186TIP3   OH239972   0.426   1.576   5.938 -0.2831 -0.8672  0.0309
 6186TIP3    H139973   0.372   1.538   6.007 -0.7250 -1.0454 -0.4024
 6186TIP3    H239974   0.509   1.597   5.981 -0.7860 -0.3447  0.7701
 6187TIP3   OH239975   4.956   4.182   6.092  0.0039 -0.1645 -0.1132
 6187TIP3    H139976   4.955   4.139   6.177 -0.6581 -0.9305 -0.5051
 6187TIP3    H239977   5.000   4.266   6.109 -0.2375 -0.2429  1.0065
 6188TIP3   OH239978   5.868   0.725  15.400  0.5798 -0.3994 -0.6034
 6188TIP3    H139979   5.844   0.689  15.486  2.6090 -0.2128  0.1090
 6188TIP3    H239980   5.788   0.764  15.366 -0.4517 -1.1582  0.8707
 6189TIP3   OH239981   3.629   3.791  11.447  0.2676 -0.4513 -0.2844
 6189TIP3    H139982   3.556   3.730  11.439 -0.6087  0.6165 -0.6592
 6189TIP3    H239983   3.636   3.832  11.360 -0.3373  1.2706  0.4368
 6190TIP3   OH239984   3.848   6.223   6.050  0.4432 -0.3418 -0.6812
 6190TIP3    H139985   3.833   6.288   5.982 -1.5165 -0.4581 -0.4130
 6190TIP3    H239986   3.799   6.146   6.022  1.3852 -1.1418 -0.1873
 6191TIP3   OH239987   2.827   2.314   6.553 -0.1179 -0.4533 -0.2198
 6191TIP3    H139988   2.892   2.383   6.562 -0.8246  0.1549  0.3951
 6191TIP3    H239989   2.837   2.283   6.463  0.9988 -0.3634 -0.1353
 6192TIP3   OH239990   2.180   0.868  13.958  0.6091  0.3837 -0.0494
 6192TIP3    H139991   2.218   0.891  14.043  1.9793 -2.1842  0.1336
 6192TIP3    H239992   2.255   0.865  13.898  0.3461 -1.9996 -0.3343
 6193TIP3   OH239993   5.039   5.527  12.819  0.0162 -0.4365 -1.0117
 6193TIP3    H139994   4.987   5.596  12.778  1.8787  1.6634 -0.0591
 6193TIP3    H239995   4.974   5.465  12.853 -1.7100  0.5565 -2.3403
 6194TIP3   OH239996   5.673   3.364   2.492 -0.1931  0.0025  0.3901
 6194TIP3    H139997   5.761   3.346   2.526  0.3034 -1.3192 -1.4445
 6194TIP3    H239998   5.623   3.389   2.569  1.1892 -1.5416  1.8872
 6195TIP3   OH239999   3.129   2.119  15.231  0.5030  0.1628 -0.0216
 6195TIP3    H140000   3.149   2.051  15.296  1.2416  0.3936 -0.0008
 6195TIP3    H240001   3.111   2.070  15.151 -1.2176 -0.1724  0.5237
 6196TIP3   OH240002   2.412   6.711   5.176 -0.0958  0.7444 -0.4672
 6196TIP3    H140003   2.489   6.717   5.233 -0.5950  1.8942  0.1157
 6196TIP3    H240004   2.359   6.641   5.215 -0.7246  1.9160  0.8907
 6197TIP3   OH240005   0.768   3.445   6.575  0.1543 -0.4367 -0.3092
 6197TIP3    H140006   0.835   3.511   6.560 -0.5861 -0.2149 -3.3333
 6197TIP3    H240007   0.812   3.361   6.558 -0.1491 -0.3238 -1.7755
 6198TIP3   OH240008   1.898   2.769   5.306 -0.0555  0.0987 -0.3780
 6198TIP3    H140009   1.936   2.780   5.392 -0.1196  0.0322 -0.3409
 6198TIP3    H240010   1.909   2.676   5.286 -0.4638  0.0181 -0.2391
 6199TIP3   OH240011   3.328   6.718  14.192  0.2458 -0.1674 -0.1444
 6199TIP3    H140012   3.422   6.727  14.175  0.6611 -1.8581  1.0518
 6199TIP3    H240013   3.289   6.715  14.105  1.1759  1.3659 -0.6630
 6200TIP3   OH240014   0.566   5.627   1.692 -0.3348  0.4488  0.2460
 6200TIP3    H140015   0.538   5.538   1.670  0.4834  0.2238  0.0870
 6200TIP3    H240016   0.493   5.664   1.742 -1.0712  0.0175 -0.5016
 6201TIP3   OH240017   5.014   0.528  12.020  0.0131  0.1001 -0.0057
 6201TIP3    H140018   5.085   0.582  11.986 -0.6852  1.2574  0.3132
 6201TIP3    H240019   5.006   0.456  11.957  1.3527  0.0169 -0.1229
 6202TIP3   OH240020   6.669   4.387   5.306  0.7884 -0.0737 -0.6782
 6202TIP3    H140021   6.707   4.455   5.251  0.8759  0.1338 -0.3624
 6202TIP3    H240022   6.649   4.431   5.389  1.2415 -0.5261 -0.3216
 6203TIP3   OH240023   0.478   0.627  15.036 -0.0027  0.4036  0.1923
 6203TIP3    H140024   0.428   0.707  15.019 -0.3699 -0.1078 -1.2611
 6203TIP3    H240025   0.566   0.646  15.004 -0.0512  0.2806 -0.0150
 6204TIP3   OH240026   0.372   3.549   0.063 -0.1712  0.1363  0.0943
 6204TIP3    H140027   0.466   3.558   0.080 -0.5068  0.7683  1.8737
 6204TIP3    H240028   0.351   3.459   0.088  0.2545 -0.6352 -2.1103
 6205TIP3   OH240029   1.565   2.671   2.997 -0.6836 -0.0215 -0.4155
 6205TIP3    H140030   1.580   2.746   3.054 -1.2348  0.9504 -1.5001
 6205TIP3    H240031   1.650   2.654   2.957  0.1900 -1.8759  1.9553
 6206TIP3   OH240032   6.523   1.146   2.372  0.6879 -0.1247  0.2452
 6206TIP3    H140033   6.570   1.076   2.418  2.6731  0.8702 -0.1578
 6206TIP3    H240034   6.588   1.183   2.313 -1.7274 -1.3637 -3.5277
 6207TIP3   OH240035   6.158   4.714   5.334  0.0067  0.4186 -0.3738
 6207TIP3    H140036   6.096   4.655   5.292 -0.5307 -0.2313  1.2867
 6207TIP3    H240037   6.233   4.659   5.357  0.6046  0.9105 -1.0629
 6208TIP3   OH240038   5.490   3.900  11.128 -0.0199  0.0745 -0.2533
 6208TIP3    H140039   5.535   3.817  11.145  2.2092  1.0664 -0.9717
 6208TIP3    H240040   5.431   3.911  11.203  0.0317 -1.8755  0.1175
 6209TIP3   OH240041   5.089   2.117   5.930  0.1014 -0.5499  0.0031
 6209TIP3    H140042   5.115   2.034   5.889  1.2924  0.0186 -0.4683
 6209TIP3    H240043   5.040   2.092   6.008 -2.6117 -1.6967 -1.9167
 6210TIP3   OH240044   6.780   6.130   3.481 -0.2885 -0.0300  0.0044
 6210TIP3    H140045   6.766   6.035   3.488 -2.5091  0.2500  0.1346
 6210TIP3    H240046   6.831   6.152   3.558  0.3119 -1.1149 -0.0534
 6211TIP3   OH240047   0.825   6.050  12.082  0.3077  0.0349  0.5493
 6211TIP3    H140048   0.919   6.057  12.070  0.3060 -1.2073 -0.4048
 6211TIP3    H240049   0.796   5.992  12.011 -0.7733 -1.8264  2.4094
 6212TIP3   OH240050   4.307   4.480  12.328 -0.4196  0.1093 -0.1423
 6212TIP3    H140051   4.336   4.479  12.237  0.8918 -0.8325  0.2602
 6212TIP3    H240052   4.341   4.399  12.365  1.1667  1.5703  1.8161
 6213TIP3   OH240053   0.932   1.344  15.033 -0.3523  0.6093  0.0338
 6213TIP3    H140054   0.907   1.420  14.981 -4.4149 -0.1522  0.5623
 6213TIP3    H240055   0.929   1.271  14.971 -0.2947  0.3491  0.3357
 6214TIP3   OH240056   0.699   3.810  16.758  0.2055 -0.2411  0.0463
 6214TIP3    H140057   0.686   3.729  16.708 -0.5174 -0.8508  1.1950
 6214TIP3    H240058   0.690   3.784  16.849  0.6898  1.0146  0.4741
 6215TIP3   OH240059   0.666   0.284  12.136  0.3440 -0.3953 -0.1813
 6215TIP3    H140060   0.582   0.273  12.091  0.3941  0.7098 -0.5721
 6215TIP3    H240061   0.728   0.303  12.066  0.5749  0.5462  0.2592
 6216TIP3   OH240062   3.153   5.026   2.783  0.0251 -0.2491 -0.0335
 6216TIP3    H140063   3.187   4.987   2.863  0.9408 -0.7613 -0.6507
 6216TIP3    H240064   3.223   5.014   2.719 -0.7697 -0.0410 -0.9711
 6217TIP3   OH240065   6.238   3.120   2.651 -0.0312  0.2261 -0.1764
 6217TIP3    H140066   6.200   3.115   2.739 -1.0757 -3.0587 -0.6596
 6217TIP3    H240067   6.328   3.090   2.662 -0.0444  0.1899 -0.1686
 6218TIP3   OH240068   5.609   2.375   1.283  0.2466  0.1676 -0.1174
 6218TIP3    H140069   5.538   2.412   1.336 -0.2521 -0.1313 -0.5580
 6218TIP3    H240070   5.580   2.285   1.266  0.1843  0.3943 -1.2662
 6219TIP3   OH240071   3.919   0.578  10.689 -0.0181  0.1025  0.3749
 6219TIP3    H140072   3.988   0.581  10.622 -0.5077 -0.4873 -0.1679
 6219TIP3    H240073   3.878   0.493  10.678 -1.3248  0.7218  0.1836
 6220TIP3   OH240074   1.057   4.339   1.749  0.2040 -0.1318  0.2179
 6220TIP3    H140075   0.975   4.355   1.796  0.0181  0.4169 -0.2847
 6220TIP3    H240076   1.101   4.423   1.747  0.1639 -0.1172 -0.6678
 6221TIP3   OH240077   5.933   5.468   2.444 -0.6267  0.4351 -0.0753
 6221TIP3    H140078   6.004   5.412   2.414  2.3003  3.1011  1.3344
 6221TIP3    H240079   5.857   5.440   2.392  0.9517 -3.5905 -0.5978
 6222TIP3   OH240080   6.104   3.011   1.254 -0.0749  0.2291  0.1828
 6222TIP3    H140081   6.064   3.068   1.320  0.8410 -0.2404  1.1748
 6222TIP3    H240082   6.086   2.923   1.285  0.7033  0.0069  0.0249
 6223TIP3   OH240083   5.533   4.294   0.638  0.1029 -0.4998  0.1564
 6223TIP3    H140084   5.616   4.246   0.649 -0.5796 -1.5607  0.8988
 6223TIP3    H240085   5.556   4.369   0.583  1.7612 -0.2145  1.1751
 6224TIP3   OH240086   5.606   6.757   2.898 -0.7394  0.8931 -0.2240
 6224TIP3    H140087   5.608   6.673   2.854 -1.3562  0.2812  0.8745
 6224TIP3    H240088   5.531   6.803   2.859 -0.7644  0.7049 -0.3971
 6225TIP3   OH240089   0.327   6.106   0.940  0.1539 -0.4442  0.1762
 6225TIP3    H140090   0.328   6.063   1.026 -0.0280 -0.3803  0.2117
 6225TIP3    H240091   0.395   6.062   0.890 -0.2080 -0.9490  0.1277
 6226TIP3   OH240092   3.295   1.670   4.916 -0.0707 -0.4684 -0.1455
 6226TIP3    H140093   3.238   1.625   4.978 -0.0257  2.2211  2.0806
 6226TIP3    H240094   3.376   1.619   4.917 -0.3568 -0.9548  1.4355
 6227TIP3   OH240095   6.802   6.492   5.708  0.0814  0.2756 -0.4940
 6227TIP3    H140096   6.772   6.444   5.785 -1.1996 -0.8166 -1.6104
 6227TIP3    H240097   6.890   6.522   5.730  0.3969 -1.4518  0.7670
 6228TIP3   OH240098   0.551   0.124  15.502 -0.1655 -0.5467  0.1995
 6228TIP3    H140099   0.549   0.114  15.597  1.4572 -1.5502  0.1642
 6228TIP3    H240100   0.632   0.172  15.485 -0.2875 -0.6489 -0.7044
 6229TIP3   OH240101   3.645   0.755   4.931  0.0750 -0.2088 -0.5313
 6229TIP3    H140102   3.660   0.662   4.914  0.8216 -0.1037 -0.4845
 6229TIP3    H240103   3.729   0.797   4.913  0.6056  0.0895  2.1714
 6230TIP3   OH240104   2.474   1.327  15.840  0.6869 -0.2017 -0.1610
 6230TIP3    H140105   2.431   1.242  15.849 -0.8342  0.2203 -2.5766
 6230TIP3    H240106   2.473   1.345  15.746 -1.0440  3.4593  0.3872
 6231TIP3   OH240107   1.926   6.299  15.176 -0.4882 -0.8367  0.4435
 6231TIP3    H140108   1.971   6.337  15.251 -0.0697 -0.0510 -0.1953
 6231TIP3    H240109   1.868   6.232  15.214 -0.3513 -0.3908  1.4648
 6232TIP3   OH240110   3.539   1.024   4.899  0.0443  0.1820 -0.2831
 6232TIP3    H140111   3.580   1.076   4.969 -2.8709 -0.3053  2.0124
 6232TIP3    H240112   3.577   0.937   4.908  1.2273  0.6397 -0.7336
 6233TIP3   OH240113   5.021   5.791   2.325 -0.1018 -0.1046  0.1876
 6233TIP3    H140114   5.076   5.719   2.294  0.9840  0.3608  0.9895
 6233TIP3    H240115   5.081   5.864   2.337 -1.4489  1.5921 -2.4493
 6234TIP3   OH240116   5.796   3.316  15.482 -0.0843 -0.9148  0.2446
 6234TIP3    H140117   5.762   3.238  15.439  0.6134 -0.8932 -0.3631
 6234TIP3    H240118   5.820   3.288  15.570 -0.3953 -1.2427  0.2234
 6235TIP3   OH240119   6.208   2.565   0.736 -0.2473  0.4135 -0.6220
 6235TIP3    H140120   6.138   2.527   0.685 -0.1981  0.5662 -0.8058
 6235TIP3    H240121   6.170   2.644   0.775 -0.3725  0.1404 -0.1795
 6236TIP3   OH240122   4.549   6.769  12.005  0.1707  0.3358 -0.2470
 6236TIP3    H140123   4.570   6.862  12.010 -1.0331  0.5734  0.8220
 6236TIP3    H240124   4.483   6.762  11.936 -1.5597  0.6779  1.2891
 6237TIP3   OH240125   1.189   3.539  14.722  0.1182 -0.2305 -0.0536
 6237TIP3    H140126   1.135   3.460  14.723  0.2457 -0.3164  0.0859
 6237TIP3    H240127   1.141   3.602  14.775 -0.0552 -0.1657 -0.2866
 6238TIP3   OH240128   4.345   3.211  16.805 -0.1026  0.2072  0.7633
 6238TIP3    H140129   4.393   3.293  16.802 -0.9550  0.7107  0.6503
 6238TIP3    H240130   4.366   3.167  16.723 -1.2141  1.2363 -0.1175
 6239TIP3   OH240131   5.168   4.498   1.018  0.2250  0.1675  0.1425
 6239TIP3    H140132   5.150   4.415   1.062 -0.1418 -1.1803 -2.3448
 6239TIP3    H240133   5.085   4.521   0.976  0.8204  0.7770 -0.7469
 6240TIP3   OH240134   5.184   6.164  14.867  0.1543  0.3846  0.2298
 6240TIP3    H140135   5.097   6.132  14.844 -0.2393  1.0598  0.7435
 6240TIP3    H240136   5.234   6.085  14.890 -1.3529  0.2176  3.4155
 6241TIP3   OH240137   4.538   3.753   0.500 -0.3752 -0.0236  0.1812
 6241TIP3    H140138   4.472   3.819   0.520  0.5728  0.3464  2.5342
 6241TIP3    H240139   4.533   3.692   0.574  1.7628 -0.0520  0.3636
 6242TIP3   OH240140   6.728   3.401   4.817 -0.0323 -0.0147 -0.4468
 6242TIP3    H140141   6.765   3.472   4.870  1.5898  0.3288 -1.9267
 6242TIP3    H240142   6.777   3.323   4.844 -0.7740 -0.2976  0.1187
 6243TIP3   OH240143   1.262   4.972   2.735  0.2132  0.3363  0.0019
 6243TIP3    H140144   1.258   5.011   2.823  1.7021 -2.3281  1.3570
 6243TIP3    H240145   1.356   4.966   2.716  0.1626 -3.3831  0.3612
 6244TIP3   OH240146   2.588   3.214  16.905  0.0858  0.1542  0.0680
 6244TIP3    H140147   2.518   3.269  16.870  0.6254 -0.4853 -2.1535
 6244TIP3    H240148   2.588   3.136  16.849  1.6145 -0.5356  0.9585
 6245TIP3   OH240149   5.309   3.775  13.918 -0.1911 -0.0801  0.4309
 6245TIP3    H140150   5.390   3.726  13.934  0.5409  0.3225 -1.6522
 6245TIP3    H240151   5.245   3.708  13.894 -0.0509 -0.2677  0.5740
 6246TIP3   OH240152   6.569   0.247  14.082 -0.1208  0.4829 -0.0447
 6246TIP3    H140153   6.592   0.158  14.056 -0.6520  0.1507  0.6048
 6246TIP3    H240154   6.651   0.295  14.079  0.0895  0.0839 -0.8441
 6247TIP3   OH240155   5.234   4.434   1.784 -0.1472 -0.0616  0.5724
 6247TIP3    H140156   5.277   4.350   1.765 -0.9362 -0.0802 -1.4038
 6247TIP3    H240157   5.295   4.500   1.754 -0.5614 -0.0270 -0.2258
 6248TIP3   OH240158   2.269   0.764   0.361  0.4210 -0.4783  0.5871
 6248TIP3    H140159   2.272   0.858   0.382 -0.0930 -0.4836  0.6882
 6248TIP3    H240160   2.232   0.760   0.273  0.3280 -0.5941  0.6312
 6249TIP3   OH240161   3.389   4.087  11.576 -0.4604  0.0783  0.1568
 6249TIP3    H140162   3.479   4.097  11.607 -0.5092  2.2797 -0.2671
 6249TIP3    H240163   3.399   4.068  11.482 -0.3889 -4.4227  0.8311
 6250TIP3   OH240164   6.781   6.605  14.907  0.1671  0.0324  0.3582
 6250TIP3    H140165   6.730   6.624  14.985  0.5905  0.5109  0.5290
 6250TIP3    H240166   6.839   6.533  14.933 -1.8710 -2.0072 -0.4741
 6251TIP3   OH240167   1.044   5.983  11.827  0.1392  0.5727  0.0238
 6251TIP3    H140168   0.990   5.932  11.887  0.8842 -0.7407 -0.3795
 6251TIP3    H240169   1.128   5.992  11.873 -0.1218  1.8664  0.2874
 6252TIP3   OH240170   3.830   2.938  14.672 -0.2601  0.0391  0.2755
 6252TIP3    H140171   3.828   3.032  14.690  0.1176  0.0919  0.0440
 6252TIP3    H240172   3.872   2.900  14.749  1.6328  0.2966 -0.5677
 6253TIP3   OH240173   2.569   2.160  11.783 -0.5833 -0.3356 -0.1565
 6253TIP3    H140174   2.512   2.132  11.855 -1.0230  0.8248 -0.0363
 6253TIP3    H240175   2.658   2.156  11.819 -0.8678  1.2178  0.8182
 6254TIP3   OH240176   3.935   1.272   5.576 -0.2113 -0.5569 -0.0815
 6254TIP3    H140177   3.995   1.277   5.501 -0.0730 -0.9097  0.0025
 6254TIP3    H240178   3.992   1.252   5.650 -0.3839 -0.4805  0.0701
 6255TIP3   OH240179   2.901   0.164   4.526  0.0480  0.2540 -0.2065
 6255TIP3    H140180   2.839   0.093   4.543 -0.2799  0.9615  1.7861
 6255TIP3    H240181   2.890   0.183   4.433 -2.5517  0.1658  0.0114
 6256TIP3   OH240182   4.066   3.967  12.463 -0.2249  0.4827  0.5042
 6256TIP3    H140183   4.088   3.963  12.370 -1.5247  1.1806  0.1340
 6256TIP3    H240184   4.150   3.961  12.508  0.2910 -2.0525 -0.6139
 6257TIP3   OH240185   6.606   3.418   0.782 -0.3631 -0.6026 -0.3655
 6257TIP3    H140186   6.642   3.331   0.763 -1.5967 -1.0254 -0.8624
 6257TIP3    H240187   6.570   3.447   0.698 -1.0498 -0.1355  0.0898
 6258TIP3   OH240188   1.823   1.386   4.734  0.1256 -0.3604 -0.2117
 6258TIP3    H140189   1.853   1.423   4.817  0.4291 -1.5719  0.2471
 6258TIP3    H240190   1.781   1.459   4.689  1.7485  0.8289  0.1107
 6259TIP3   OH240191   6.600   1.955  10.948 -0.0584  0.0830  0.2504
 6259TIP3    H140192   6.663   1.989  10.885 -1.3305  1.6695 -0.2348
 6259TIP3    H240193   6.524   1.931  10.895 -0.7119  0.3584  1.0392
 6260TIP3   OH240194   4.058   0.425  14.040 -0.7764 -0.5858  0.1052
 6260TIP3    H140195   4.102   0.422  13.955 -2.6871 -2.1452 -0.9382
 6260TIP3    H240196   4.128   0.419  14.104  0.6550 -0.4773 -1.3846
 6261TIP3   OH240197   3.656   2.647  14.887 -0.2599  0.5083 -0.2495
 6261TIP3    H140198   3.610   2.665  14.968  1.8966  0.6722  1.0214
 6261TIP3    H240199   3.655   2.731  14.840  1.3717  1.4257  1.2155
 6262TIP3   OH240200   2.523   2.851  11.937 -0.0368 -0.6014  0.2562
 6262TIP3    H140201   2.494   2.900  11.861  0.6337 -0.1914  0.2593
 6262TIP3    H240202   2.481   2.895  12.011  1.8848  1.0740  0.4328
 6263TIP3   OH240203   3.651   4.358  16.325 -0.1671 -0.4434 -0.5277
 6263TIP3    H140204   3.743   4.362  16.348 -0.8426  0.6472  2.4457
 6263TIP3    H240205   3.633   4.266  16.310  0.9076 -0.9825  1.3021
 6264TIP3   OH240206   2.383   5.864   3.323  0.1402  0.3399  0.9574
 6264TIP3    H140207   2.444   5.796   3.294 -0.7080 -0.0248 -0.0764
 6264TIP3    H240208   2.318   5.817   3.376 -3.2133 -0.8240 -3.5015
 6265TIP3   OH240209   4.412   5.622  15.559 -0.4970 -0.0770  0.1374
 6265TIP3    H140210   4.349   5.551  15.569 -0.1551 -0.5097 -0.6938
 6265TIP3    H240211   4.462   5.600  15.480  0.8885  0.0967  0.9169
 6266TIP3   OH240212   2.439   6.328   0.288  0.0456 -0.2902  0.8195
 6266TIP3    H140213   2.464   6.407   0.241 -2.4832  0.7985  1.1676
 6266TIP3    H240214   2.455   6.349   0.380 -1.7796  0.3476  1.0286
 6267TIP3   OH240215   3.241   2.473  12.695 -0.0940  0.2264  0.2545
 6267TIP3    H140216   3.264   2.494  12.605 -1.3757  3.3608  0.5329
 6267TIP3    H240217   3.303   2.523  12.748 -1.3170  0.9707  1.0381
 6268TIP3   OH240218   5.020   5.577  14.239 -0.2001  0.2174 -0.2169
 6268TIP3    H140219   4.979   5.491  14.236 -0.1422  0.1845 -0.0432
 6268TIP3    H240220   4.953   5.634  14.277 -0.5467  0.4226 -1.1245
 6269TIP3   OH240221   2.936   4.627  11.378 -0.6011  0.1872 -0.3682
 6269TIP3    H140222   2.938   4.532  11.382 -0.5904  0.1300 -1.4189
 6269TIP3    H240223   2.982   4.649  11.297 -0.0817  1.1176  0.1567
 6270TIP3   OH240224   5.990   0.298   5.698  0.5981 -0.2282 -0.4557
 6270TIP3    H140225   5.917   0.254   5.742  1.3492 -1.5120 -0.4463
 6270TIP3    H240226   6.023   0.361   5.762  0.8183 -1.1284  0.3348
 6271TIP3   OH240227   2.256   6.216  12.562  0.1908 -0.1698  0.9696
 6271TIP3    H140228   2.299   6.295  12.595 -1.7458  0.5462  1.9486
 6271TIP3    H240229   2.299   6.144  12.608 -0.8691  0.6506  3.3551
 6272TIP3   OH240230   4.994   0.886  15.357  0.1301  0.4076  0.0879
 6272TIP3    H140231   5.000   0.835  15.276 -0.3243 -3.2698  2.1491
 6272TIP3    H240232   5.085   0.909  15.378  0.5179 -0.7774 -0.2257
 6273TIP3   OH240233   1.735   4.357  11.752  0.4014 -0.1130 -0.1770
 6273TIP3    H140234   1.795   4.353  11.827  0.4184 -1.6373 -0.2350
 6273TIP3    H240235   1.791   4.373  11.677  0.8700 -2.0648 -0.3067
 6274TIP3   OH240236   1.910   4.265   0.990  0.2637 -0.1830 -0.3307
 6274TIP3    H140237   1.912   4.361   0.995  0.1695  0.0423 -3.1886
 6274TIP3    H240238   1.845   4.240   1.056 -0.8818  1.8451 -0.5799
 6275TIP3   OH240239   2.151   3.693  11.976  0.0339  0.0720  0.2410
 6275TIP3    H140240   2.089   3.724  11.910 -0.6209 -0.1169  0.7561
 6275TIP3    H240241   2.155   3.764  12.040 -2.0129 -1.1199  1.7980
 6276TIP3   OH240242   4.663   1.579  10.855 -0.8489  0.2333 -0.3268
 6276TIP3    H140243   4.706   1.572  10.770  0.9901  0.7917  0.5166
 6276TIP3    H240244   4.624   1.666  10.856 -0.6787  0.3100 -0.5013
 6277TIP3   OH240245   5.656   3.819  14.678 -0.5911  0.1516 -0.8456
 6277TIP3    H140246   5.676   3.730  14.708  0.2072  0.2591 -1.0499
 6277TIP3    H240247   5.699   3.827  14.593  0.7147  1.2666 -0.1126
 6278TIP3   OH240248   5.513   4.735   0.023 -0.2939  0.3013 -0.5851
 6278TIP3    H140249   5.449   4.778   0.080  1.5302  1.0765  0.9942
 6278TIP3    H240250   5.520   4.646   0.057 -0.5036  0.2183 -0.7541
 6279TIP3   OH240251   0.707   1.783  14.429 -0.0768 -0.0131  0.5007
 6279TIP3    H140252   0.723   1.782  14.524 -0.1255 -0.1097  0.5083
 6279TIP3    H240253   0.736   1.870  14.401  0.2439 -0.1051  0.5485
 6280TIP3   OH240254   2.885   5.493  13.401 -0.1534 -0.1751  0.5651
 6280TIP3    H140255   2.827   5.532  13.466 -0.7989 -0.9237  0.4480
 6280TIP3    H240256   2.871   5.545  13.322  0.4480  0.5765  0.9388
 6281TIP3   OH240257   5.256   4.795  16.582 -0.5545 -0.5490 -0.4201
 6281TIP3    H140258   5.314   4.847  16.637 -0.8169  0.0838 -0.7223
 6281TIP3    H240259   5.186   4.767  16.640  0.0717 -1.3714 -0.0368
 6282TIP3   OH240260   4.541   0.308   5.131 -0.5364 -0.1634 -0.5461
 6282TIP3    H140261   4.452   0.342   5.121 -0.3303  0.1293 -1.4964
 6282TIP3    H240262   4.598   0.382   5.112 -0.0886 -0.4279 -0.2537
 6283TIP3   OH240263   4.334   3.690   4.944 -0.0734  0.1688 -0.0093
 6283TIP3    H140264   4.416   3.712   4.987  0.8810 -0.6330 -1.3564
 6283TIP3    H240265   4.360   3.641   4.866 -1.8924 -1.6923  0.4787
 6284TIP3   OH240266   6.265   4.917   0.391  0.0009  0.1246  0.0538
 6284TIP3    H140267   6.334   4.946   0.451  1.1584  0.6999 -1.4880
 6284TIP3    H240268   6.291   4.828   0.365 -1.1709 -0.6345  1.3177
 6285TIP3   OH240269   2.017   6.500  13.531 -0.1069 -0.2735 -0.4855
 6285TIP3    H140270   2.003   6.541  13.445 -0.3597 -0.4582 -0.5320
 6285TIP3    H240271   1.971   6.416  13.526 -0.2249 -0.2324 -0.1280
 6286TIP3   OH240272   0.011   6.495  13.563 -0.1913  0.1352 -0.3991
 6286TIP3    H140273  -0.069   6.476  13.612 -0.9824  0.1062 -1.6524
 6286TIP3    H240274   0.042   6.577  13.600 -0.4705 -0.1483  0.5018
 6287TIP3   OH240275   0.327   3.259   4.090  0.0091  0.2494  0.0648
 6287TIP3    H140276   0.357   3.322   4.155  1.2637 -1.4643  1.2655
 6287TIP3    H240277   0.243   3.293   4.059 -0.6740  1.1011  2.6326
 6288TIP3   OH240278   4.238   0.070  12.184 -0.4698  0.3457 -0.1949
 6288TIP3    H140279   4.295   0.087  12.259  0.3376 -2.2462 -0.1391
 6288TIP3    H240280   4.279   0.118  12.112 -0.2933  1.4507  0.6013
 6289TIP3   OH240281   1.625   0.276   4.011  0.3357  0.2405  0.2911
 6289TIP3    H140282   1.633   0.324   4.094 -0.7731 -1.1062  1.2277
 6289TIP3    H240283   1.577   0.196   4.034  2.8895 -1.8190 -1.0148
 6290TIP3   OH240284   2.846   6.447  11.758  0.1972  0.0795  0.0340
 6290TIP3    H140285   2.808   6.514  11.815 -0.3443 -2.4468  2.9005
 6290TIP3    H240286   2.928   6.423  11.800 -0.2971 -1.9927 -0.0559
 6291TIP3   OH240287   6.537   1.753   0.708  1.1252  0.1820  0.2116
 6291TIP3    H140288   6.612   1.734   0.764  1.6146  1.2095 -0.0613
 6291TIP3    H240289   6.504   1.667   0.681  0.2255 -0.4355  2.8635
 6292TIP3   OH240290   6.137   5.469  14.534  0.3768 -0.2760  0.2958
 6292TIP3    H140291   6.165   5.539  14.476  0.2143  0.6532  1.3223
 6292TIP3    H240292   6.207   5.404  14.530  0.7649  0.1752 -0.2622
 6293TIP3   OH240293   1.090   6.167   0.198 -0.1369  0.6067  0.0585
 6293TIP3    H140294   1.131   6.112   0.131  1.6429  0.0049  1.5521
 6293TIP3    H240295   1.080   6.109   0.274  2.8161  2.4309  2.0689
 6294TIP3   OH240296   2.776   3.409   2.696 -0.7258 -0.1769  0.3909
 6294TIP3    H140297   2.857   3.460   2.695 -0.7572 -0.1243  0.5484
 6294TIP3    H240298   2.795   3.333   2.641 -1.0895  0.6345 -0.8879
 6295TIP3   OH240299   6.525   6.156  11.438  0.2912 -0.0737 -0.5376
 6295TIP3    H140300   6.436   6.131  11.465  0.4628  1.1576  1.2547
 6295TIP3    H240301   6.559   6.209  11.509  2.2375  0.0858 -1.5093
 6296TIP3   OH240302   5.675   0.049  14.086  0.3744 -0.2210  0.3017
 6296TIP3    H140303   5.586   0.017  14.071  0.9909 -0.7149 -3.0100
 6296TIP3    H240304   5.664   0.141  14.111 -1.0586 -0.4806  0.6841
 6297TIP3   OH240305   2.229   3.347   3.736 -0.0995 -0.0351 -0.1731
 6297TIP3    H140306   2.239   3.435   3.771 -1.3481 -0.4085  1.2190
 6297TIP3    H240307   2.312   3.304   3.755 -0.1628  0.2745  0.8826
 6298TIP3   OH240308   0.543   5.776   2.416 -0.4932  0.4819  0.0884
 6298TIP3    H140309   0.525   5.761   2.323 -0.2765  1.1725 -0.0670
 6298TIP3    H240310   0.460   5.759   2.460 -1.1052  2.0230 -0.4440
 6299TIP3   OH240311   0.917   3.005  11.302 -0.4650  0.3512 -0.4212
 6299TIP3    H140312   0.911   2.941  11.373 -1.8521 -0.5298 -1.2931
 6299TIP3    H240313   0.838   3.059  11.312 -0.5178  0.4124 -1.1086
 6300TIP3   OH240314   1.141   0.370  15.165  0.0230 -0.0423  0.9507
 6300TIP3    H140315   1.110   0.280  15.158  1.2294 -0.6843  2.9512
 6300TIP3    H240316   1.232   0.367  15.138 -0.0588  0.6928  0.5488
 6301TIP3   OH240317   3.246   0.917   4.161 -0.5196 -0.0275  0.5022
 6301TIP3    H140318   3.280   0.913   4.072 -0.7507  0.9802  0.3634
 6301TIP3    H240319   3.250   0.826   4.192 -0.7741 -0.4489 -0.6575
 6302TIP3   OH240320   2.904   2.338   1.252  0.5767  0.3827  0.0968
 6302TIP3    H140321   2.886   2.254   1.209  1.8179  0.7993 -1.3492
 6302TIP3    H240322   2.986   2.324   1.298 -0.4249  0.1343  1.8631
 6303TIP3   OH240323   6.487   0.272   5.258  0.5188  0.3376  0.0033
 6303TIP3    H140324   6.533   0.356   5.249  0.4893  0.3654  0.1039
 6303TIP3    H240325   6.496   0.230   5.173  2.9405 -0.7788  0.7237
 6304TIP3   OH240326   0.617   4.860   1.794 -0.1415  0.1679  0.1409
 6304TIP3    H140327   0.649   4.904   1.873  0.1331 -0.0059  0.1274
 6304TIP3    H240328   0.553   4.797   1.827  1.5480 -1.4705  0.4786
 6305TIP3   OH240329   4.738   5.996   1.983  0.1915  0.1146 -0.8188
 6305TIP3    H140330   4.824   6.037   1.994 -1.4218  3.2550  1.7731
 6305TIP3    H240331   4.701   6.039   1.906 -0.5056  1.7872  0.3981
 6306TIP3   OH240332   2.307   2.676  16.644  0.0907  0.0156 -0.2717
 6306TIP3    H140333   2.331   2.669  16.737  1.5811 -2.5770 -0.7522
 6306TIP3    H240334   2.212   2.666  16.643  0.0980 -0.3266  0.9505
 6307TIP3   OH240335   0.234   4.540   1.668  0.3609 -0.4014  0.6598
 6307TIP3    H140336   0.316   4.583   1.641 -0.2769  1.1664  1.1450
 6307TIP3    H240337   0.263   4.469   1.725  1.4640 -0.8964 -0.4411
 6308TIP3   OH240338   5.394   0.911   6.110  0.5174 -0.1717 -0.4325
 6308TIP3    H140339   5.336   0.847   6.071 -0.5603 -0.2221  1.1508
 6308TIP3    H240340   5.401   0.885   6.202 -0.0358  1.9986  0.2996
 6309TIP3   OH240341   5.624   3.242  12.850 -0.7946  0.4783  0.3299
 6309TIP3    H140342   5.673   3.203  12.777 -0.4875  0.3054  0.6273
 6309TIP3    H240343   5.622   3.173  12.916  0.3784  1.1917  1.1506
 6310TIP3   OH240344   0.563   6.290  16.374  0.6847  0.2606 -0.3176
 6310TIP3    H140345   0.632   6.224  16.369  1.3745  0.7745  1.6260
 6310TIP3    H240346   0.605   6.366  16.414 -0.8192  0.8797  0.1580
 6311TIP3   OH240347   2.416   4.267  12.711  1.1815 -0.7272  0.1327
 6311TIP3    H140348   2.331   4.228  12.692 -0.1576  2.2972 -0.7893
 6311TIP3    H240349   2.444   4.226  12.793 -2.2492 -0.3278  1.6785
 6312TIP3   OH240350   3.212   6.463   0.172 -0.3156  0.2062  1.3235
 6312TIP3    H140351   3.283   6.440   0.113 -0.6079 -2.3029  1.8207
 6312TIP3    H240352   3.212   6.559   0.174  1.5661  0.3132 -0.4199
 6313TIP3   OH240353   2.216   3.540  12.322 -0.4209 -0.2600 -0.5165
 6313TIP3    H140354   2.302   3.569  12.289 -0.6920  0.8072 -0.3270
 6313TIP3    H240355   2.198   3.460  12.274  1.7244 -1.8152  1.0680
 6314TIP3   OH240356   5.448   6.551   6.032  0.0789 -0.4021  0.5729
 6314TIP3    H140357   5.417   6.482   6.090  1.2929  1.3012  3.4934
 6314TIP3    H240358   5.380   6.619   6.036 -0.0270 -0.4427 -0.3729
 6315TIP3   OH240359   5.223   1.019   4.065  0.5161  0.0603 -0.5124
 6315TIP3    H140360   5.289   0.987   4.126  0.5825  0.1513 -0.5364
 6315TIP3    H240361   5.171   1.081   4.116 -0.5522 -1.1782 -0.0286
 6316TIP3   OH240362   2.625   2.155   0.630  0.1119  0.4171  0.3752
 6316TIP3    H140363   2.542   2.197   0.604  0.1025  0.9234  1.1785
 6316TIP3    H240364   2.634   2.176   0.723  1.5319  1.0206  0.1269
 6317TIP3   OH240365   4.878   5.231   5.360  0.1307 -0.4686 -0.2347
 6317TIP3    H140366   4.840   5.209   5.275  0.5283 -0.7474 -0.3428
 6317TIP3    H240367   4.803   5.258   5.413 -0.1355 -0.4009 -0.6382
 6318TIP3   OH240368   0.244   3.117  16.057 -0.0099 -0.4441  0.1496
 6318TIP3    H140369   0.265   3.171  15.981 -1.0207 -2.0142 -1.3236
 6318TIP3    H240370   0.158   3.147  16.085 -0.4361 -1.0360 -0.4804
 6319TIP3   OH240371   4.495   3.812  14.701 -0.3088  0.1971  0.2272
 6319TIP3    H140372   4.434   3.835  14.631 -0.9691 -0.7671  0.4652
 6319TIP3    H240373   4.564   3.878  14.696 -1.1453  1.0406 -0.3352
 6320TIP3   OH240374   4.390   2.229  12.356 -0.7037  0.4497  0.4816
 6320TIP3    H140375   4.421   2.303  12.305 -0.4493  1.3209  1.8548
 6320TIP3    H240376   4.351   2.268  12.434 -0.7672 -0.8504  1.1225
 6321TIP3   OH240377   2.049   4.718  13.454  0.5410 -0.0564  0.0288
 6321TIP3    H140378   2.031   4.644  13.395 -1.3164 -0.0516  0.5330
 6321TIP3    H240379   2.143   4.711  13.473  0.4228 -2.2966  0.0585
 6322TIP3   OH240380   5.658   2.133  15.578  0.1878  0.2366  0.2643
 6322TIP3    H140381   5.568   2.106  15.562  0.3141 -0.0239 -0.0043
 6322TIP3    H240382   5.707   2.051  15.588  0.3056  0.3819  0.9065
 6323TIP3   OH240383   4.772   1.427   2.976 -0.5589  0.1058 -0.1614
 6323TIP3    H140384   4.866   1.409   2.987 -0.1830  0.8534 -1.7768
 6323TIP3    H240385   4.767   1.522   2.972 -1.6096  0.1392  1.4140
 6324TIP3   OH240386   3.879   2.998  11.637  0.1057  0.2066 -0.3247
 6324TIP3    H140387   3.828   2.965  11.563 -2.8801  0.5570  1.4160
 6324TIP3    H240388   3.891   2.922  11.694 -1.0966  0.6725  0.6158
 6325TIP3   OH240389   3.121   0.981   5.332 -0.1216 -0.1784  0.2362
 6325TIP3    H140390   3.209   0.956   5.302  0.2837  0.1134  1.1502
 6325TIP3    H240391   3.127   1.076   5.343 -1.2950  0.2387 -2.0809
 6326TIP3   OH240392   3.261   2.772   2.095 -0.4134  0.0045  0.0295
 6326TIP3    H140393   3.226   2.724   2.020 -4.9481  0.0218  1.8048
 6326TIP3    H240394   3.259   2.710   2.167 -0.1574  1.0779  0.9976
 6327TIP3   OH240395   6.041   4.707  13.652 -0.4383 -0.3868 -0.1256
 6327TIP3    H140396   5.960   4.674  13.613  0.1679 -2.5115  0.2632
 6327TIP3    H240397   6.035   4.681  13.745 -0.2077  1.2739  0.3824
 6328TIP3   OH240398   5.590   0.671   2.323  0.2608  0.9106 -0.1173
 6328TIP3    H140399   5.514   0.718   2.288 -1.3953 -1.9811 -0.7404
 6328TIP3    H240400   5.624   0.622   2.248 -0.4153 -1.7072  1.1669
 6329TIP3   OH240401   0.591   0.868  13.350  0.0827  0.3003 -0.2639
 6329TIP3    H140402   0.544   0.823  13.280  0.1331  0.9598 -0.7337
 6329TIP3    H240403   0.545   0.952  13.358 -0.3597 -0.0362  0.9685
 6330TIP3   OH240404   5.448   2.989   1.665  0.1169  0.1951  0.2165
 6330TIP3    H140405   5.479   2.931   1.596 -0.4187  0.1746 -0.0086
 6330TIP3    H240406   5.508   2.973   1.739 -0.2150 -0.8657  0.2658
 6331TIP3   OH240407   6.494   2.883  16.778  0.4631 -0.2590  0.7040
 6331TIP3    H140408   6.497   2.799  16.824  2.2728 -0.4987  0.2098
 6331TIP3    H240409   6.555   2.939  16.825 -2.7432  1.8360  2.8072
 6332TIP3   OH240410   5.252   4.018   4.561 -0.7825  0.1993 -0.8262
 6332TIP3    H140411   5.272   4.079   4.632 -0.5711 -0.9271  0.0948
 6332TIP3    H240412   5.158   4.001   4.569 -0.5917 -0.6087 -0.2642
 6333TIP3   OH240413   5.461   4.889  16.713 -0.0552 -0.0392 -0.0828
 6333TIP3    H140414   5.511   4.812  16.739 -0.3023 -0.5347 -1.0412
 6333TIP3    H240415   5.526   4.959  16.706  0.1066 -0.0200  1.2435
 6334TIP3   OH240416   0.948   2.629   2.560  0.4462 -0.3007 -0.3273
 6334TIP3    H140417   0.916   2.627   2.651  1.5802 -0.0693  0.0858
 6334TIP3    H240418   0.903   2.556   2.518  2.6192 -2.7623  1.3529
 6335TIP3   OH240419   4.606   3.175   5.232 -0.0868 -0.2475  0.0036
 6335TIP3    H140420   4.583   3.087   5.261  0.8966 -0.1831  1.0216
 6335TIP3    H240421   4.615   3.226   5.312  0.0823  0.6048 -0.5369
 6336TIP3   OH240422   3.255   1.810  12.302  0.0955  0.3178  0.0033
 6336TIP3    H140423   3.313   1.860  12.245 -0.1236 -1.5301 -1.9974
 6336TIP3    H240424   3.174   1.861  12.305  0.3592  0.7967 -0.7624
 6337TIP3   OH240425   1.252   1.736   1.559 -0.0292 -0.1241  0.1121
 6337TIP3    H140426   1.212   1.790   1.491  0.3948 -0.0290 -0.0687
 6337TIP3    H240427   1.279   1.798   1.626  0.5504 -0.0892 -0.1420
 6338TIP3   OH240428   0.204   0.254   3.809 -0.0535 -0.1720 -0.1571
 6338TIP3    H140429   0.163   0.170   3.828  2.5630 -1.3393  0.7162
 6338TIP3    H240430   0.269   0.235   3.742  2.1980  0.6274  1.6809
 6339TIP3   OH240431   4.419   6.782   0.966 -0.8276 -0.3126  0.2659
 6339TIP3    H140432   4.375   6.800   0.883 -2.3344 -0.9485  0.8708
 6339TIP3    H240433   4.437   6.869   1.003  1.1344  0.0187 -1.2964
 6340TIP3   OH240434   0.654   3.909   3.532  0.8007 -0.0931  0.1531
 6340TIP3    H140435   0.655   3.872   3.444 -0.7230 -0.3704  0.2140
 6340TIP3    H240436   0.651   3.832   3.589 -0.3412  0.0714  0.3492
 6341TIP3   OH240437   0.868   3.996   2.177 -0.1691 -0.2460  0.2643
 6341TIP3    H140438   0.941   3.982   2.116 -0.2677 -2.6619  0.5984
 6341TIP3    H240439   0.796   4.024   2.121  0.2695 -0.5333 -0.4687
 6342TIP3   OH240440   4.283   2.877   2.032  0.1071 -0.3240  0.4999
 6342TIP3    H140441   4.374   2.906   2.031  0.5138 -1.5529 -0.9100
 6342TIP3    H240442   4.234   2.950   1.994  0.6822 -0.1956 -0.0065
 6343TIP3   OH240443   3.445   5.141   2.979  0.2196  0.1578 -0.2177
 6343TIP3    H140444   3.433   5.222   3.029  3.8225  1.3587 -0.9817
 6343TIP3    H240445   3.480   5.079   3.042  0.5587  0.2552 -0.3084
 6344TIP3   OH240446   1.029   5.579   0.514  0.5444  0.0133  0.1773
 6344TIP3    H140447   1.064   5.530   0.588  1.0465  1.4852  0.9565
 6344TIP3    H240448   0.967   5.518   0.472  0.2607 -0.8631  1.7828
 6345TIP3   OH240449   6.129   1.174   3.606  0.0695  0.0484 -0.4247
 6345TIP3    H140450   6.137   1.082   3.631 -2.1525 -0.3601 -0.9318
 6345TIP3    H240451   6.068   1.173   3.532 -1.8655  2.0925  1.0084
 6346TIP3   OH240452   1.087   2.867   2.712 -0.4292  0.5487 -0.7164
 6346TIP3    H140453   1.163   2.902   2.665  0.9637  0.4092  1.2603
 6346TIP3    H240454   1.062   2.789   2.664 -0.6075  1.6786 -2.5399
 6347TIP3   OH240455   1.688   0.471  12.606  0.7404  0.3989 -0.1526
 6347TIP3    H140456   1.642   0.403  12.655  1.0224 -0.3375 -0.8750
 6347TIP3    H240457   1.722   0.530  12.673  2.3975 -1.3773  0.6649
 6348TIP3   OH240458   6.021   6.375   0.005 -0.3023 -0.0895  0.3178
 6348TIP3    H140459   5.938   6.333  -0.020  0.1159 -0.1669 -1.0072
 6348TIP3    H240460   6.067   6.388  -0.078  1.6642 -1.3788  1.1596
 6349TIP3   OH240461   6.571   3.281  13.952 -0.2777  0.3195  0.5745
 6349TIP3    H140462   6.582   3.256  14.044  0.6377 -1.8047 -0.0537
 6349TIP3    H240463   6.477   3.271  13.935 -0.6524  1.9063  1.5626
 6350TIP3   OH240464   2.231   0.589   3.813 -0.2735  0.7135  0.1140
 6350TIP3    H140465   2.324   0.570   3.808 -0.4686 -0.6035  1.0234
 6350TIP3    H240466   2.192   0.539   3.741 -0.3566  0.7322  0.1457
 6351TIP3   OH240467   5.097   5.143   3.977  0.8174  0.1377  0.1151
 6351TIP3    H140468   5.138   5.063   4.010 -2.0977 -1.4428  0.2714
 6351TIP3    H240469   5.004   5.121   3.970 -0.0035  3.3063 -0.5867
 6352TIP3   OH240470   4.328   3.850   6.347 -0.1444  0.0770 -0.1316
 6352TIP3    H140471   4.358   3.814   6.431  0.9885  1.2229 -0.0162
 6352TIP3    H240472   4.248   3.801   6.328  0.4749 -1.3876  0.7838
 6353TIP3   OH240473   4.821   6.019   1.235  0.6684  0.2971 -0.2941
 6353TIP3    H140474   4.839   6.021   1.141 -2.5675  1.7471 -1.0224
 6353TIP3    H240475   4.905   6.041   1.275  1.5612  2.4409 -2.9892
 6354TIP3   OH240476   6.296   6.499   1.940  0.1689 -0.0349  0.1119
 6354TIP3    H140477   6.348   6.439   1.886  0.4651  0.2183  0.1134
 6354TIP3    H240478   6.349   6.514   2.018  0.8448  1.4817 -0.5847
 6355TIP3   OH240479   4.043   0.996  16.258  0.5927 -0.1033 -0.2868
 6355TIP3    H140480   4.101   0.967  16.187  1.2721 -1.2810  0.7001
 6355TIP3    H240481   4.040   0.921  16.317 -0.6591  0.5446  0.4954
 6356TIP3   OH240482   0.276   5.758   1.545  0.5097  0.1080  0.2121
 6356TIP3    H140483   0.278   5.667   1.573  0.3087  0.0452  0.0235
 6356TIP3    H240484   0.293   5.809   1.625 -0.0629 -0.0671  0.4438
 6357TIP3   OH240485   0.427   1.959   1.433 -0.2290 -0.4174 -0.1693
 6357TIP3    H140486   0.452   1.896   1.366  0.9242 -1.7024  1.3883
 6357TIP3    H240487   0.344   1.925   1.468 -0.1537 -0.4981 -0.0651
 6358TIP3   OH240488   1.903   1.330   1.759 -0.0583  0.3240 -0.4426
 6358TIP3    H140489   1.813   1.310   1.786  0.1845  0.9094  0.8969
 6358TIP3    H240490   1.911   1.425   1.771  1.2797  0.0386  1.2666
 6359TIP3   OH240491   2.008   3.952   4.293 -0.6575 -0.1061  0.3723
 6359TIP3    H140492   1.960   4.009   4.353 -2.4493 -0.5635 -0.5593
 6359TIP3    H240493   1.945   3.884   4.269  1.0939 -1.9260  0.6405
 6360TIP3   OH240494   0.097   1.571  14.808  0.3376  0.0779  0.1735
 6360TIP3    H140495   0.092   1.480  14.779  2.0488 -0.8368  2.3884
 6360TIP3    H240496   0.087   1.622  14.729  0.2101 -2.0666 -1.2894
 6361TIP3   OH240497   0.680   6.088  12.661 -0.2008 -0.4354  0.0742
 6361TIP3    H140498   0.773   6.112  12.654 -0.6992  1.4747 -0.3049
 6361TIP3    H240499   0.634   6.171  12.667 -1.8268 -1.3827  1.4349
 6362TIP3   OH240500   2.714   3.631   3.479  0.5268  0.3206  0.2426
 6362TIP3    H140501   2.783   3.676   3.528  0.4695 -0.3059  0.9253
 6362TIP3    H240502   2.634   3.680   3.499  0.7992  1.1984 -0.7502
 6363TIP3   OH240503   3.024   1.781  15.614  0.4403  0.3956  0.5102
 6363TIP3    H140504   3.099   1.722  15.625  0.3535  0.3829  1.0542
 6363TIP3    H240505   2.954   1.724  15.581  0.4184  0.2352  0.8305
 6364TIP3   OH240506   1.144   3.318  14.462  0.1590 -0.8410 -0.3138
 6364TIP3    H140507   1.184   3.249  14.410 -0.1690 -2.2694  1.2422
 6364TIP3    H240508   1.201   3.328  14.538 -0.2577 -0.0114 -0.0965
 6365TIP3   OH240509   1.821   2.488   5.246 -0.3253  0.1741  0.1007
 6365TIP3    H140510   1.914   2.480   5.265 -0.2424  0.1616 -0.3007
 6365TIP3    H240511   1.812   2.459   5.155 -0.7782 -0.1996  0.2543
 6366TIP3   OH240512   6.181   0.109  12.061  0.3892 -0.0413 -0.3092
 6366TIP3    H140513   6.257   0.050  12.053 -0.7602 -1.8599  1.2628
 6366TIP3    H240514   6.134   0.076  12.137 -2.2729  0.7099 -1.5378
 6367TIP3   OH240515   3.428   2.267   1.848  0.5714 -0.4141  0.0892
 6367TIP3    H140516   3.509   2.240   1.804  0.2522 -0.2743 -0.5891
 6367TIP3    H240517   3.359   2.252   1.783  0.0331 -0.6366  0.6973
 6368TIP3   OH240518   0.827   0.302  16.876  0.0354 -0.8682 -0.6262
 6368TIP3    H140519   0.877   0.351  16.810  1.3398 -0.9060  0.2861
 6368TIP3    H240520   0.796   0.224  16.829  1.1008 -0.9880 -1.1652
 6369TIP3   OH240521   6.411   0.755  14.104 -0.6104  0.1922 -0.7576
 6369TIP3    H140522   6.383   0.761  14.013  0.1503  1.4502 -0.9416
 6369TIP3    H240523   6.329   0.756  14.155 -1.2245 -3.1706 -1.4308
 6370TIP3   OH240524   6.079   1.983  15.922 -0.4354 -0.4870  0.3898
 6370TIP3    H140525   6.066   1.924  15.997  1.3340 -0.4600  0.7510
 6370TIP3    H240526   6.171   1.975  15.900 -0.5318  0.8693 -0.6601
 6371TIP3   OH240527   2.537   0.148   3.446  0.1283  0.1571  0.8891
 6371TIP3    H140528   2.616   0.189   3.411  0.3177 -1.1462 -0.2950
 6371TIP3    H240529   2.501   0.099   3.372 -0.9436 -0.5198  1.8261
 6372TIP3   OH240530   2.802   0.388   3.613 -0.2683 -0.2314  0.1510
 6372TIP3    H140531   2.852   0.336   3.676  0.9219  0.6759 -0.0184
 6372TIP3    H240532   2.742   0.439   3.668 -0.5684 -0.8388  0.4021
 6373TIP3   OH240533   3.283   6.011  10.585 -0.4879  0.0704  0.7584
 6373TIP3    H140534   3.218   5.956  10.541  0.7226 -0.6911 -0.1415
 6373TIP3    H240535   3.368   5.978  10.554  0.3106  1.7907  0.9698
 6374TIP3   OH240536   6.264   2.032   5.232  0.2027  0.5811  0.5085
 6374TIP3    H140537   6.331   1.963   5.227  0.2863  0.6645  0.4739
 6374TIP3    H240538   6.238   2.047   5.141 -0.3278  0.0978  0.5736
 6375TIP3   OH240539   4.223   4.382  15.271 -0.2250 -0.6001 -0.1497
 6375TIP3    H140540   4.288   4.366  15.203 -0.7700  0.4593 -0.9533
 6375TIP3    H240541   4.271   4.426  15.341  0.3932 -1.9162  0.2892
 6376TIP3   OH240542   0.191   3.542  11.779  0.1743  0.2824 -0.1165
 6376TIP3    H140543   0.103   3.535  11.742  0.5184  0.9537 -1.1017
 6376TIP3    H240544   0.241   3.473  11.735  0.1928  0.0385  0.2843
 6377TIP3   OH240545   2.076   2.253   0.525  0.0640  0.2617 -0.2698
 6377TIP3    H140546   2.146   2.204   0.482 -0.7777  1.8407 -3.7758
 6377TIP3    H240547   1.995   2.213   0.493 -0.6229  1.5112 -0.1735
 6378TIP3   OH240548   0.443   4.999   2.624  0.4677 -0.0941 -0.8838
 6378TIP3    H140549   0.483   4.944   2.691 -0.2627  0.6628  0.2211
 6378TIP3    H240550   0.510   5.065   2.604  0.5709 -0.1335 -0.6700
 6379TIP3   OH240551   0.062   4.115   2.006  0.4337 -0.6321 -0.5051
 6379TIP3    H140552   0.118   4.193   2.007 -0.1251 -0.1740  2.5197
 6379TIP3    H240553   0.074   4.075   2.092 -2.4165 -1.6144 -0.4733
 6380TIP3   OH240554   6.470   5.694  16.537  0.1281  0.2537 -0.6315
 6380TIP3    H140555   6.563   5.712  16.547 -0.0318  2.0047 -1.7450
 6380TIP3    H240556   6.435   5.772  16.494 -1.6045 -0.9119 -1.4880
 6381TIP3   OH240557   0.877   1.344   2.616  0.1595 -0.7091 -0.1434
 6381TIP3    H140558   0.930   1.367   2.540  1.3510 -0.0830  0.8553
 6381TIP3    H240559   0.816   1.418   2.626  0.2962 -0.5874 -0.2166
 6382TIP3   OH240560   5.327   0.273   0.417 -0.1642  0.0705 -0.6215
 6382TIP3    H140561   5.329   0.352   0.472 -1.2746 -0.0135 -0.4447
 6382TIP3    H240562   5.391   0.214   0.457 -0.2170  0.4068 -0.0272
 6383TIP3   OH240563   5.789   0.588   2.133  0.1435 -0.1858 -0.2596
 6383TIP3    H140564   5.873   0.589   2.179  0.6744  0.5678 -1.2237
 6383TIP3    H240565   5.804   0.533   2.056 -0.7902 -1.5855  0.4973
 6384TIP3   OH240566   5.608   4.926  14.514  0.3408  0.4253  0.3655
 6384TIP3    H140567   5.599   5.018  14.488  0.2117  1.1495  2.7428
 6384TIP3    H240568   5.520   4.890  14.503  0.0029  1.0470  0.9369
 6385TIP3   OH240569   3.720   4.313  15.417 -0.2877  0.3669 -0.0426
 6385TIP3    H140570   3.642   4.365  15.401 -0.0451  0.5421 -0.6780
 6385TIP3    H240571   3.792   4.365  15.382  0.1834  0.4322  0.9852
 6386TIP3   OH240572   1.947   5.173  15.036 -0.5288 -0.7828 -0.4953
 6386TIP3    H140573   1.858   5.166  15.070 -0.4201 -0.9309 -0.2368
 6386TIP3    H240574   1.977   5.260  15.063  0.2416 -1.5981  1.4883
 6387TIP3   OH240575   5.378   2.655  13.333 -0.0977 -0.1980 -0.2423
 6387TIP3    H140576   5.392   2.579  13.276  0.5716 -1.7320  1.8278
 6387TIP3    H240577   5.397   2.622  13.421 -0.9018  2.1060  0.8647
 6388TIP3   OH240578   2.359   4.817  14.282  0.0961  0.2258  0.0744
 6388TIP3    H140579   2.389   4.742  14.333 -3.2981  0.3617  2.6382
 6388TIP3    H240580   2.380   4.796  14.191  2.1334 -2.2543  1.0065
 6389TIP3   OH240581   5.352   3.572  12.569 -0.0048  0.9770  0.1206
 6389TIP3    H140582   5.403   3.558  12.650  0.9042 -0.4650 -0.6438
 6389TIP3    H240583   5.390   3.651  12.530 -0.8617  2.0476  1.3729
 6390TIP3   OH240584   0.252   1.051  11.076 -0.0072  0.0696 -0.1066
 6390TIP3    H140585   0.337   1.084  11.107 -0.2006 -0.5638  1.1549
 6390TIP3    H240586   0.275   0.980  11.016  0.3609 -0.1346  0.2716
 6391TIP3   OH240587   0.567   3.758  11.976 -0.4736  0.1694 -0.0604
 6391TIP3    H140588   0.562   3.663  11.982 -1.6408  0.1145 -1.3231
 6391TIP3    H240589   0.629   3.774  11.905 -1.2094  0.2924 -0.6966
 6392TIP3   OH240590   2.681   4.222   4.427  0.5874 -0.7447 -0.0091
 6392TIP3    H140591   2.771   4.251   4.444  0.3711 -0.0320 -0.0292
 6392TIP3    H240592   2.636   4.302   4.399 -0.4516 -0.7542  1.5529
 6393TIP3   OH240593   2.253   4.386   4.949 -0.0118 -0.1587 -0.1782
 6393TIP3    H140594   2.345   4.383   4.924  0.5593 -1.2219  1.8235
 6393TIP3    H240595   2.243   4.471   4.993 -0.2769  0.4144 -1.3129
 6394TIP3   OH240596   3.373   6.073   2.549  0.0235 -0.0633 -0.7134
 6394TIP3    H140597   3.280   6.084   2.529  0.1073  1.9776 -0.1633
 6394TIP3    H240598   3.380   6.095   2.642  0.8570 -1.6764 -0.3589
 6395TIP3   OH240599   0.734   3.972  13.054 -0.5617  0.1398  0.6043
 6395TIP3    H140600   0.646   3.947  13.029  0.2119 -0.6369 -1.6111
 6395TIP3    H240601   0.790   3.904  13.018  0.9472  0.3860  2.3068
 6396TIP3   OH240602   4.248   5.904   5.505 -0.4679  0.0464  0.1747
 6396TIP3    H140603   4.221   5.974   5.564 -0.2517  0.8182 -0.6335
 6396TIP3    H240604   4.207   5.925   5.422 -0.2986 -0.7273 -0.1167
 6397TIP3   OH240605   4.002   6.790  11.207  0.3078  0.0148  0.0045
 6397TIP3    H140606   3.956   6.710  11.182 -1.7384  1.4455 -1.1157
 6397TIP3    H240607   4.014   6.837  11.125 -1.4530  2.2859  0.9523
 6398TIP3   OH240608   6.204   6.412  15.893 -0.5320  0.1777  0.3339
 6398TIP3    H140609   6.110   6.412  15.878 -0.4324 -0.0496 -0.3251
 6398TIP3    H240610   6.242   6.389  15.808  0.1155  0.2346  0.6009
 6399TIP3   OH240611   0.775   1.872   2.728  0.2207 -0.2363 -0.1432
 6399TIP3    H140612   0.795   1.946   2.785 -0.6603  3.1066 -3.7249
 6399TIP3    H240613   0.683   1.853   2.744  0.2669 -0.0575  0.3346
 6400TIP3   OH240614   6.349   4.900  12.005 -0.5483 -0.4985  0.0162
 6400TIP3    H140615   6.365   4.810  11.976 -1.7465  0.1335 -2.9373
 6400TIP3    H240616   6.433   4.929  12.040 -0.1261 -2.7191  1.0054
 6401TIP3   OH240617   4.330   2.041   0.264  0.1791  0.4078  0.1986
 6401TIP3    H140618   4.420   2.010   0.275  0.3114  0.5101 -0.5486
 6401TIP3    H240619   4.311   2.026   0.171  0.4773  3.1045 -0.3958
 6402TIP3   OH240620   1.408   0.012  13.410 -0.0244  0.3322 -0.0950
 6402TIP3    H140621   1.414   0.013  13.505 -0.2416 -0.2208 -0.0775
 6402TIP3    H240622   1.374  -0.074  13.388 -2.0224  1.1748 -0.5611
 6403TIP3   OH240623   5.269   1.925   1.637  0.2877 -0.0990  0.0061
 6403TIP3    H140624   5.184   1.964   1.656  0.0763 -0.5850  0.0775
 6403TIP3    H240625   5.254   1.831   1.646  0.3234 -0.3290 -1.9918
 6404TIP3   OH240626   3.097   3.631  17.136 -0.3404  0.1715 -0.7312
 6404TIP3    H140627   3.100   3.620  17.231 -2.4718  0.6575 -0.5556
 6404TIP3    H240628   3.052   3.552  17.104  0.9717 -0.3218 -1.4378
 6405TIP3   OH240629   2.176   4.985  15.045 -0.0599  0.1780 -0.0815
 6405TIP3    H140630   2.242   5.021  15.105 -0.1763  0.4382 -0.1117
 6405TIP3    H240631   2.100   5.042  15.056  0.0251  0.4142 -0.7067
 6406TIP3   OH240632   3.898   3.882   4.931 -0.1118 -0.0909 -0.3957
 6406TIP3    H140633   3.969   3.844   4.878 -1.2407 -0.0877 -1.9792
 6406TIP3    H240634   3.819   3.836   4.903 -1.1757  1.8296 -0.7604
 6407TIP3   OH240635   1.058   0.132   1.800  0.3187  0.4445 -0.3550
 6407TIP3    H140636   1.075   0.082   1.880  0.3601 -0.8597 -1.1580
 6407TIP3    H240637   0.992   0.081   1.753  0.3705  1.1411 -1.2087
 6408TIP3   OH240638   5.337   3.448   1.281 -0.2780  0.1863 -0.0796
 6408TIP3    H140639   5.387   3.390   1.338 -0.7040 -0.6128 -0.5035
 6408TIP3    H240640   5.350   3.535   1.318 -0.8021 -0.3479  1.4293
 6409TIP3   OH240641   1.364   1.187   2.648  0.0109  0.4598  0.6413
 6409TIP3    H140642   1.333   1.124   2.713 -1.6955 -0.4260 -0.9289
 6409TIP3    H240643   1.446   1.150   2.616 -0.6826 -0.7432  0.1477
 6410TIP3   OH240644   5.598   3.287   4.443 -0.0304  0.0851 -0.1577
 6410TIP3    H140645   5.559   3.245   4.366 -0.1667  0.9141 -0.5479
 6410TIP3    H240646   5.526   3.337   4.482  0.4206  0.9383 -0.3945
 6411TIP3   OH240647   3.718   2.180  16.904  0.6013  0.6678 -0.3580
 6411TIP3    H140648   3.633   2.139  16.892  1.3342 -0.7303 -1.0802
 6411TIP3    H240649   3.719   2.254  16.843 -0.3371  1.1275  0.1721
 6412TIP3   OH240650   2.138   0.218   5.169 -0.1624  0.5605 -0.6210
 6412TIP3    H140651   2.157   0.186   5.257 -1.0080 -0.4679 -0.7901
 6412TIP3    H240652   2.188   0.161   5.111 -1.5975 -0.4538 -0.9211
 6413TIP3   OH240653   4.657   3.983   1.022  0.3213  0.1939  0.2381
 6413TIP3    H140654   4.683   3.896   0.990 -2.7597 -0.8536  0.2328
 6413TIP3    H240655   4.646   4.035   0.943  0.8329  0.1828  0.1548
 6414TIP3   OH240656   2.588   4.746  11.468  0.1872  0.1457  0.3499
 6414TIP3    H140657   2.613   4.835  11.445  1.8969 -0.5782 -0.8348
 6414TIP3    H240658   2.599   4.696  11.387  1.0603 -1.4764  1.3913
 6415TIP3   OH240659   2.486   3.745   4.769 -0.1836 -0.2172 -0.2402
 6415TIP3    H140660   2.468   3.832   4.733 -2.5038  0.0527  1.3490
 6415TIP3    H240661   2.432   3.685   4.717  0.7784 -0.6361 -0.7931
 6416TIP3   OH240662   1.133   2.680   0.436 -0.2376  0.5124  1.1862
 6416TIP3    H140663   1.124   2.675   0.531 -1.1227  0.5154  1.1076
 6416TIP3    H240664   1.044   2.683   0.403  0.0520  0.2435  0.3359
 6417TIP3   OH240665   2.516   0.527  13.399 -0.0700 -0.2805  0.8909
 6417TIP3    H140666   2.592   0.566  13.442  0.2548 -1.3417  1.3149
 6417TIP3    H240667   2.521   0.434  13.421 -1.2851 -0.4318  0.6073
 6418TIP3   OH240668   6.753   3.859   1.788 -0.4338 -0.5398 -0.4766
 6418TIP3    H140669   6.827   3.912   1.758 -1.1933  0.8600  0.0410
 6418TIP3    H240670   6.694   3.856   1.712 -0.6521 -0.1341 -0.3290
 6419TIP3   OH240671   2.112   1.651   4.581  0.1453 -1.0542  0.0997
 6419TIP3    H140672   2.116   1.677   4.489  1.4035 -1.7002 -0.0533
 6419TIP3    H240673   2.021   1.666   4.606  0.1556  0.6479 -0.7810
 6420TIP3   OH240674   3.122   5.686  16.997 -0.2509  0.4465  0.1124
 6420TIP3    H140675   3.150   5.613  16.942 -1.3813 -0.8951  1.2287
 6420TIP3    H240676   3.159   5.667  17.083  0.3027  1.7560  0.1943
 6421TIP3   OH240677   4.944   0.278  11.028  0.4092 -0.3624  0.4888
 6421TIP3    H140678   5.019   0.322  11.069  0.3432 -1.1067  1.4169
 6421TIP3    H240679   4.873   0.341  11.036  1.1245  0.7673 -1.2714
 6422TIP3   OH240680   3.677   0.080   5.731 -0.2071 -0.4205 -0.1136
 6422TIP3    H140681   3.596   0.099   5.779 -1.5169 -2.5568 -1.3568
 6422TIP3    H240682   3.660   0.109   5.642  1.2537  1.0795  0.0343
 6423TIP3   OH240683   4.240   1.701  14.269 -0.0842 -0.6629 -0.1950
 6423TIP3    H140684   4.334   1.713  14.253 -0.6237  1.8986 -2.3176
 6423TIP3    H240685   4.224   1.745  14.353  0.4024  0.3441 -0.6111
 6424TIP3   OH240686   1.703   3.171   2.671 -0.7267  0.0034  0.7304
 6424TIP3    H140687   1.705   3.178   2.575 -0.4486  0.6476  0.7766
 6424TIP3    H240688   1.762   3.240   2.701 -0.7538 -0.2424  1.3693
 6425TIP3   OH240689   4.319   3.880  16.116  0.3833 -0.0022 -0.4729
 6425TIP3    H140690   4.240   3.919  16.080 -0.8983 -0.5815  1.5254
 6425TIP3    H240691   4.317   3.904  16.209  4.2215  2.6216 -0.8521
 6426TIP3   OH240692   2.653   1.212  15.474  0.4819  0.2064  0.0594
 6426TIP3    H140693   2.566   1.254  15.471  0.6728  0.5729 -0.6691
 6426TIP3    H240694   2.635   1.123  15.505 -0.3365 -0.1517 -1.3485
 6427TIP3   OH240695   0.422   6.378  14.443  0.4062 -0.1265  0.1315
 6427TIP3    H140696   0.443   6.471  14.434  2.7865 -0.7455 -1.7555
 6427TIP3    H240697   0.344   6.376  14.499  1.4734  2.8719  1.9612
 6428TIP3   OH240698   1.138   2.426  11.869  0.6125 -0.9325 -0.2661
 6428TIP3    H140699   1.059   2.467  11.832  0.2484 -1.0014  0.4224
 6428TIP3    H240700   1.189   2.500  11.903 -0.6301 -1.0857  2.1169
 6429TIP3   OH240701   5.456   3.847   5.745 -0.0875 -0.3311 -0.2529
 6429TIP3    H140702   5.538   3.889   5.767 -0.1981  0.2063 -0.8600
 6429TIP3    H240703   5.477   3.754   5.738  0.1712 -0.3899  1.0105
 6430TIP3   OH240704   6.443   4.290  16.103  0.4686 -0.6608 -0.4224
 6430TIP3    H140705   6.453   4.296  16.008  0.8672 -1.4106 -0.4355
 6430TIP3    H240706   6.397   4.208  16.117  0.2765 -0.4776  0.0265
 6431TIP3   OH240707   6.764   4.327  12.270  0.2059  0.6689  0.0986
 6431TIP3    H140708   6.796   4.289  12.352  0.9185  1.1310  0.0442
 6431TIP3    H240709   6.784   4.420  12.277 -1.0866  0.9752  0.0243
 6432TIP3   OH240710   3.993   1.154   1.744  0.2646 -0.0074  0.2653
 6432TIP3    H140711   3.940   1.234   1.733  0.4975  0.3497  1.4801
 6432TIP3    H240712   3.929   1.083   1.743  0.1651  0.0438 -2.0056
 6433TIP3   OH240713   4.055   6.074  14.235 -0.0237  0.0134  0.6176
 6433TIP3    H140714   4.010   6.040  14.157 -0.5356  0.5278  0.6841
 6433TIP3    H240715   4.108   6.000  14.265  1.2445  0.1957 -0.9937
 6434TIP3   OH240716   1.010   0.162   4.312  0.1598 -0.6723 -0.0111
 6434TIP3    H140717   1.079   0.152   4.377  0.6478  1.3451 -0.1738
 6434TIP3    H240718   1.057   0.174   4.229 -0.2826  1.9646  0.0506
 6435TIP3   OH240719   6.447   1.525  13.054 -0.5902  0.0203 -0.2908
 6435TIP3    H140720   6.368   1.492  13.098  0.2216 -0.8565  0.5629
 6435TIP3    H240721   6.418   1.543  12.964 -1.7108 -0.5043 -0.0575
 6436TIP3   OH240722   5.301   6.105   3.652  0.8482 -0.4816  0.0151
 6436TIP3    H140723   5.346   6.039   3.704 -2.0517 -1.2788  1.7325
 6436TIP3    H240724   5.239   6.056   3.599 -2.2307  0.7251  2.1935
 6437TIP3   OH240725   2.458   5.492   2.320  0.1373  0.1121 -0.1977
 6437TIP3    H140726   2.380   5.547   2.310 -0.3838 -0.1505  1.8562
 6437TIP3    H240727   2.465   5.478   2.414  1.7192 -1.2653 -0.4699
 6438TIP3   OH240728   0.947   4.294  14.271 -0.0194  0.2996 -0.2289
 6438TIP3    H140729   0.881   4.228  14.252 -0.0998  0.0764  0.8036
 6438TIP3    H240730   1.028   4.245  14.284 -0.1251  0.3758  0.7601
 6439TIP3   OH240731   3.305   5.090   5.280 -0.5805 -0.1293 -0.3008
 6439TIP3    H140732   3.394   5.126   5.283 -1.1941  1.5326 -1.0920
 6439TIP3    H240733   3.303   5.027   5.352  1.1292  0.0555 -0.0432
 6440TIP3   OH240734   3.233   4.684  10.965  0.3287  0.4948  0.1293
 6440TIP3    H140735   3.275   4.616  10.914  1.6350 -0.0850  1.8770
 6440TIP3    H240736   3.289   4.761  10.953 -0.8389  1.1523 -1.3967
 6441TIP3   OH240737   0.590   0.731  17.034 -0.0405 -0.0356 -0.4184
 6441TIP3    H140738   0.537   0.659  17.068  0.2563 -0.1193 -0.1243
 6441TIP3    H240739   0.582   0.800  17.100 -2.0022  1.0221 -1.6471
 6442TIP3   OH240740   0.233   6.723   3.217  0.8383 -0.1571  0.3580
 6442TIP3    H140741   0.291   6.732   3.293 -0.3842 -0.3906  1.3575
 6442TIP3    H240742   0.260   6.793   3.158  1.4159  0.4207  1.2810
 6443TIP3   OH240743   6.319   1.626  11.997 -0.5814 -0.0533 -0.0899
 6443TIP3    H140744   6.338   1.711  12.036 -1.3836 -0.0454  0.2962
 6443TIP3    H240745   6.393   1.610  11.937 -0.4467  0.9286 -0.2005
 6444TIP3   OH240746   2.563   5.117  14.266  0.1527 -0.4338 -0.2041
 6444TIP3    H140747   2.541   5.082  14.353 -0.5319  1.4578  0.4212
 6444TIP3    H240748   2.652   5.151  14.276  0.1192 -0.3254 -0.2846
 6445TIP3   OH240749   4.097   5.450  12.224 -0.2894  0.3227 -0.1397
 6445TIP3    H140750   4.141   5.465  12.307  0.2378  1.2519 -0.5774
 6445TIP3    H240751   4.034   5.380  12.242  0.9878 -0.6631  0.6321
 6446TIP3   OH240752   4.844   2.485   3.521 -0.3165  0.5494  0.5321
 6446TIP3    H140753   4.788   2.409   3.533  0.9377 -0.7398 -1.2915
 6446TIP3    H240754   4.874   2.507   3.609 -1.6416 -0.3026  1.2253
 6447TIP3   OH240755   4.085   4.858  13.463 -0.4496 -0.3376  0.1640
 6447TIP3    H140756   4.157   4.901  13.509 -0.6065 -0.2749  0.3546
 6447TIP3    H240757   4.021   4.927  13.447  0.8406  0.3103 -2.8058
 6448TIP3   OH240758   0.102   0.013   0.356 -0.1475  0.1347 -0.5059
 6448TIP3    H140759   0.008   0.016   0.336 -0.9659  1.6058  2.7832
 6448TIP3    H240760   0.138   0.090   0.312 -1.1728  1.3380  0.6611
 6449TIP3   OH240761   3.230   6.790  12.328 -0.2203  0.5500  0.3056
 6449TIP3    H140762   3.182   6.867  12.298 -1.0941  1.0087  2.6820
 6449TIP3    H240763   3.267   6.816  12.413 -0.0377 -1.4567  0.9000
 6450TIP3   OH240764   4.814   1.435  13.466 -0.2222  0.5703  0.5118
 6450TIP3    H140765   4.892   1.427  13.522  0.7584 -0.3258 -0.9127
 6450TIP3    H240766   4.764   1.355  13.483 -0.6259  0.9505  1.1217
 6451TIP3   OH240767   6.411   1.946  16.441  0.3147 -0.1351  0.2240
 6451TIP3    H140768   6.443   1.887  16.373  0.9688  2.0431 -1.4779
 6451TIP3    H240769   6.490   1.971  16.489  0.1397 -0.1362  0.5116
 6452TIP3   OH240770   4.808   4.217  15.025  0.4956  0.4754  1.0386
 6452TIP3    H140771   4.715   4.238  15.022  0.3033 -0.4315 -0.6603
 6452TIP3    H240772   4.822   4.182  15.113 -0.5847  1.3181  1.5744
 6453TIP3   OH240773   1.423   2.972  15.585  0.1418 -0.1876  0.5030
 6453TIP3    H140774   1.401   2.927  15.504 -0.6966 -0.9562  1.1328
 6453TIP3    H240775   1.341   3.013  15.613  0.6883  1.0192  0.3955
 6454TIP3   OH240776   5.502   1.302   2.880  1.0389  0.3937  0.1649
 6454TIP3    H140777   5.571   1.239   2.855  0.1485 -0.0929 -1.1696
 6454TIP3    H240778   5.469   1.269   2.963  0.5123 -0.9947 -0.5666
 6455TIP3   OH240779   2.341   2.399   3.721 -0.1257  0.1659 -0.1488
 6455TIP3    H140780   2.330   2.325   3.662 -0.2025  0.3086 -0.3123
 6455TIP3    H240781   2.325   2.476   3.667  1.0656  0.3585 -0.2629
 6456TIP3   OH240782   4.001   1.882  12.210 -0.1631  0.7339  0.2419
 6456TIP3    H140783   4.000   1.830  12.129 -0.8439  1.2296 -0.0808
 6456TIP3    H240784   4.084   1.929  12.207 -0.2361  0.8394 -0.2322
 6457TIP3   OH240785   4.548   0.424  10.707  0.2907 -0.2710  0.0435
 6457TIP3    H140786   4.612   0.356  10.689 -0.2376  0.0085 -3.9172
 6457TIP3    H240787   4.474   0.379  10.747  1.5795 -1.1859  1.4676
 6458TIP3   OH240788   5.310   2.030  14.369 -0.8514 -0.0681 -0.0501
 6458TIP3    H140789   5.304   2.063  14.280 -1.2592  0.4515  0.1623
 6458TIP3    H240790   5.223   2.046  14.406 -0.3524  0.7867  0.8000
 6459TIP3   OH240791   6.642   0.834   5.798 -0.0341  0.5355 -0.3620
 6459TIP3    H140792   6.733   0.859   5.817  0.3586 -0.3111 -1.0799
 6459TIP3    H240793   6.624   0.761   5.858 -1.3274  2.6639  2.0544
 6460TIP3   OH240794   2.763   6.026   0.107 -0.1382 -0.8157  0.0607
 6460TIP3    H140795   2.795   6.049   0.020 -1.2610 -0.1360 -0.1900
 6460TIP3    H240796   2.842   6.022   0.161  0.3508  1.4227 -0.3831
 6461TIP3   OH240797   5.232   6.386   6.225 -0.6587 -0.4024 -0.1101
 6461TIP3    H140798   5.208   6.454   6.287  0.8355  1.7598 -1.7551
 6461TIP3    H240799   5.324   6.369   6.241 -0.4600 -0.4105 -1.1470
 6462TIP3   OH240800   0.817   6.654   4.744  0.1914 -0.2922 -0.2183
 6462TIP3    H140801   0.758   6.666   4.819  1.9737 -0.8881  1.3713
 6462TIP3    H240802   0.785   6.574   4.702 -1.3880  0.5398 -0.6914
 6463TIP3   OH240803   0.378   5.449  16.869  0.7818  0.2301  0.1796
 6463TIP3    H140804   0.399   5.470  16.960  0.7347  1.6824 -0.1183
 6463TIP3    H240805   0.338   5.529  16.835 -0.5147 -0.7578 -0.7248
 6464TIP3   OH240806   6.667   3.125   5.163  0.0856  0.4530  0.5515
 6464TIP3    H140807   6.725   3.200   5.148  0.2314  0.2706  0.1757
 6464TIP3    H240808   6.580   3.163   5.168 -0.3381  0.3714 -3.2079
 6465TIP3   OH240809   1.692   2.778  13.652 -0.6603  0.0640  0.7119
 6465TIP3    H140810   1.678   2.685  13.667  0.5304 -0.2043  0.2706
 6465TIP3    H240811   1.674   2.790  13.559 -1.9004  0.5023  0.9952
 6466TIP3   OH240812   3.665   3.371  13.546 -0.0808  0.6311  0.3310
 6466TIP3    H140813   3.675   3.413  13.632  2.2696 -1.8976  1.4744
 6466TIP3    H240814   3.745   3.393  13.499  0.9719 -1.9368  0.7716
 6467TIP3   OH240815   6.085   3.490   0.828  0.3051 -0.0483  0.0352
 6467TIP3    H140816   6.053   3.575   0.859 -0.3274 -0.1657 -0.2965
 6467TIP3    H240817   6.008   3.434   0.827  0.9086 -0.9357  1.2471
 6468TIP3   OH240818   1.815   1.862  15.277 -0.1557 -0.4591  0.5762
 6468TIP3    H140819   1.797   1.891  15.188  1.8073 -0.2186  0.2175
 6468TIP3    H240820   1.769   1.778  15.285  0.5120 -1.0255 -1.0462
 6469TIP3   OH240821   3.311   5.369  15.964 -0.7313 -0.2771 -0.2159
 6469TIP3    H140822   3.298   5.306  16.035 -1.3346  0.4640  0.3601
 6469TIP3    H240823   3.241   5.434  15.977  0.3755  0.9802 -0.2623
 6470TIP3   OH240824   5.576   0.015  15.032  0.3668 -0.2971 -0.4103
 6470TIP3    H140825   5.549  -0.045  15.101  0.5123  0.8016  0.6318
 6470TIP3    H240826   5.498   0.025  14.977 -0.6711  0.9951  1.2135
 6471TIP3   OH240827   1.372   5.911  16.769  0.4083  0.3269  0.0627
 6471TIP3    H140828   1.295   5.960  16.800 -1.4718 -1.9243 -0.7394
 6471TIP3    H240829   1.410   5.874  16.849 -0.3312  0.1325  0.3389
 6472TIP3   OH240830   1.140   5.905   2.273 -0.0563 -0.0797  0.1291
 6472TIP3    H140831   1.234   5.906   2.253 -0.0209  2.0193  0.2520
 6472TIP3    H240832   1.134   5.856   2.355  1.2861  1.9389  1.5225
 6473TIP3   OH240833   6.533   4.166   6.379  0.7115  0.4901  0.5525
 6473TIP3    H140834   6.446   4.131   6.399  0.1651  0.9310 -0.9212
 6473TIP3    H240835   6.590   4.128   6.446 -0.5808  0.0759  1.4581
 6474TIP3   OH240836   4.570   6.328   0.738  0.0541  0.5650 -0.4806
 6474TIP3    H140837   4.557   6.384   0.662  0.2080  2.1915  0.6506
 6474TIP3    H240838   4.650   6.360   0.778  1.4306 -1.9504 -1.0091
 6475TIP3   OH240839   0.018   0.474   3.922 -0.2025  0.3434 -0.2652
 6475TIP3    H140840  -0.076   0.492   3.914 -0.1739  0.3536 -0.5629
 6475TIP3    H240841   0.025   0.379   3.913 -0.0212  0.4846 -1.8022
 6476TIP3   OH240842   3.385   4.224  15.474 -0.3529 -0.4563 -0.3728
 6476TIP3    H140843   3.355   4.164  15.542  1.4871  0.0963  1.0024
 6476TIP3    H240844   3.470   4.189  15.448 -0.5949 -0.0989 -1.7244
 6477TIP3   OH240845   5.599   2.836   5.621  0.2257  0.1741  0.2717
 6477TIP3    H140846   5.537   2.829   5.693  0.4084  2.3783  0.7150
 6477TIP3    H240847   5.555   2.797   5.546 -0.1711 -1.6945  1.4350
 6478TIP3   OH240848   5.519   0.749   5.011 -0.0460 -0.2054 -0.3384
 6478TIP3    H140849   5.511   0.671   4.956  0.6006 -0.1735 -0.4854
 6478TIP3    H240850   5.568   0.721   5.087 -2.1696 -0.6056  0.9712
 6479TIP3   OH240851   3.700   6.019   0.820  0.0073  0.0772  0.5673
 6479TIP3    H140852   3.734   6.031   0.732  0.3927  1.7099  0.8958
 6479TIP3    H240853   3.774   5.985   0.870 -0.5500 -2.0504  0.0394
 6480TIP3   OH240854   3.007   4.865   5.566 -0.2905  0.1808  0.5179
 6480TIP3    H140855   2.994   4.907   5.651  0.4032 -0.3588  0.8936
 6480TIP3    H240856   3.062   4.790   5.584 -2.0075 -1.2927 -0.0410
 6481TIP3   OH240857   3.835   3.601   1.619  0.0676  0.2687 -0.0021
 6481TIP3    H140858   3.785   3.521   1.605  0.3358 -0.1961  1.5351
 6481TIP3    H240859   3.925   3.577   1.595  0.1670  0.0636  0.5570
 6482TIP3   OH240860   2.598   4.942   6.069 -0.2958 -0.2078 -0.0986
 6482TIP3    H140861   2.528   4.992   6.028  0.1497 -0.6350 -1.4488
 6482TIP3    H240862   2.678   4.986   6.041  0.0840 -1.3996 -0.9857
 6483TIP3   OH240863   2.995   6.621   1.175 -0.1879 -0.1664 -0.6157
 6483TIP3    H140864   2.980   6.536   1.134 -0.6948 -0.2692 -0.2289
 6483TIP3    H240865   3.075   6.655   1.133  0.8076 -1.4314  0.2010
 6484TIP3   OH240866   4.103   6.137   1.086  0.0380  0.4515 -0.3249
 6484TIP3    H140867   4.058   6.053   1.089 -0.9534  0.9704 -0.4337
 6484TIP3    H240868   4.108   6.159   0.993  0.9436  0.1764 -0.3471
 6485TIP3   OH240869   6.710   5.170   1.412 -0.2069 -0.2246 -0.2175
 6485TIP3    H140870   6.713   5.079   1.380  1.0077  0.2171 -1.5060
 6485TIP3    H240871   6.796   5.183   1.453  0.1573  0.7096 -1.2231
 6486TIP3   OH240872   6.719   4.337  13.832  0.3731  0.1941 -0.3310
 6486TIP3    H140873   6.787   4.322  13.765 -0.4174  0.6264 -1.2547
 6486TIP3    H240874   6.678   4.251  13.844 -2.7342  0.8418 -4.0566
 6487TIP3   OH240875   0.313   2.434   1.722  0.1365 -0.5587 -0.2649
 6487TIP3    H140876   0.228   2.416   1.763 -0.3548 -0.0258 -1.0228
 6487TIP3    H240877   0.291   2.472   1.637  1.0447  2.8634  0.8534
 6488TIP3   OH240878   3.383   5.115   4.802  0.2233 -0.2563 -0.0799
 6488TIP3    H140879   3.429   5.198   4.803  1.1550 -0.7291 -0.9247
 6488TIP3    H240880   3.346   5.109   4.714 -1.3034  0.0093  0.5085
 6489TIP3   OH240881   4.153   3.014  16.156  0.0464 -0.2592  0.0590
 6489TIP3    H140882   4.219   3.081  16.137  0.1595 -0.2800  0.3721
 6489TIP3    H240883   4.070   3.055  16.131  0.0526  0.2215  0.8078
 6490TIP3   OH240884   5.019   4.051   5.200 -0.0067  0.0289  0.3947
 6490TIP3    H140885   4.936   4.013   5.172 -0.3416  0.5466  0.6520
 6490TIP3    H240886   5.080   3.978   5.204 -0.0243 -0.1060 -1.3663
 6491TIP3   OH240887   6.623   0.792  12.789  0.3190 -0.1593  0.2920
 6491TIP3    H140888   6.605   0.725  12.855  0.3520 -0.0583  0.4032
 6491TIP3    H240889   6.586   0.872  12.825 -0.3998 -0.2651 -0.1854
 6492TIP3   OH240890   1.201   5.414  11.776  0.6769 -0.3012  0.6216
 6492TIP3    H140891   1.164   5.497  11.809 -0.1946 -0.5362  0.2799
 6492TIP3    H240892   1.165   5.347  11.834  0.4233 -0.5551  0.1768
 6493TIP3   OH240893   1.886   0.278   2.425  0.2856 -0.4852  0.6508
 6493TIP3    H140894   1.808   0.328   2.402  0.1914  0.2467  2.3867
 6493TIP3    H240895   1.912   0.313   2.510  1.7253 -1.6494  0.7232
 6494TIP3   OH240896   5.327   2.831  14.933  0.4443 -0.7385 -0.1161
 6494TIP3    H140897   5.405   2.842  14.878  0.7234 -1.4838  0.1244
 6494TIP3    H240898   5.337   2.745  14.974 -1.2873 -1.5902 -1.3368
 6495TIP3   OH240899   3.856   3.851   1.398  0.3154 -0.0677 -0.3173
 6495TIP3    H140900   3.888   3.761   1.389 -1.2919 -0.5670 -1.7854
 6495TIP3    H240901   3.863   3.887   1.309  1.3279  1.4234  0.3371
 6496TIP3   OH240902   0.822   4.734   4.496 -0.5946 -0.0299  0.2760
 6496TIP3    H140903   0.902   4.749   4.446 -0.7063  1.7279  0.5484
 6496TIP3    H240904   0.821   4.640   4.511  1.1643 -0.1669 -0.1589
 6497TIP3   OH240905   0.069   1.410  13.051  0.0735 -0.0996 -0.0721
 6497TIP3    H140906  -0.001   1.365  13.004  0.5827 -1.1832  0.1713
 6497TIP3    H240907   0.147   1.397  12.996  0.3330  0.0219  0.2617
 6498TIP3   OH240908   5.112   1.350  16.626 -1.0876  0.5277 -0.2141
 6498TIP3    H140909   5.135   1.410  16.555 -2.4532  3.3098  1.5523
 6498TIP3    H240910   5.152   1.387  16.704  0.4003 -2.4689  0.6121
 6499TIP3   OH240911   2.104   1.577   5.651 -0.3144  0.1666  1.0077
 6499TIP3    H140912   2.117   1.522   5.573  0.7671  0.6123  0.8468
 6499TIP3    H240913   2.031   1.537   5.697 -0.6996 -0.3608 -0.0234
 6500TIP3   OH240914   1.659   4.174  16.258 -0.1311 -0.1587  0.8921
 6500TIP3    H140915   1.569   4.144  16.270  0.1373 -1.0351  0.7853
 6500TIP3    H240916   1.710   4.119  16.317  0.3265  0.4059  1.0283
 6501TIP3   OH240917   2.340   4.956   3.424 -0.0256  0.6689  0.0206
 6501TIP3    H140918   2.258   4.906   3.424  0.9957 -1.1223 -0.6362
 6501TIP3    H240919   2.316   5.040   3.385 -1.4605  0.0152 -0.6288
 6502TIP3   OH240920   4.248   2.980   5.441 -0.3707  0.0615 -0.3297
 6502TIP3    H140921   4.177   3.010   5.498 -0.4901  0.5664 -0.7367
 6502TIP3    H240922   4.300   2.922   5.497 -2.0108 -1.6507 -0.5056
 6503TIP3   OH240923   3.278   1.625  10.475  0.7779  0.3584 -0.2886
 6503TIP3    H140924   3.373   1.613  10.482  0.7779  0.8613  0.7750
 6503TIP3    H240925   3.247   1.543  10.437  1.5508 -0.1229  0.0817
 6504TIP3   OH240926   2.187   5.856  13.043  0.2425 -0.1158 -0.1196
 6504TIP3    H140927   2.263   5.900  13.080  0.7009 -0.4303 -0.6655
 6504TIP3    H240928   2.190   5.877  12.950  1.5343 -2.7372 -0.7796
 6505TIP3   OH240929   1.379   5.808  12.120 -0.6391  0.4979 -0.0296
 6505TIP3    H140930   1.418   5.730  12.082 -0.1070  0.2956  0.8863
 6505TIP3    H240931   1.407   5.879  12.062 -0.3407  0.1297 -0.3446
 6506TIP3   OH240932   5.095   0.349   4.871  0.1944 -0.7131 -0.3062
 6506TIP3    H140933   5.061   0.268   4.832  0.0151 -1.0116  0.4422
 6506TIP3    H240934   5.016   0.398   4.896  0.2421  0.6131 -2.5044
 6507TIP3   OH240935   4.759   0.344   2.007  0.0477 -0.5476 -0.4142
 6507TIP3    H140936   4.759   0.260   1.961 -0.5928 -1.3780  1.0490
 6507TIP3    H240937   4.848   0.351   2.043 -0.0244 -0.8013 -0.1834
 6508TIP3   OH240938   3.417   4.815  12.087  0.8554  0.0794 -0.1356
 6508TIP3    H140939   3.410   4.777  11.999 -0.2061  1.7210 -0.8139
 6508TIP3    H240940   3.390   4.745  12.145  0.2466 -0.6267 -1.2327
 6509TIP3   OH240941   2.330   2.741  13.018 -0.3718 -0.1666  0.3546
 6509TIP3    H140942   2.418   2.763  12.990 -0.6089 -0.7863 -0.9238
 6509TIP3    H240943   2.336   2.650  13.047 -1.1218 -1.1467 -2.3444
 6510TIP3   OH240944   2.282   2.176   4.812 -0.0470 -0.3242 -0.2659
 6510TIP3    H140945   2.296   2.086   4.783  0.1965 -0.0370 -1.0361
 6510TIP3    H240946   2.269   2.226   4.732 -2.1421  0.0095  0.2136
 6511TIP3   OH240947   5.894   0.745  15.957 -0.5525  0.0480 -0.3009
 6511TIP3    H140948   5.924   0.802  15.886  0.7899 -0.3309 -0.0654
 6511TIP3    H240949   5.801   0.732  15.939 -0.6338  1.3933 -0.9896
 6512TIP3   OH240950   2.124   0.347  17.184 -0.3664 -0.4740 -0.2454
 6512TIP3    H140951   2.188   0.368  17.117  2.3794 -3.2891  1.2002
 6512TIP3    H240952   2.124   0.423  17.242  2.5098 -0.6991  0.2079
 6513TIP3   OH240953   6.212   5.012  13.188 -0.0562 -0.1454  0.1798
 6513TIP3    H140954   6.218   5.107  13.189  1.0665 -0.2097  0.6128
 6513TIP3    H240955   6.152   4.991  13.259 -0.2843  0.2370  0.1021
 6514TIP3   OH240956   3.824   2.929  14.213 -0.1434 -0.0518 -0.4085
 6514TIP3    H140957   3.816   2.937  14.118 -1.2665 -0.0078 -0.3263
 6514TIP3    H240958   3.872   3.008  14.240 -1.2913  0.7978 -0.7723
 6515TIP3   OH240959   1.099   1.100   3.374 -0.0821  0.1722  0.3238
 6515TIP3    H140960   1.078   1.107   3.281 -3.3688 -0.9052  0.8434
 6515TIP3    H240961   1.107   1.006   3.390 -0.2485  0.3030  1.2462
 6516TIP3   OH240962   4.728   4.514  10.739 -0.3831  0.2469  0.4810
 6516TIP3    H140963   4.643   4.496  10.699 -0.0782  0.1228 -0.1392
 6516TIP3    H240964   4.741   4.608  10.728 -0.8315  0.4198  1.3838
 6517TIP3   OH240965   1.027   5.051   1.819 -0.0175 -0.1907 -0.0418
 6517TIP3    H140966   1.024   5.111   1.894 -1.2467  0.4214 -0.5377
 6517TIP3    H240967   1.023   4.964   1.857  0.3123  0.0854  0.6367
 6518TIP3   OH240968   5.854   0.080   0.607  0.6434  0.4859 -0.2198
 6518TIP3    H140969   5.799   0.123   0.542 -0.6094 -1.5706 -0.6082
 6518TIP3    H240970   5.798   0.066   0.683  0.5942 -1.4722 -0.5513
 6519TIP3   OH240971   0.740   2.305   2.837  0.6670 -0.4843 -0.6551
 6519TIP3    H140972   0.652   2.295   2.874  0.5776  2.3323  0.1434
 6519TIP3    H240973   0.725   2.330   2.746  0.6431 -0.4493 -0.6418
 6520TIP3   OH240974   1.118   2.548  14.539  0.5370  0.0307 -0.0980
 6520TIP3    H140975   1.132   2.480  14.605  0.7263 -1.7081 -1.8485
 6520TIP3    H240976   1.028   2.578  14.555  0.7625  0.0524  1.2696
 6521TIP3   OH240977   3.024   1.952   1.414  0.0141 -0.5568 -0.4484
 6521TIP3    H140978   2.987   1.873   1.376  0.9854 -1.6094  0.7147
 6521TIP3    H240979   3.052   1.926   1.502  0.6496  0.9922 -0.1533
 6522TIP3   OH240980   6.150   0.449   1.015 -0.2466  0.2380 -0.3516
 6522TIP3    H140981   6.186   0.477   0.931 -0.9799  1.7716 -0.2116
 6522TIP3    H240982   6.212   0.385   1.049  0.6684  0.4770 -1.5221
 6523TIP3   OH240983   3.385   4.683   5.814  0.6521  0.6476  0.1152
 6523TIP3    H140984   3.480   4.692   5.823  0.6877 -0.7712  1.7853
 6523TIP3    H240985   3.350   4.741   5.882  0.3594  0.5137  0.0779
 6524TIP3   OH240986   4.438   1.705   4.239  0.5280  0.2033 -0.3912
 6524TIP3    H140987   4.527   1.731   4.213  0.6961  0.8199  0.7133
 6524TIP3    H240988   4.402   1.661   4.162  1.7871 -0.0482 -0.8650
 6525TIP3   OH240989   1.155   2.882  12.586 -0.0221  0.3868 -0.1003
 6525TIP3    H140990   1.097   2.950  12.552  0.3159  1.9963  2.2826
 6525TIP3    H240991   1.106   2.840  12.657  0.7019 -0.1095  0.1295
 6526TIP3   OH240992   2.963   3.578   4.311  0.4833 -0.0035 -0.5225
 6526TIP3    H140993   3.003   3.577   4.398 -1.1896 -1.8160  0.3007
 6526TIP3    H240994   2.928   3.667   4.302  1.4969  0.4906  0.2327
 6527TIP3   OH240995   3.161   4.134   3.431  0.1426 -0.5710  0.1082
 6527TIP3    H140996   3.129   4.095   3.513  1.8126  0.7070  1.4289
 6527TIP3    H240997   3.083   4.175   3.393 -0.3389  0.3858  1.9968
 6528TIP3   OH240998   5.345   6.286  11.285  0.9300  0.3525  0.5054
 6528TIP3    H140999   5.419   6.231  11.314  0.5146 -0.9575 -0.7733
 6528TIP3    H241000   5.376   6.376  11.296  3.2093 -0.1566 -1.1333
 6529TIP3   OH241001   3.821   5.102  16.153 -0.0385 -0.5194 -0.3141
 6529TIP3    H141002   3.898   5.090  16.098 -0.7883 -1.6036 -1.1975
 6529TIP3    H241003   3.771   5.171  16.110  0.6208  0.4926  0.5022
 6530TIP3   OH241004   6.652   4.856  16.083 -0.5716  0.1296  0.3945
 6530TIP3    H141005   6.651   4.786  16.148 -1.7179  0.3160  0.5973
 6530TIP3    H241006   6.592   4.922  16.118  0.4048  1.1706  0.1517
 6531TIP3   OH241007   2.163   3.398  15.246  0.5308 -0.4445 -0.3892
 6531TIP3    H141008   2.135   3.439  15.328  1.1467 -2.7226  1.0510
 6531TIP3    H241009   2.082   3.371  15.203  0.2379 -2.3797  1.2429
 6532TIP3   OH241010   1.600   2.025  13.147 -0.0064 -0.8364  0.2920
 6532TIP3    H141011   1.541   1.969  13.197 -1.8240 -0.1280 -0.9377
 6532TIP3    H241012   1.557   2.111  13.147  1.3446 -0.1280 -0.1385
 6533TIP3   OH241013   6.293   3.674   0.922 -0.2749  0.4381  0.3261
 6533TIP3    H141014   6.252   3.605   0.871 -0.6817  1.2056 -0.4172
 6533TIP3    H241015   6.386   3.668   0.902 -0.1929 -0.4238  0.9309
 6534TIP3   OH241016   5.654   5.073   5.386  0.5426  0.3688 -0.1090
 6534TIP3    H141017   5.704   5.005   5.342 -0.3753 -0.6940  0.4184
 6534TIP3    H241018   5.564   5.058   5.357  0.1562  0.6098  0.9278
 6535TIP3   OH241019   2.403   3.033   1.540  0.1914 -0.3401 -0.2003
 6535TIP3    H141020   2.398   2.937   1.542 -2.8688 -0.2966  2.3485
 6535TIP3    H241021   2.320   3.061   1.503 -0.1198  1.2748  1.5546
 6536TIP3   OH241022   6.333   6.368   4.274  0.2253  0.3914 -0.0742
 6536TIP3    H141023   6.243   6.366   4.242 -0.6798 -0.8949  2.3473
 6536TIP3    H241024   6.346   6.459   4.303 -0.5436  0.4164  0.2067
 6537TIP3   OH241025   3.843   3.853  14.906 -0.5400  0.1852 -0.2064
 6537TIP3    H141026   3.781   3.919  14.938 -1.8642 -1.4580  0.7978
 6537TIP3    H241027   3.795   3.808  14.837  0.6236  0.7066 -1.3981
 6538TIP3   OH241028   5.156   2.566  11.029 -0.4097  0.0200 -0.0896
 6538TIP3    H141029   5.222   2.631  11.052  1.3468 -1.9897  0.9179
 6538TIP3    H241030   5.205   2.493  10.991 -2.0211 -1.5588  0.6848
 6539TIP3   OH241031   6.559   0.895   0.190 -0.0494  0.2056  0.1948
 6539TIP3    H141032   6.600   0.846   0.119  1.5782 -2.2019  2.5687
 6539TIP3    H241033   6.465   0.892   0.171  0.0724 -2.9596 -0.4032
 6540TIP3   OH241034   2.651   5.608   5.336  0.0218 -0.2205 -0.2371
 6540TIP3    H141035   2.718   5.548   5.368 -1.1907 -0.9190  1.1060
 6540TIP3    H241036   2.656   5.683   5.395 -0.6403 -0.4670  0.1453
 6541TIP3   OH241037   0.575   1.412  11.481  0.3667  0.1157  0.5241
 6541TIP3    H141038   0.609   1.336  11.435  1.3556  0.9908 -0.2491
 6541TIP3    H241039   0.498   1.380  11.527  2.2040 -1.9504  2.3464
 6542TIP3   OH241040   4.945   1.901  13.161  0.5037  0.3921 -0.4770
 6542TIP3    H141041   4.925   1.944  13.245  0.6361 -0.7289  0.1476
 6542TIP3    H241042   4.897   1.818  13.165  0.2616  0.4653 -1.6586
 6543TIP3   OH241043   4.871   4.750   2.696 -0.3706 -0.1471  0.4096
 6543TIP3    H141044   4.892   4.843   2.685 -0.0376 -0.0132  1.9343
 6543TIP3    H241045   4.820   4.747   2.777  1.9373 -1.5808  1.9141
 6544TIP3   OH241046   0.936   2.713   0.777 -0.6672 -0.1059  0.5304
 6544TIP3    H141047   0.999   2.641   0.768 -0.0318  0.6558 -1.4600
 6544TIP3    H241048   0.966   2.761   0.854  1.0653  0.1037 -0.2392
 6545TIP3   OH241049   5.534   5.364  16.008  0.9232  0.0429 -0.0792
 6545TIP3    H141050   5.623   5.381  15.979  1.3009 -0.3223  0.8186
 6545TIP3    H241051   5.531   5.269  16.024  0.6055  0.1583  0.6026
 6546TIP3   OH241052   0.907   3.257  12.773  0.5371  0.2366  0.0452
 6546TIP3    H141053   0.939   3.285  12.688 -1.2273  0.2197 -0.6639
 6546TIP3    H241054   0.972   3.193  12.803  1.9695  1.3345 -0.5670
 6547TIP3   OH241055   5.799   3.439  13.944  0.8973 -0.3869 -0.1762
 6547TIP3    H141056   5.891   3.453  13.921  1.4160  0.0599  1.9217
 6547TIP3    H241057   5.770   3.525  13.975 -0.3346 -0.4572 -1.0714
 6548TIP3   OH241058   1.572   1.964  16.191 -0.1656  0.1128 -0.0254
 6548TIP3    H141059   1.588   1.938  16.100 -1.7572 -1.1808  0.0165
 6548TIP3    H241060   1.519   1.892  16.227  1.0638  0.2267  2.1566
 6549TIP3   OH241061   2.712   5.892  15.755  0.0563 -0.3207 -0.5254
 6549TIP3    H141062   2.625   5.855  15.743 -0.0235 -0.5190  0.6190
 6549TIP3    H241063   2.726   5.892  15.849  1.8246 -1.5289 -0.7449
 6550TIP3   OH241064   2.995   0.159   0.851 -0.0213  0.1983  0.4114
 6550TIP3    H141065   2.919   0.136   0.905 -0.8552  0.0722 -0.7749
 6550TIP3    H241066   2.971   0.243   0.811  0.3294 -0.0036 -0.2286
 6551TIP3   OH241067   2.293   5.015  11.350  0.1942 -0.9475  0.7204
 6551TIP3    H141068   2.249   4.930  11.339 -0.9187 -0.3836  0.7091
 6551TIP3    H241069   2.384   4.992  11.372  0.1829 -2.1292 -0.3638
 6552TIP3   OH241070   1.698   4.498  12.697 -0.2206  0.1120 -0.3435
 6552TIP3    H141071   1.761   4.548  12.646  1.2341 -0.6541  0.6360
 6552TIP3    H241072   1.656   4.440  12.633  0.8003 -0.0821 -0.8512
 6553TIP3   OH241073   2.665   2.029  14.913  0.6252 -0.8099  0.3184
 6553TIP3    H141074   2.709   2.092  14.970  0.1681  1.0888 -1.2856
 6553TIP3    H241075   2.661   1.948  14.963  0.5757  0.6442  2.7947
 6554TIP3   OH241076   1.099   1.613   6.172 -0.1836  0.3411 -0.8004
 6554TIP3    H141077   1.046   1.664   6.234  0.8991  1.7339 -0.9530
 6554TIP3    H241078   1.049   1.534   6.157 -2.1094  1.4836 -0.7516
 6555TIP3   OH241079   1.669   2.643  14.155 -0.7920 -0.0283 -0.2556
 6555TIP3    H141080   1.589   2.624  14.203 -1.3434  0.5565 -0.9260
 6555TIP3    H241081   1.739   2.604  14.208 -1.2162  1.6545  1.6731
 6556TIP3   OH241082   2.846   6.263  11.063  0.2679 -0.3096 -0.4401
 6556TIP3    H141083   2.808   6.229  10.982 -2.7518 -1.8316  1.4436
 6556TIP3    H241084   2.938   6.279  11.041 -0.0799 -1.9827 -3.7622
 6557TIP3   OH241085   5.792   0.143   1.454 -0.1782  0.1076 -0.2515
 6557TIP3    H141086   5.884   0.138   1.429 -0.4315  0.6308 -1.3190
 6557TIP3    H241087   5.749   0.076   1.401 -0.4218 -0.1497  0.2602
 6558TIP3   OH241088   2.819   6.091   5.464 -0.4138  0.1432  0.5853
 6558TIP3    H141089   2.778   6.178   5.465  2.5811  1.7484 -1.0429
 6558TIP3    H241090   2.779   6.047   5.389 -1.9746  0.0717  1.4310
 6559TIP3   OH241091   0.141   5.345   3.380  0.0607  0.4105  0.2217
 6559TIP3    H141092   0.224   5.301   3.399  0.6392  0.7912 -1.3064
 6559TIP3    H241093   0.143   5.424   3.434  0.1694 -0.1480  1.0467
 6560TIP3   OH241094   5.102   2.952   0.258  0.1177 -0.4894  0.2759
 6560TIP3    H141095   5.009   2.974   0.255 -0.1276 -1.5449 -0.2716
 6560TIP3    H241096   5.116   2.898   0.181  1.1328 -0.5544  0.5000
 6561TIP3   OH241097   0.417   0.146  12.117 -0.1633 -0.4541 -1.0981
 6561TIP3    H141098   0.353   0.212  12.091 -0.5669 -1.3603 -2.4902
 6561TIP3    H241099   0.366   0.078  12.161  0.2913  0.2541  0.6012
 6562TIP3   OH241100   5.639   4.712   1.117  0.5222 -0.2590 -0.3855
 6562TIP3    H141101   5.649   4.683   1.207 -0.2016  1.0280  0.1345
 6562TIP3    H241102   5.575   4.653   1.079 -0.6883  0.4185  0.5548
 6563TIP3   OH241103   5.402   2.702  12.569  0.0204 -0.0729 -0.4535
 6563TIP3    H141104   5.336   2.765  12.597 -0.7867 -1.2112  0.2609
 6563TIP3    H241105   5.353   2.624  12.543  0.9952 -0.4326 -1.3127
 6564TIP3   OH241106   2.464   6.452   2.557 -0.0378 -0.1201 -0.3391
 6564TIP3    H141107   2.490   6.544   2.553  0.8511 -0.3949 -1.9655
 6564TIP3    H241108   2.544   6.405   2.577 -0.2233 -0.6212 -0.7444
 6565TIP3   OH241109   4.958   2.862  11.796  1.0420  0.5689  0.3126
 6565TIP3    H141110   4.973   2.850  11.889  2.0535 -0.3342  0.0517
 6565TIP3    H241111   5.045   2.857  11.756  0.5760  0.3809 -0.7381
 6566TIP3   OH241112   0.977   1.132   4.218  0.6354 -0.1037  0.4531
 6566TIP3    H141113   1.017   1.216   4.196 -0.9281  0.6624  0.3932
 6566TIP3    H241114   0.969   1.086   4.134  0.0977  0.3351  0.2616
 6567TIP3   OH241115   0.613   1.766  14.107  0.0399 -0.6172 -0.2095
 6567TIP3    H141116   0.572   1.824  14.171 -1.2776 -0.5434 -1.0888
 6567TIP3    H241117   0.637   1.688  14.157  0.1819 -0.0613  0.6131
 6568TIP3   OH241118   4.467   3.642   2.358  0.2207 -0.6997 -0.2893
 6568TIP3    H141119   4.452   3.547   2.358 -2.8498 -0.3238  0.5969
 6568TIP3    H241120   4.469   3.666   2.451  0.6777  0.1500 -0.5066
 6569TIP3   OH241121   0.625   4.094   2.078 -0.1586 -0.0533 -0.3076
 6569TIP3    H141122   0.591   4.006   2.090 -1.4020  0.3058 -1.0034
 6569TIP3    H241123   0.559   4.152   2.115  0.7316  0.5975  0.3201
 6570TIP3   OH241124   5.846   6.601   2.174  0.6053 -0.1207  0.1569
 6570TIP3    H141125   5.916   6.643   2.123  1.2289 -1.3925 -0.0744
 6570TIP3    H241126   5.886   6.522   2.210 -0.1108  0.2240  1.8242
 6571TIP3   OH241127   0.908   1.435  15.534  0.3575 -0.6778  0.2033
 6571TIP3    H141128   0.949   1.354  15.563  0.2841 -0.2529  1.5387
 6571TIP3    H241129   0.871   1.413  15.449  0.8633 -1.8708  0.2665
 6572TIP3   OH241130   5.327   6.305  12.663 -0.2162 -0.4280  0.0156
 6572TIP3    H141131   5.289   6.221  12.691 -0.1049 -0.1767  0.9403
 6572TIP3    H241132   5.379   6.334  12.738  1.9509 -0.8301 -1.2588
 6573TIP3   OH241133   2.234   4.579  10.688 -0.0269  0.5452 -0.0584
 6573TIP3    H141134   2.259   4.651  10.630 -2.2351  0.6012 -1.0424
 6573TIP3    H241135   2.244   4.501  10.634  0.7437  0.2685  0.4678
 6574TIP3   OH241136   1.463   0.188   0.014  0.0948 -0.3140 -0.1253
 6574TIP3    H141137   1.432   0.241  -0.059 -0.0818  0.6567  0.6393
 6574TIP3    H241138   1.388   0.180   0.072  0.8765  1.0182  1.1405
 6575TIP3   OH241139   1.303   3.474   5.670 -0.1338  0.3932 -0.3017
 6575TIP3    H141140   1.367   3.527   5.718 -1.0816  1.2176  0.0760
 6575TIP3    H241141   1.312   3.386   5.706 -0.3283  0.8447  0.8823
 6576TIP3   OH241142   5.699   0.198   2.966  0.0410  0.7877 -0.2936
 6576TIP3    H141143   5.664   0.113   2.941  1.2394  0.1862 -0.0053
 6576TIP3    H241144   5.669   0.258   2.897 -0.1779 -0.0223 -0.9115
 6577TIP3   OH241145   5.869   0.013   3.081  0.3685  0.1354 -0.3551
 6577TIP3    H141146   5.889  -0.005   2.989 -0.4417  1.1469 -0.7460
 6577TIP3    H241147   5.819   0.094   3.080  1.3232  0.7934  1.0854
 6578TIP3   OH241148   4.017   1.200   1.119 -0.3100 -0.5022 -0.0222
 6578TIP3    H141149   4.112   1.188   1.114 -0.1710  0.9562 -2.1796
 6578TIP3    H241150   3.985   1.175   1.032 -1.7948 -0.1578  0.4013
 6579TIP3   OH241151   6.133   6.430   4.981 -0.5205 -0.2433  0.1116
 6579TIP3    H141152   6.205   6.379   4.943 -0.9300  0.4167 -1.6362
 6579TIP3    H241153   6.173   6.475   5.056  1.1636  0.7822 -1.3168
 6580TIP3   OH241154   6.255   0.493  16.008 -0.7895  0.1978  0.0764
 6580TIP3    H141155   6.197   0.457  15.941 -0.9108  1.3426 -0.4646
 6580TIP3    H241156   6.212   0.574  16.035  0.2852  0.7995  0.0396
 6581TIP3   OH241157   4.578   4.430   0.195  0.0076  0.5051 -0.2936
 6581TIP3    H141158   4.597   4.399   0.107  1.1281  0.2545  0.0279
 6581TIP3    H241159   4.594   4.524   0.192  0.6131  0.4051 -0.2075
 6582TIP3   OH241160   1.678   2.788   5.950 -1.3430  0.0686  0.6715
 6582TIP3    H141161   1.758   2.817   5.995 -1.0602  1.1940 -0.4968
 6582TIP3    H241162   1.709   2.724   5.885 -1.4856 -0.0485  0.7198
 6583TIP3   OH241163   4.451   6.707  12.284 -0.6620 -0.5345  0.7392
 6583TIP3    H141164   4.478   6.709  12.192 -1.0022  2.9017  0.5692
 6583TIP3    H241165   4.522   6.751  12.331 -1.2347 -0.7609  1.8516
 6584TIP3   OH241166   2.707   1.480  12.518 -0.0559  0.3518 -0.7420
 6584TIP3    H141167   2.750   1.449  12.598 -1.5490  2.0447  0.8397
 6584TIP3    H241168   2.616   1.496  12.545 -0.2088  2.6079 -2.2804
 6585TIP3   OH241169   1.246   4.170   0.131  0.1282 -0.4749 -0.7314
 6585TIP3    H141170   1.302   4.242   0.162 -0.9083  0.1342 -0.2341
 6585TIP3    H241171   1.303   4.093   0.133  0.5049 -0.1854  1.3457
 6586TIP3   OH241172   6.308   4.403   2.065  0.2476  0.0372  0.5242
 6586TIP3    H141173   6.267   4.338   2.008  1.0574  1.8138 -2.3329
 6586TIP3    H241174   6.243   4.473   2.071  0.4442  0.1611  1.2715
 6587TIP3   OH241175   5.078   1.420   1.222  0.6267 -0.1308 -0.0663
 6587TIP3    H141176   5.087   1.513   1.202  0.1764  0.1245  0.8337
 6587TIP3    H241177   5.145   1.377   1.170  0.3899  0.6223 -1.0264
 6588TIP3   OH241178   2.816   0.590   6.405 -0.3677 -0.1804  0.1499
 6588TIP3    H141179   2.908   0.588   6.382  0.2269  0.4247  2.2528
 6588TIP3    H241180   2.789   0.682   6.392 -0.1181  0.0881  1.3876
 6589TIP3   OH241181   2.442   2.814  10.626  0.5202  0.1052 -0.1692
 6589TIP3    H141182   2.436   2.905  10.656  1.9087  0.1288  0.0965
 6589TIP3    H241183   2.376   2.807  10.557  0.2665  1.2561 -0.0630
 6590TIP3   OH241184   2.005   6.661  15.361 -0.3415  0.3837 -0.0887
 6590TIP3    H141185   1.983   6.642  15.269 -1.7391  0.6964  0.1617
 6590TIP3    H241186   2.013   6.757  15.364 -1.8214  0.5113  0.4110
 6591TIP3   OH241187   6.366   6.082   5.274 -0.6448 -0.2498  0.2351
 6591TIP3    H141188   6.352   6.054   5.365 -3.1076 -1.7736 -0.5166
 6591TIP3    H241189   6.449   6.042   5.250  0.6401  1.1137  2.0947
 6592TIP3   OH241190   5.229   4.685   5.788  0.1161 -0.4200 -0.7867
 6592TIP3    H141191   5.169   4.618   5.754 -1.5748  1.0345 -0.7872
 6592TIP3    H241192   5.186   4.718   5.867  1.7776 -0.5386  0.1966
 6593TIP3   OH241193   3.811   5.770  13.863 -0.3897  0.5413 -0.3654
 6593TIP3    H141194   3.754   5.710  13.912  1.5650 -0.6470  0.6044
 6593TIP3    H241195   3.790   5.753  13.771 -0.8637 -0.6341 -0.0619
 6594TIP3   OH241196   3.868   5.635   0.808 -0.2735 -0.2645 -0.4129
 6594TIP3    H141197   3.916   5.596   0.735  0.5884 -1.0418  0.5350
 6594TIP3    H241198   3.909   5.598   0.886 -1.2352  0.4701  0.4707
 6595TIP3   OH241199   1.667   0.185  13.356  0.3867  1.1225  0.3385
 6595TIP3    H141200   1.672   0.122  13.427  0.4141  0.2579 -0.4113
 6595TIP3    H241201   1.747   0.171  13.305  0.4669  1.8710  0.2343
 6596TIP3   OH241202   6.717   3.481   3.918  0.2559 -0.5776 -0.1868
 6596TIP3    H141203   6.696   3.524   4.001  2.7007 -0.2463  0.3129
 6596TIP3    H241204   6.638   3.492   3.865 -0.9984  0.0764  1.7200
 6597TIP3   OH241205   6.043   0.515   4.641 -0.0554 -0.3844  0.0958
 6597TIP3    H141206   6.138   0.527   4.653 -0.1900  1.2018 -0.2681
 6597TIP3    H241207   6.015   0.592   4.593 -1.3050 -1.5645 -1.1591
 6598TIP3   OH241208   5.426   3.938  14.786  0.7616  0.9193  0.0372
 6598TIP3    H141209   5.509   3.912  14.746  0.3899 -0.1044 -0.1024
 6598TIP3    H241210   5.359   3.901  14.729  0.2111  1.3842  0.3697
 6599TIP3   OH241211   2.101   2.471  16.985  1.4002  0.2321 -0.0639
 6599TIP3    H141212   2.077   2.561  16.962  1.0213  0.3734  0.8302
 6599TIP3    H241213   2.050   2.416  16.927 -1.9231  0.4762  2.3310
 6600TIP3   OH241214   1.800   0.552  11.720 -0.1493 -0.0214  0.0311
 6600TIP3    H141215   1.861   0.490  11.760 -2.1185 -0.7856  2.0704
 6600TIP3    H241216   1.854   0.626  11.693  2.1821 -2.2284 -1.7841
 6601TIP3   OH241217   1.468   1.395   3.562  0.8921 -0.4675  0.4295
 6601TIP3    H141218   1.481   1.300   3.563 -0.7186 -0.7118  0.3452
 6601TIP3    H241219   1.485   1.420   3.471  1.2448 -0.6754  0.4348
 6602TIP3   OH241220   2.050   1.034   4.620  0.3094  0.2666 -0.3068
 6602TIP3    H141221   2.134   1.052   4.578  0.6994  1.0867  0.7694
 6602TIP3    H241222   2.048   1.093   4.695 -0.3713 -1.0952  0.7951
 6603TIP3   OH241223   4.580   3.031  15.094  0.2153 -0.0639 -0.5709
 6603TIP3    H141224   4.628   3.094  15.148  1.2790  1.1296 -2.7366
 6603TIP3    H241225   4.591   2.948  15.139  2.3249  0.5983  0.2852
 6604TIP3   OH241226   6.805   1.548   2.416 -0.2636 -0.1547 -0.2612
 6604TIP3    H141227   6.853   1.482   2.468 -0.4090 -1.7057 -2.0134
 6604TIP3    H241228   6.824   1.526   2.325 -0.2705  2.3110 -0.9422
 6605TIP3   OH241229   5.917   4.978  15.336  0.5519 -0.2764 -0.3668
 6605TIP3    H141230   5.850   5.047  15.339 -1.7290 -2.3431 -0.0529
 6605TIP3    H241231   5.976   4.998  15.408 -1.1849  0.3073  0.9725
 6606TIP3   OH241232   5.294   6.406   4.085  0.3126  0.0559  0.6069
 6606TIP3    H141233   5.310   6.377   4.175 -0.1561  0.7411  0.9239
 6606TIP3    H241234   5.306   6.501   4.088  1.3479 -0.0341 -0.3015
 6607TIP3   OH241235   4.388   1.918  15.425  0.5382 -0.2563 -0.0122
 6607TIP3    H141236   4.386   1.979  15.499  1.9997  0.5333 -0.5911
 6607TIP3    H241237   4.439   1.964  15.358  1.2628 -1.9170 -0.6370
 6608TIP3   OH241238   3.808   1.284  16.052 -0.0496 -0.7082 -0.0111
 6608TIP3    H141239   3.795   1.294  16.146  0.9590 -1.7090  0.2504
 6608TIP3    H241240   3.798   1.191  16.035  1.7854 -0.8437 -0.5535
 6609TIP3   OH241241   4.032   2.673   1.989 -0.8688 -0.7111 -0.1627
 6609TIP3    H141242   4.039   2.674   2.084 -1.6113  1.6556 -0.0720
 6609TIP3    H241243   4.120   2.649   1.959 -0.8587 -2.3944  1.0863
 6610TIP3   OH241244   5.715   4.104  14.379  0.7796  0.1802 -0.2542
 6610TIP3    H141245   5.636   4.136  14.336  0.4882 -2.0204 -1.4763
 6610TIP3    H241246   5.786   4.127  14.319  0.8445  0.4766 -0.0666
 6611TIP3   OH241247   3.810   5.115   5.364 -0.1323  0.4116 -0.0707
 6611TIP3    H141248   3.786   5.058   5.437 -1.2929  1.6856  0.6135
 6611TIP3    H241249   3.903   5.098   5.349  0.4024  0.7950  2.3765
 6612TIP3   OH241250   4.858   5.258  13.252  0.7219 -0.6725  0.4744
 6612TIP3    H141251   4.845   5.343  13.295 -0.7035 -0.8267  0.3775
 6612TIP3    H241252   4.788   5.202  13.286 -0.9206 -0.6085 -2.4583
 6613TIP3   OH241253   5.290   2.964  10.775 -0.5789  0.5947  0.2136
 6613TIP3    H141254   5.362   2.962  10.712 -0.3443 -0.6094  0.4895
 6613TIP3    H241255   5.287   3.054  10.806  0.5620  0.7466 -0.0969
 6614TIP3   OH241256   6.237   2.387   4.173 -0.2265  0.5952  0.0802
 6614TIP3    H141257   6.180   2.461   4.153 -0.1610  0.6434  0.0699
 6614TIP3    H241258   6.223   2.370   4.266 -2.3515 -1.1607 -0.4673
 6615TIP3   OH241259   6.272   6.073  11.567 -0.0379  0.0402 -0.6136
 6615TIP3    H141260   6.279   6.142  11.632  1.8775 -0.7624  0.1026
 6615TIP3    H241261   6.251   5.994  11.617 -3.2666  0.1632 -1.5161
 6616TIP3   OH241262   6.028   2.704  14.955 -0.0308 -0.4338  0.0215
 6616TIP3    H141263   6.116   2.741  14.944 -0.1908 -0.2440 -0.5923
 6616TIP3    H241264   6.013   2.653  14.875 -1.3258  1.2416 -0.8446
 6617TIP3   OH241265   4.783   5.664  14.420 -0.2589 -0.0712  0.5062
 6617TIP3    H141266   4.793   5.700  14.508  0.6537 -1.5074  1.0390
 6617TIP3    H241267   4.726   5.587  14.431  0.3849 -0.6452 -0.0218
 6618TIP3   OH241268   0.499   5.616   5.191 -0.3075  0.2640  0.2266
 6618TIP3    H141269   0.560   5.686   5.216 -0.8408  0.7740  0.1162
 6618TIP3    H241270   0.473   5.639   5.102 -0.5587 -0.0253  0.2271
 6619TIP3   OH241271   0.960   0.063   6.447  0.2875  0.1247 -0.0507
 6619TIP3    H141272   0.901   0.005   6.398 -0.0890  0.5335 -0.0838
 6619TIP3    H241273   1.004   0.115   6.379  2.2299 -1.5636 -0.2061
 6620TIP3   OH241274   2.092   6.577  14.867 -0.0140  0.2640 -0.9343
 6620TIP3    H141275   2.018   6.556  14.811 -0.3987 -1.2631  0.0702
 6620TIP3    H241276   2.168   6.539  14.822  0.0174  0.9180 -1.4498
 6621TIP3   OH241277   1.204   4.118  14.824 -0.4574  0.1670  0.5941
 6621TIP3    H141278   1.286   4.070  14.835 -0.1330 -0.0280 -1.9861
 6621TIP3    H241279   1.215   4.197  14.877  0.5854 -0.7515  1.8129
 6622TIP3   OH241280   6.744   4.484   2.427 -0.1476 -0.1573 -0.1499
 6622TIP3    H141281   6.807   4.549   2.395 -0.3716 -0.0196 -0.3068
 6622TIP3    H241282   6.791   4.438   2.497 -0.5461  1.2397  1.0744
 6623TIP3   OH241283   2.201   3.331   4.538 -0.2651  0.1682  0.1810
 6623TIP3    H141284   2.107   3.347   4.533 -0.4605 -0.7085  0.8702
 6623TIP3    H241285   2.226   3.310   4.448 -0.6123  0.9688 -0.1105
 6624TIP3   OH241286   3.660   5.438  12.293 -0.0073  0.3872  0.1738
 6624TIP3    H141287   3.738   5.413  12.341  0.4023 -0.5457 -0.9352
 6624TIP3    H241288   3.592   5.378  12.324  0.1935 -0.0445 -0.2076
 6625TIP3   OH241289   6.274   4.514  14.210 -0.2609  0.5264 -0.0803
 6625TIP3    H141290   6.179   4.521  14.211 -0.3022  1.6518 -2.9343
 6625TIP3    H241291   6.303   4.561  14.288 -1.9744  1.5824 -0.0465
 6626TIP3   OH241292   5.330   1.769  10.963 -0.0354 -0.1349  0.0706
 6626TIP3    H141293   5.348   1.690  10.910 -0.9842 -0.2741 -0.0660
 6626TIP3    H241294   5.234   1.769  10.973  0.1380 -0.2843  2.0750
 6627TIP3   OH241295   5.433   1.873   0.186  0.9697 -0.4265 -0.2213
 6627TIP3    H141296   5.375   1.813   0.235  1.8348  0.2037  1.6903
 6627TIP3    H241297   5.487   1.914   0.254  2.1809  0.6006 -1.7433
 6628TIP3   OH241298   3.308   5.170  10.983 -0.2009 -0.4331 -0.1418
 6628TIP3    H141299   3.352   5.085  10.986 -1.0794 -0.8738  0.4872
 6628TIP3    H241300   3.311   5.195  10.890  1.4786 -0.3765 -0.1067
 6629TIP3   OH241301   1.560   6.305   4.819 -0.0363  0.5376  0.1935
 6629TIP3    H141302   1.503   6.312   4.743 -0.1778 -0.3880  0.2092
 6629TIP3    H241303   1.642   6.270   4.785  0.2454  1.0778  0.3055
 6630TIP3   OH241304   4.130   1.802  15.836  0.2968 -0.9042  0.4026
 6630TIP3    H141305   4.118   1.810  15.741 -0.1748  1.4716  0.6038
 6630TIP3    H241306   4.225   1.792  15.847  0.3140 -1.6971 -0.3140
 6631TIP3   OH241307   4.580   1.269  14.559  0.2502 -0.3130 -0.1674
 6631TIP3    H141308   4.563   1.207  14.630  2.1654  0.8473  1.3999
 6631TIP3    H241309   4.674   1.259  14.541  0.6308  2.0760  0.1608
 6632TIP3   OH241310   5.103   0.094   2.901  0.7869 -0.1356 -0.9007
 6632TIP3    H141311   5.021   0.046   2.890 -0.3038  1.7103 -1.2120
 6632TIP3    H241312   5.115   0.101   2.995  0.5808 -0.4073 -0.8557
 6633TIP3   OH241313   2.633   2.302   5.967 -0.0312 -0.1727 -0.1200
 6633TIP3    H141314   2.544   2.295   6.002  0.2283  1.2499  0.8899
 6633TIP3    H241315   2.644   2.222   5.915 -3.0776  1.1215 -3.0787
 6634TIP3   OH241316   2.836   1.491   4.625 -0.5318 -0.3051 -0.3044
 6634TIP3    H141317   2.742   1.474   4.630 -0.9501  2.1090  2.0124
 6634TIP3    H241318   2.857   1.478   4.532 -2.6514 -2.9207 -0.5453
 6635TIP3   OH241319   2.988   1.646  12.397  0.5768 -0.3407 -0.1069
 6635TIP3    H141320   2.942   1.730  12.405 -1.2339 -1.2667 -0.2743
 6635TIP3    H241321   2.919   1.580  12.405  1.7390 -1.8014 -1.4843
 6636TIP3   OH241322   1.507   1.469   4.005  0.4117  0.1628  0.4483
 6636TIP3    H141323   1.552   1.497   3.926 -1.0312 -1.1533 -0.8857
 6636TIP3    H241324   1.532   1.378   4.017 -3.3413 -1.3570 -1.5810
 6637TIP3   OH241325   5.411   4.535  13.666  0.2672 -0.3356 -0.5109
 6637TIP3    H141326   5.496   4.523  13.624  0.1420  1.6172 -1.4647
 6637TIP3    H241327   5.417   4.621  13.708 -1.3072 -0.0375 -0.8147
 6638TIP3   OH241328   2.480   6.186  16.432 -0.4063 -0.3244 -0.0902
 6638TIP3    H141329   2.425   6.253  16.391  0.4895  0.7610  0.4042
 6638TIP3    H241330   2.494   6.219  16.521  3.1115  0.8355 -0.8775
 6639TIP3   OH241331   1.379   6.610  16.918  0.1718  0.1277  0.4921
 6639TIP3    H141332   1.359   6.644  17.006 -1.4090  0.1698  0.1332
 6639TIP3    H241333   1.305   6.636  16.864  0.5866 -0.8808 -0.6141
 6640TIP3   OH241334   2.741   1.794  11.283 -0.1200 -0.1892 -0.3076
 6640TIP3    H141335   2.814   1.835  11.238 -1.8229  0.5172 -2.6671
 6640TIP3    H241336   2.756   1.700  11.273  1.1338 -0.0875  0.4717
 6641TIP3   OH241337   1.626   3.609   4.737  0.2319  0.2199  0.1443
 6641TIP3    H141338   1.552   3.611   4.677 -0.2864  2.3948  0.7880
 6641TIP3    H241339   1.597   3.551   4.808 -0.4630  0.2601 -0.0965
 6642TIP3   OH241340   4.630   4.691   5.374 -0.3666  0.2492 -0.5320
 6642TIP3    H141341   4.580   4.763   5.413 -1.4735  1.6650 -4.1286
 6642TIP3    H241342   4.719   4.725   5.367  0.1954 -0.5529  1.7733
 6643TIP3   OH241343   0.868   1.492   3.066  0.3579  0.2214 -0.2474
 6643TIP3    H141344   0.962   1.506   3.077  0.2329  0.9021  0.0292
 6643TIP3    H241345   0.861   1.414   3.011  1.0997  1.0637 -1.5830
 6644TIP3   OH241346   2.560   0.330   3.066  0.1980  0.1321 -0.0691
 6644TIP3    H141347   2.504   0.271   3.015 -0.9154  0.3001  0.9234
 6644TIP3    H241348   2.648   0.293   3.057 -0.2365 -0.7866 -0.7327
 6645TIP3   OH241349   1.076   2.353   0.531 -0.0308  0.5905  0.5628
 6645TIP3    H141350   1.153   2.387   0.577  0.3729  2.1265 -1.1211
 6645TIP3    H241351   1.002   2.385   0.582  0.4180  1.8937  0.4561
 6646TIP3   OH241352   5.472   1.603   5.120 -0.1603 -0.0713  0.0005
 6646TIP3    H141353   5.503   1.636   5.204  1.8435 -0.6868 -0.4435
 6646TIP3    H241354   5.400   1.545   5.142  0.5736 -0.5105  1.3364
 6647TIP3   OH241355   4.873   6.266  14.949 -0.3001  0.0529  0.5161
 6647TIP3    H141356   4.840   6.178  14.929 -2.3055  0.8268  0.1588
 6647TIP3    H241357   4.902   6.301  14.865  1.6675 -0.6753  0.8507
 6648TIP3   OH241358   2.949   1.478   2.973  0.1773 -0.1839 -0.1447
 6648TIP3    H141359   2.938   1.399   2.920  0.1535 -1.9435  2.3180
 6648TIP3    H241360   2.908   1.457   3.057  4.4465  0.4897  2.4129
 6649TIP3   OH241361   0.121   3.323   1.093 -0.2892  0.4472  0.4322
 6649TIP3    H141362   0.102   3.265   1.019  3.6651 -0.2802 -0.2235
 6649TIP3    H241363   0.054   3.301   1.158 -1.7050 -1.5063 -1.5357
 6650TIP3   OH241364   3.953   6.427  13.341  0.6359 -0.1880 -0.2349
 6650TIP3    H141365   3.950   6.484  13.418  0.7621 -0.7304  0.1852
 6650TIP3    H241366   4.007   6.474  13.278 -0.9036  1.0791 -0.6779
 6651TIP3   OH241367   1.651   1.922   5.348 -0.3421 -0.1562 -0.3428
 6651TIP3    H141368   1.596   1.940   5.272 -0.7865 -2.4862 -0.6568
 6651TIP3    H241369   1.697   2.004   5.365 -0.2881  0.4621 -3.0598
 6652TIP3   OH241370   0.876   6.001   0.789  0.4733  0.2903  1.0254
 6652TIP3    H141371   0.954   5.968   0.834 -0.2026  0.0359  2.0347
 6652TIP3    H241372   0.805   5.945   0.821  0.0645 -0.3561 -0.8765
 6653TIP3   OH241373   4.155   1.670   3.439 -0.2591 -0.0633  0.2126
 6653TIP3    H141374   4.155   1.748   3.495 -1.9519 -0.0402  0.2577
 6653TIP3    H241375   4.137   1.598   3.499  1.2698 -0.5124  0.1655
 6654TIP3   OH241376   2.604   0.933  12.037  0.1455  0.4802 -0.0986
 6654TIP3    H141377   2.579   0.873  12.108 -0.1841  0.5435 -0.1618
 6654TIP3    H241378   2.567   0.894  11.958  0.7185  0.2804 -0.2794
 6655TIP3   OH241379   6.121   4.812   6.480 -0.2180  0.4827  0.4493
 6655TIP3    H141380   6.064   4.743   6.446  0.3878  0.3413 -0.2996
 6655TIP3    H241381   6.064   4.864   6.537 -0.6332 -0.7669  1.2279
 6656TIP3   OH241382   0.401   4.508   0.395 -0.0951  0.1929 -0.6558
 6656TIP3    H141383   0.345   4.552   0.331 -1.6284 -0.2736  0.3181
 6656TIP3    H241384   0.399   4.416   0.370 -1.6479 -0.1760  0.6891
 6657TIP3   OH241385   0.947   6.323  13.414  0.1019 -0.1164  0.1373
 6657TIP3    H141386   0.995   6.406  13.422 -0.5886  0.3771 -0.6459
 6657TIP3    H241387   0.910   6.309  13.501  3.0918 -1.4551  1.3240
 6658TIP3   OH241388   6.686   6.491  14.294 -0.0561 -0.3871  0.3572
 6658TIP3    H141389   6.649   6.421  14.239  0.8384 -0.1801 -0.5509
 6658TIP3    H241390   6.616   6.513  14.355 -1.8153  0.6798 -1.8879
 6659TIP3   OH241391   0.767   0.183  12.365  0.3159 -0.0580  0.0432
 6659TIP3    H141392   0.728   0.217  12.285  1.3679 -0.1651 -0.5402
 6659TIP3    H241393   0.705   0.118  12.397 -0.9533  1.2151  0.2936
 6660TIP3   OH241394   4.459   0.486  11.870  0.1306 -0.1618  0.4619
 6660TIP3    H141395   4.506   0.536  11.937 -2.1467  2.3212  0.3739
 6660TIP3    H241396   4.404   0.551  11.826 -1.7502 -2.4899 -0.8490
 6661TIP3   OH241397   2.456   5.062  16.704 -0.6330 -0.2424  0.1024
 6661TIP3    H141398   2.439   4.969  16.721 -0.7302 -0.2946 -0.2771
 6661TIP3    H241399   2.537   5.080  16.753  0.1764 -0.8844 -0.9390
 6662TIP3   OH241400   6.257   5.437   2.994  0.1235 -0.1244 -0.1944
 6662TIP3    H141401   6.176   5.487   2.978 -1.5701 -2.3570  0.8240
 6662TIP3    H241402   6.276   5.452   3.087 -0.1347 -0.9605  0.0015
 6663TIP3   OH241403   5.853   4.766   1.600 -0.0484 -0.2149 -0.1535
 6663TIP3    H141404   5.885   4.829   1.535 -0.7751 -1.5135 -1.8480
 6663TIP3    H241405   5.929   4.713   1.623  0.1122 -0.0475 -0.2991
 6664TIP3   OH241406   2.245   6.050  17.119  0.6029  0.6153  0.1012
 6664TIP3    H141407   2.220   6.008  17.201  0.1308 -0.1607 -0.4218
 6664TIP3    H241408   2.170   6.037  17.061  1.9864 -1.4549 -1.3999
 6665TIP3   OH241409   0.815   2.821   3.103 -0.1357 -0.1750 -0.5351
 6665TIP3    H141410   0.897   2.846   3.059  0.1893 -0.0232  0.1429
 6665TIP3    H241411   0.757   2.896   3.091  0.7784  0.8987  1.3512
 6666TIP3   OH241412   3.952   6.492   3.018  0.2971 -0.1172  0.6331
 6666TIP3    H141413   4.038   6.514   2.983  0.0166 -1.0446 -0.6919
 6666TIP3    H241414   3.945   6.397   3.009 -0.6201 -0.1296  1.3051
 6667TIP3   OH241415   0.885   0.854   2.364 -0.3518  0.5785 -0.1864
 6667TIP3    H141416   0.947   0.831   2.433 -0.1301  1.8627  0.0770
 6667TIP3    H241417   0.871   0.948   2.375  0.8413  1.1337 -2.8167
 6668TIP3   OH241418   6.167   5.456  13.013 -0.3280  0.0154  0.2580
 6668TIP3    H141419   6.220   5.535  13.007 -0.8974  0.3937  0.1308
 6668TIP3    H241420   6.223   5.386  12.981  0.7039  0.1193  1.7355
 6669TIP3   OH241421   6.275   5.536   0.250 -0.6121  0.2037 -0.4662
 6669TIP3    H141422   6.298   5.603   0.313  0.0948  0.4248 -0.9414
 6669TIP3    H241423   6.287   5.578   0.165  1.0996 -0.8710 -0.8062
 6670TIP3   OH241424   1.267   2.961   2.512 -0.4543 -0.1208 -0.3306
 6670TIP3    H141425   1.262   2.899   2.439  0.6869  0.6060 -1.0552
 6670TIP3    H241426   1.305   3.039   2.474 -0.7465  0.6176  0.8519
 6671TIP3   OH241427   3.199   2.198  12.666  0.0614 -0.6216 -0.1667
 6671TIP3    H141428   3.126   2.202  12.604 -1.4010  0.4960  1.5566
 6671TIP3    H241429   3.218   2.289  12.687  3.1974 -0.7291 -1.8580
 6672TIP3   OH241430   5.431   5.839   0.767  0.4737 -0.1698  0.2294
 6672TIP3    H141431   5.477   5.832   0.850  0.1582 -1.0296  0.3399
 6672TIP3    H241432   5.369   5.911   0.779 -1.9677 -2.4212  1.9285
 6673TIP3   OH241433   4.097   0.724   5.536  0.5919 -0.0444 -0.0945
 6673TIP3    H141434   4.022   0.718   5.595 -0.3079  1.5970 -1.0088
 6673TIP3    H241435   4.115   0.818   5.529  1.1770 -0.2517 -1.8016
 6674TIP3   OH241436   4.313   1.639  12.810  0.5340 -0.8196  0.2336
 6674TIP3    H141437   4.375   1.605  12.875  0.0773  0.1387  1.2008
 6674TIP3    H241438   4.231   1.594  12.828  0.1296  0.1906  1.0282
 6675TIP3   OH241439   6.368   0.045   1.039 -0.8923 -0.5846  0.8319
 6675TIP3    H141440   6.339  -0.015   0.969 -2.2658  1.5529 -0.5630
 6675TIP3    H241441   6.293   0.049   1.099 -0.8665 -0.1564  0.8352
 6676TIP3   OH241442   4.957   5.711  11.881 -0.0375  0.1493  0.0494
 6676TIP3    H141443   4.969   5.680  11.791 -0.4236 -1.5800  0.5581
 6676TIP3    H241444   5.032   5.768  11.897  1.3841 -1.4872 -0.5516
 6677TIP3   OH241445   1.086   5.952  14.529 -0.3903 -0.1781  0.3882
 6677TIP3    H141446   1.151   6.001  14.579 -0.1744  0.7980 -0.8249
 6677TIP3    H241447   1.008   6.008  14.530 -0.4539 -0.2524 -0.1746
 6678TIP3   OH241448   5.004   2.459   1.471  0.0037 -0.4570  0.4215
 6678TIP3    H141449   5.075   2.430   1.529 -0.0975  0.0303  0.7924
 6678TIP3    H241450   4.928   2.410   1.500  0.6175 -2.7301 -1.4274
 6679TIP3   OH241451   2.636   0.101  12.469 -0.2863  0.2764  0.1863
 6679TIP3    H141452   2.650   0.032  12.534 -1.5412 -0.2267 -0.0574
 6679TIP3    H241453   2.632   0.182  12.521 -2.2786 -0.2286  0.8766
 6680TIP3   OH241454   0.257   3.607   4.716  0.3015  0.3441  0.8280
 6680TIP3    H141455   0.329   3.619   4.654  1.5686  1.7880  2.4689
 6680TIP3    H241456   0.299   3.607   4.802 -1.4679 -0.8689  1.7555
 6681TIP3   OH241457   6.494   3.909  16.284  0.3361 -1.0316  0.0460
 6681TIP3    H141458   6.488   3.863  16.200  3.4539 -1.9781  0.2430
 6681TIP3    H241459   6.529   3.845  16.345 -0.4785  0.0719  1.7556
 6682TIP3   OH241460   3.069   4.354  11.177 -0.3660  0.2873  0.3395
 6682TIP3    H141461   3.111   4.358  11.263 -0.5478 -1.1026  0.5163
 6682TIP3    H241462   3.141   4.346  11.115 -0.2928 -0.2356  0.4900
 6683TIP3   OH241463   5.634   1.446  12.029  0.0339  0.4234  0.0625
 6683TIP3    H141464   5.539   1.459  12.031 -0.1204 -0.3039 -1.4344
 6683TIP3    H241465   5.654   1.431  11.937  1.5797  0.3508  0.3932
 6684TIP3   OH241466   4.223   4.528   2.558  0.0247  0.4540 -0.1575
 6684TIP3    H141467   4.183   4.441   2.557  3.1776 -1.2698  1.9666
 6684TIP3    H241468   4.232   4.552   2.466 -1.5815 -1.1060 -0.7819
 6685TIP3   OH241469   0.423   5.777   0.118 -0.5821  0.1312 -0.6761
 6685TIP3    H141470   0.518   5.778   0.131 -0.6020  1.1765 -0.5592
 6685TIP3    H241471   0.388   5.825   0.193 -1.3971 -2.2445  0.5496
 6686TIP3   OH241472   2.001   5.948  15.893 -0.0591 -0.4541  0.1352
 6686TIP3    H141473   1.996   6.025  15.950  1.9605  1.0698 -1.6244
 6686TIP3    H241474   1.955   5.973  15.813 -0.1281 -1.4174 -0.1466
 6687TIP3   OH241475   2.229   2.366   3.097 -0.4441 -0.3383 -0.5008
 6687TIP3    H141476   2.268   2.280   3.111 -1.8239 -0.9174 -0.0826
 6687TIP3    H241477   2.180   2.358   3.015 -0.6789  0.0057 -0.3966
 6688TIP3   OH241478   1.984   1.001   4.960 -0.0122 -0.3373  0.2265
 6688TIP3    H141479   2.021   1.062   4.896  1.3158 -0.4599  0.8310
 6688TIP3    H241480   1.900   0.976   4.923 -0.6580  1.9041 -0.0150
 6689TIP3   OH241481   2.916   6.560   3.287  0.2846  0.0544  0.1440
 6689TIP3    H141482   2.945   6.610   3.210  0.2056 -1.4401 -0.8980
 6689TIP3    H241483   2.832   6.599   3.311  0.9203  1.3792  0.3024
 6690TIP3   OH241484   2.367   4.204  14.965 -0.0852  0.0883  0.0419
 6690TIP3    H141485   2.461   4.216  14.983 -0.1302  0.2123  0.1912
 6690TIP3    H241486   2.353   4.110  14.976 -0.1987  0.2146  1.0588
 6691TIP3   OH241487   1.083   3.624  10.118  0.6528  0.3895  0.6801
 6691TIP3    H141488   1.038   3.662  10.193 -0.3151 -2.0546  1.4509
 6691TIP3    H241489   1.017   3.567  10.077  1.4859  0.8401 -1.3990
 6692TIP3   OH241490   1.149   1.239  11.996 -0.1957  0.1091 -0.2536
 6692TIP3    H141491   1.060   1.243  12.029 -0.0184  1.6452  0.0856
 6692TIP3    H241492   1.158   1.315  11.939  0.7844 -0.2388 -0.5952
 6693TIP3   OH241493   5.079   6.676  15.807 -0.1282 -0.4943  0.4341
 6693TIP3    H141494   5.080   6.592  15.761 -0.1800 -0.6832  0.7767
 6693TIP3    H241495   4.986   6.695  15.821 -0.0757 -1.1787  1.8032
 6694TIP3   OH241496   6.500   5.548   4.650  0.6532  0.1843 -0.2888
 6694TIP3    H141497   6.485   5.626   4.596 -0.6825 -0.5816 -1.0949
 6694TIP3    H241498   6.438   5.556   4.722  1.3493  0.4356  0.2954
 6695TIP3   OH241499   6.729   5.817  14.776 -0.3089  0.1814 -0.0179
 6695TIP3    H141500   6.658   5.807  14.712  0.9431 -2.0543 -1.1700
 6695TIP3    H241501   6.794   5.871  14.731  0.5572 -1.3632 -0.7113
 6696TIP3   OH241502   2.523   0.923   2.479  0.3217  0.1985 -0.2296
 6696TIP3    H141503   2.527   0.965   2.565  3.8898  0.5850 -0.4511
 6696TIP3    H241504   2.493   0.993   2.420  1.1627  0.9526  0.2110
 6697TIP3   OH241505   3.219   2.513  11.281 -0.3748  0.1545 -0.7213
 6697TIP3    H141506   3.166   2.470  11.349 -1.2636 -0.6879 -1.9037
 6697TIP3    H241507   3.274   2.574  11.329 -0.9577 -0.4353  0.7667
 6698TIP3   OH241508   1.941   0.670  14.965 -0.1619  0.2365  0.1493
 6698TIP3    H141509   1.882   0.715  14.904 -0.4603  0.2075  0.4092
 6698TIP3    H241510   2.027   0.709  14.948  0.8728 -3.0661 -3.6635
 6699TIP3   OH241511   5.450   6.569   5.418  0.0244  0.2107  0.0775
 6699TIP3    H141512   5.465   6.652   5.372  0.7249  0.7294  1.2067
 6699TIP3    H241513   5.502   6.505   5.369  0.1496  0.5959 -0.3028
 6700TIP3   OH241514   1.881   6.269   2.619  0.5558 -0.5265  0.1317
 6700TIP3    H141515   1.896   6.309   2.533 -0.4110 -0.8616 -0.2111
 6700TIP3    H241516   1.968   6.242   2.648  1.2829  1.9207  0.4514
 6701TIP3   OH241517   5.582   3.005  13.606 -0.6744  0.2465  0.4968
 6701TIP3    H141518   5.516   3.071  13.629  0.4377  1.8137 -0.5451
 6701TIP3    H241519   5.592   3.014  13.512  1.1007  0.1650  0.6457
 6702TIP3   OH241520   0.766   1.574   2.681 -0.2032  0.1137  0.2007
 6702TIP3    H141521   0.695   1.554   2.741 -0.9678  0.0569 -0.6999
 6702TIP3    H241522   0.790   1.665   2.701 -1.1913  0.4622 -0.1351
 6703TIP3   OH241523   5.029   5.643  14.891  0.4097 -0.2394  0.4648
 6703TIP3    H141524   4.942   5.609  14.914 -0.1357  0.0494 -1.0442
 6703TIP3    H241525   5.065   5.675  14.974 -1.1043  0.0371  1.0491
 6704TIP3   OH241526   1.353   1.337   2.006 -0.6901 -0.4097  0.3029
 6704TIP3    H141527   1.283   1.331   2.071 -0.9622 -2.3225 -0.1112
 6704TIP3    H241528   1.320   1.286   1.932  0.0252  0.9237 -0.9708
 6705TIP3   OH241529   4.556   4.215  11.467 -0.1876  0.1617 -0.1093
 6705TIP3    H141530   4.582   4.230  11.558  1.0427  0.4871 -0.4905
 6705TIP3    H241531   4.531   4.123  11.463 -1.5322  0.4610  0.8399
 6706TIP3   OH241532   3.747   0.990  13.338  0.6498  0.3865  0.5147
 6706TIP3    H141533   3.660   0.964  13.306  0.8583 -0.1328  0.3515
 6706TIP3    H241534   3.746   1.086  13.334  0.0621  0.3898  0.5762
 6707TIP3   OH241535   0.947   0.306   3.815  0.4468 -0.7819  0.2650
 6707TIP3    H141536   0.989   0.298   3.730  0.0030 -1.2356  0.0854
 6707TIP3    H241537   0.931   0.400   3.826  1.8870 -0.5522  0.5241
 6708TIP3   OH241538   0.072   1.440   4.934  0.0819  0.6907 -0.1930
 6708TIP3    H141539   0.136   1.453   4.864  0.3852  1.0213  0.1377
 6708TIP3    H241540   0.102   1.497   5.005  0.1679 -0.1502  0.4702
 6709TIP3   OH241541   3.662   2.135   3.699 -0.3969 -0.6553 -0.6207
 6709TIP3    H141542   3.628   2.058   3.745 -2.6021  0.0653 -0.8846
 6709TIP3    H241543   3.596   2.202   3.715  1.0002  0.9181 -1.1885
 6710TIP3   OH241544   6.056   2.031   0.054  0.2870  0.4449 -0.2698
 6710TIP3    H141545   6.140   2.027   0.009 -0.1183  2.0542 -1.2865
 6710TIP3    H241546   6.078   2.045   0.146  1.1215 -1.0309 -0.2283
 6711TIP3   OH241547   6.486   4.135  16.847  0.4348  0.3190 -0.4235
 6711TIP3    H141548   6.569   4.105  16.884  0.6756 -0.0731 -1.2665
 6711TIP3    H241549   6.500   4.228  16.830  1.1755 -0.0104 -1.7768
 6712TIP3   OH241550   4.606   0.337  11.404  0.0765  0.3765 -0.5675
 6712TIP3    H141551   4.595   0.400  11.474  2.7923  1.2635 -0.8429
 6712TIP3    H241552   4.613   0.252  11.448 -1.4002  0.5022 -0.0464
 6713TIP3   OH241553   1.888   2.763  12.683  0.5865 -0.0710  0.4196
 6713TIP3    H141554   1.962   2.708  12.708  1.8067  1.3020 -0.0838
 6713TIP3    H241555   1.895   2.841  12.737 -0.4666  0.1098  0.3228
 6714TIP3   OH241556   5.588   5.605   2.100  0.0515  0.2121  0.4675
 6714TIP3    H141557   5.668   5.648   2.069  0.4474 -0.5261  0.4645
 6714TIP3    H241558   5.605   5.587   2.192 -0.2214  0.2926  0.5361
 6715TIP3   OH241559   1.319   3.062  13.916  0.7203 -0.4492 -0.6978
 6715TIP3    H141560   1.363   3.008  13.850  0.9863 -1.6404  0.4139
 6715TIP3    H241561   1.380   3.133  13.935  2.6160 -2.4644  1.3562
 6716TIP3   OH241562   3.383   2.284   2.525  0.3263  0.0859 -0.1661
 6716TIP3    H141563   3.477   2.268   2.533  0.3331  0.7007  1.2268
 6716TIP3    H241564   3.370   2.303   2.432  1.0995 -2.7658 -0.9369
 6717TIP3   OH241565   5.375   2.804   3.608 -0.0225 -0.5528 -0.4104
 6717TIP3    H141566   5.305   2.787   3.671  0.3995  1.5438  0.6802
 6717TIP3    H241567   5.397   2.896   3.619  3.0988 -1.1783 -0.5427
 6718TIP3   OH241568   6.437   6.416   4.658  0.5150  0.3047  0.5977
 6718TIP3    H141569   6.475   6.346   4.606 -1.0291  0.6327 -1.0764
 6718TIP3    H241570   6.398   6.373   4.733  0.5883 -0.4910  0.1840
 6719TIP3   OH241571   0.414   1.825   4.509 -0.4221  0.2325  0.1299
 6719TIP3    H141572   0.335   1.876   4.490 -0.1977 -0.1087 -1.9468
 6719TIP3    H241573   0.429   1.773   4.430  1.1367 -0.7124  0.9885
 6720TIP3   OH241574   4.283   6.573   2.133 -0.0107 -0.5175  0.1733
 6720TIP3    H141575   4.347   6.510   2.100 -1.1480 -1.5160 -0.2110
 6720TIP3    H241576   4.208   6.520   2.158 -0.0791  0.4536  2.2050
 6721TIP3   OH241577   6.045   5.695  15.974 -0.1051  0.0664 -0.4518
 6721TIP3    H141578   6.040   5.686  16.069  1.9050  0.1269 -0.2887
 6721TIP3    H241579   5.954   5.697  15.944 -0.7606 -0.4091  1.4167
 6722TIP3   OH241580   2.799   4.502  10.247 -0.1701 -0.1633  0.3786
 6722TIP3    H141581   2.852   4.432  10.208 -1.8306 -0.3595 -1.7338
 6722TIP3    H241582   2.776   4.558  10.172  0.0771  1.9717  1.8227
 6723TIP3   OH241583   3.593   6.604  16.050 -0.1919 -0.5360 -0.2305
 6723TIP3    H141584   3.556   6.665  16.113 -1.8512 -0.7416 -0.9626
 6723TIP3    H241585   3.660   6.655  16.003  0.1804 -0.0352  0.8245
 6724TIP3   OH241586   1.819   0.139   0.316  0.1776  0.3397 -0.1761
 6724TIP3    H141587   1.771   0.139   0.233  0.4645  1.4259 -0.3618
 6724TIP3    H241588   1.833   0.047   0.336 -0.8825  0.0362 -0.7589
 6725TIP3   OH241589   2.685   4.372   2.556 -0.5400 -0.8890 -0.5815
 6725TIP3    H141590   2.744   4.303   2.525  1.4254  0.5891 -0.3409
 6725TIP3    H241591   2.655   4.340   2.642  1.6875 -0.7758  0.3117
 6726TIP3   OH241592   6.011   0.734   2.235 -0.6041 -0.3950  0.2017
 6726TIP3    H141593   6.007   0.803   2.169 -2.0397 -0.8978 -0.2643
 6726TIP3    H241594   5.952   0.764   2.305  0.7693  0.0544  1.2159
 6727TIP3   OH241595   2.915   3.126  16.300  0.0123 -0.1476 -0.7579
 6727TIP3    H141596   2.946   3.103  16.213 -1.8242 -3.0501 -0.7771
 6727TIP3    H241597   2.925   3.045  16.351 -1.9445  0.5134  0.7885
 6728TIP3   OH241598   3.543   0.760   1.798  0.2518  0.1359  0.4936
 6728TIP3    H141599   3.511   0.696   1.735 -0.2371  2.0108 -1.2857
 6728TIP3    H241600   3.612   0.807   1.752  1.0215  0.5113  1.9635
 6729TIP3   OH241601   6.210   0.399   1.872 -0.3046  0.3926 -0.2197
 6729TIP3    H141602   6.300   0.384   1.845 -0.4325  1.2664 -1.2223
 6729TIP3    H241603   6.173   0.312   1.885  0.7297  0.0353  0.4021
 6730TIP3   OH241604   2.749   5.435  15.701 -0.0567  0.2116  0.0887
 6730TIP3    H141605   2.822   5.390  15.744 -0.2444  1.0319  1.3205
 6730TIP3    H241606   2.762   5.527  15.723 -0.0248  0.7049 -1.8619
 6731TIP3   OH241607   0.722   3.444  14.208 -0.2278  0.2724 -0.3863
 6731TIP3    H141608   0.809   3.406  14.222  1.1606  3.3073  0.0201
 6731TIP3    H241609   0.722   3.472  14.117 -0.7695  0.3235 -0.3751
 6732TIP3   OH241610   1.508   2.557   1.056 -0.0052 -0.4052 -0.5436
 6732TIP3    H141611   1.522   2.650   1.077 -3.5844  0.2402 -0.2642
 6732TIP3    H241612   1.584   2.532   1.004  0.0433  3.3896 -2.6527
 6733TIP3   OH241613   2.644   5.014  16.356  0.0479  0.0614 -0.3566
 6733TIP3    H141614   2.733   5.047  16.371  0.6549 -1.2679 -0.8686
 6733TIP3    H241615   2.593   5.092  16.334  1.3011  0.7282 -1.0291
 6734TIP3   OH241616   5.664   3.023   5.168  0.0612 -0.1795  0.1781
 6734TIP3    H141617   5.736   3.022   5.230 -0.5775 -0.8213  0.9283
 6734TIP3    H241618   5.596   2.970   5.209 -1.3413  1.4562  0.1034
 6735TIP3   OH241619   5.632   2.138  12.315 -0.1003  0.2592 -0.6446
 6735TIP3    H141620   5.594   2.051  12.302  0.0745  0.3288 -1.6785
 6735TIP3    H241621   5.562   2.189  12.355 -0.1440 -0.3988  0.1405
 6736TIP3   OH241622   3.386   5.046  10.177 -0.0926  0.5953 -0.1254
 6736TIP3    H141623   3.347   4.990  10.244 -0.7208  0.3442 -0.6886
 6736TIP3    H241624   3.450   4.990  10.133 -0.8732  0.2429 -0.8293
 6737TIP3   OH241625   2.770   1.102  16.218 -0.7389 -0.0499 -0.1681
 6737TIP3    H141626   2.772   1.051  16.137 -0.3308 -2.3622  1.1949
 6737TIP3    H241627   2.729   1.044  16.282  0.8429  0.8431  1.7840
 6738TIP3   OH241628   1.037   0.633   1.881  0.2887 -0.5435  0.4499
 6738TIP3    H141629   1.129   0.660   1.880  0.0911  0.2120  1.2535
 6738TIP3    H241630   1.000   0.679   1.956 -0.9115 -0.3146 -0.2711
 6739TIP3   OH241631   5.424   4.100   0.382  0.0862  0.0290 -0.0831
 6739TIP3    H141632   5.423   4.068   0.291 -0.7691 -0.1478 -0.0266
 6739TIP3    H241633   5.489   4.169   0.383 -0.6851  0.8075 -1.1173
 6740TIP3   OH241634   0.356   2.416   2.109 -0.5801  0.3225  0.1292
 6740TIP3    H141635   0.322   2.466   2.183 -2.2921  0.6280 -0.8086
 6740TIP3    H241636   0.380   2.482   2.044  1.2311  0.0711  0.5109
 6741TIP3   OH241637   5.958   1.678   4.684  0.0848 -0.5079 -0.0973
 6741TIP3    H141638   6.044   1.682   4.725  1.8300 -1.6673 -3.3522
 6741TIP3    H241639   5.946   1.764   4.644 -0.1540 -0.4584  0.0733
 6742TIP3   OH241640   3.516   4.801   1.591  0.2093  0.2408  0.0932
 6742TIP3    H141641   3.508   4.823   1.498  2.3565 -1.2505 -0.5290
 6742TIP3    H241642   3.583   4.861   1.624 -0.7249  0.9397  0.7888
 6743TIP3   OH241643   2.254   6.498   5.448  0.0577 -0.6493 -0.4181
 6743TIP3    H141644   2.336   6.449   5.446 -0.2141 -1.1609  0.5040
 6743TIP3    H241645   2.276   6.583   5.485 -0.3347 -1.8673  2.9095
 6744TIP3   OH241646   1.842   5.549   4.437 -0.7092  0.1898  0.2382
 6744TIP3    H141647   1.866   5.465   4.397 -0.2549  1.6007 -2.6893
 6744TIP3    H241648   1.746   5.548   4.438 -0.7217 -0.6844  1.1314
 6745TIP3   OH241649   1.272   6.265   1.462 -0.1611  0.1462  0.6455
 6745TIP3    H141650   1.275   6.208   1.539  0.9762 -1.5513 -0.5817
 6745TIP3    H241651   1.180   6.268   1.438 -0.2247 -1.4622  0.5816
 6746TIP3   OH241652   3.904   0.947   2.018  0.1158 -0.2673  0.9015
 6746TIP3    H141653   3.992   0.965   1.987 -0.6692 -1.0214 -2.0869
 6746TIP3    H241654   3.895   0.999   2.099  2.9281  0.5316  0.7778
 6747TIP3   OH241655   0.018   1.446   1.899 -0.0349  0.1177  0.6866
 6747TIP3    H141656   0.078   1.426   1.828 -0.6448 -0.0722  0.2143
 6747TIP3    H241657   0.018   1.542   1.903 -0.0590  0.1329  0.3728
 6748TIP3   OH241658   1.617   0.640  13.686 -0.3629  0.1472  0.1869
 6748TIP3    H141659   1.556   0.696  13.638 -0.0701  0.4323  0.1416
 6748TIP3    H241660   1.635   0.568  13.626  2.3299  1.9806 -1.4341
 6749TIP3   OH241661   2.792   0.356  16.101 -0.9102  0.0883  0.4238
 6749TIP3    H141662   2.833   0.440  16.081  1.1600 -1.4061 -2.1910
 6749TIP3    H241663   2.717   0.350  16.042 -0.9065 -0.0175  0.4297
 6750TIP3   OH241664   0.186   1.954   5.616 -0.8537  0.1973 -0.1260
 6750TIP3    H141665   0.097   1.934   5.644 -0.9667  0.5660 -0.2280
 6750TIP3    H241666   0.176   2.025   5.553 -0.4807  0.2904 -0.0799
 6751TIP3   OH241667   4.461   0.804  12.045  0.1220 -0.2696  0.5790
 6751TIP3    H141668   4.516   0.860  11.991 -0.1949 -0.6579 -0.1556
 6751TIP3    H241669   4.503   0.718  12.041 -1.2881 -0.9294 -1.1669
 6752TIP3   OH241670   3.150   4.804  16.425 -0.2640  0.0596 -0.3282
 6752TIP3    H141671   3.241   4.802  16.454 -0.5769 -0.2356  0.6672
 6752TIP3    H241672   3.153   4.774  16.334  0.4006 -2.1262  0.3546
 6753TIP3   OH241673   0.351   6.287   2.192 -0.4724  0.6403 -0.8703
 6753TIP3    H141674   0.436   6.258   2.224 -0.7070 -0.4550 -1.2066
 6753TIP3    H241675   0.288   6.244   2.249 -0.8625 -0.6334 -2.2211
 6754TIP3   OH241676   5.000   4.651  10.651  0.5080  0.1722 -0.1975
 6754TIP3    H141677   4.952   4.702  10.716 -0.4772  1.2578 -1.7060
 6754TIP3    H241678   5.027   4.716  10.585 -0.8066 -1.2122 -2.2076
 6755TIP3   OH241679   4.120   3.588  11.009 -0.2352  0.1572 -0.3738
 6755TIP3    H141680   4.085   3.509  10.969  1.0057 -0.6612  0.1160
 6755TIP3    H241681   4.058   3.609  11.079 -0.9497  0.0522 -0.9531
 6756TIP3   OH241682   4.941   1.630  16.194 -0.1337 -0.0927  0.0733
 6756TIP3    H141683   4.879   1.648  16.264 -1.2611 -0.6236 -0.7630
 6756TIP3    H241684   4.921   1.694  16.125  1.3322  0.7974  0.4223
 6757TIP3   OH241685   2.309   2.481  14.467 -0.5385 -0.0030  0.3571
 6757TIP3    H141686   2.214   2.483  14.479 -0.5157  0.1749  0.5059
 6757TIP3    H241687   2.345   2.471  14.555 -0.4612 -1.5172  0.1731
 6758TIP3   OH241688   5.503   2.973  10.568  0.2870 -0.5869  0.8008
 6758TIP3    H141689   5.559   3.049  10.553  0.3111 -0.6908  0.3422
 6758TIP3    H241690   5.561   2.898  10.555 -0.5799 -0.8225 -2.9270
 6759TIP3   OH241691   5.290   1.359  13.747 -0.1642 -0.4827 -0.9750
 6759TIP3    H141692   5.384   1.369  13.734 -0.0683  2.3343  1.0337
 6759TIP3    H241693   5.280   1.268  13.776  2.3979 -0.1347  1.5147
 6760TIP3   OH241694   5.453   0.932  12.572 -0.3492 -0.2482  0.2489
 6760TIP3    H141695   5.453   0.951  12.478  0.2615 -0.7482  0.1450
 6760TIP3    H241696   5.431   1.015  12.613 -2.3384 -0.4023 -0.4071
 6761TIP3   OH241697   3.068   4.884   0.800  0.6126 -0.0772  0.2573
 6761TIP3    H141698   3.057   4.930   0.718  1.0505 -1.0175 -0.3442
 6761TIP3    H241699   2.978   4.874   0.834  0.2915 -0.8969 -0.7938
 6762TIP3   OH241700   2.693   6.286   1.970 -0.0833  0.7025 -0.6299
 6762TIP3    H141701   2.723   6.373   1.945 -1.8380  1.5040 -0.0848
 6762TIP3    H241702   2.640   6.300   2.048 -0.8375 -0.7747 -0.8330
 6763TIP3   OH241703   3.168   1.935   4.278  0.3252 -0.2418 -0.3390
 6763TIP3    H141704   3.159   2.022   4.317 -0.9254 -0.5424  0.1129
 6763TIP3    H241705   3.256   1.934   4.241  1.2180  0.4222  1.5908
 6764TIP3   OH241706   0.676   2.112   3.434 -0.3209  0.2551  0.4495
 6764TIP3    H141707   0.701   2.115   3.526 -0.5453  0.3854  0.5074
 6764TIP3    H241708   0.581   2.100   3.435 -0.3050  0.1003  0.2349
 6765TIP3   OH241709   2.414   1.939   1.189  0.1840 -0.1965  0.5255
 6765TIP3    H141710   2.436   2.024   1.149 -1.2481  0.1631  0.4495
 6765TIP3    H241711   2.406   1.880   1.114  0.6127 -0.2699  0.5346
 6766TIP3   OH241712   0.133   6.504   1.699  0.2767 -0.2292  0.0971
 6766TIP3    H141713   0.081   6.538   1.626  2.0637 -0.1038 -1.1864
 6766TIP3    H241714   0.190   6.576   1.724  1.9932 -1.2487 -0.6492
 6767TIP3   OH241715   3.570   5.911  13.961  0.2785 -0.3730 -0.2314
 6767TIP3    H141716   3.613   5.980  13.911  1.1219  1.4567  2.7536
 6767TIP3    H241717   3.642   5.861  14.000 -0.3272 -1.0745  0.0021
 6768TIP3   OH241718   3.946   5.164  15.152 -0.2706  0.4468  0.0938
 6768TIP3    H141719   4.023   5.122  15.189 -0.6864  0.0881  0.5723
 6768TIP3    H241720   3.917   5.105  15.082 -0.2405  0.4696  0.0620
 6769TIP3   OH241721   0.928   0.314  11.586  0.3540  0.5605  0.1492
 6769TIP3    H141722   0.843   0.340  11.619  0.5222  1.7933 -0.3066
 6769TIP3    H241723   0.985   0.388  11.605  1.3503 -0.2725  0.5180
 6770TIP3   OH241724   5.185   0.624   1.164  0.0623  0.0052 -0.3182
 6770TIP3    H141725   5.201   0.711   1.127  0.6844 -0.5766 -1.4529
 6770TIP3    H241726   5.271   0.596   1.197  0.3293 -0.9854 -1.7648
 6771TIP3   OH241727   0.040   1.792  12.866 -0.1238 -0.0601  0.2661
 6771TIP3    H141728   0.018   1.707  12.828  1.9559 -1.7303  2.4874
 6771TIP3    H241729   0.113   1.824  12.812 -0.0261 -0.3351  0.2340
 6772TIP3   OH241730   3.667   3.651  12.652  0.1033 -0.0213  0.2034
 6772TIP3    H141731   3.599   3.584  12.655 -0.3271  0.4070  0.2755
 6772TIP3    H241732   3.742   3.608  12.611 -0.7506 -0.0447 -1.4057
 6773TIP3   OH241733   5.162   1.835  16.158  0.5033  0.4772 -0.2719
 6773TIP3    H141734   5.108   1.756  16.157 -0.3017  1.0265 -1.3894
 6773TIP3    H241735   5.147   1.876  16.074  1.0905  1.7250  0.2077
 6774TIP3   OH241736   0.505   2.164   1.602 -0.2517 -0.4300 -0.0865
 6774TIP3    H141737   0.595   2.170   1.633 -0.3108 -0.6366  0.1281
 6774TIP3    H241738   0.505   2.092   1.539 -0.1732 -0.1355 -0.4312
 6775TIP3   OH241739   2.633   1.092  11.605 -0.2477 -0.1290 -0.1709
 6775TIP3    H141740   2.587   1.150  11.544  0.8160  1.1411  0.1932
 6775TIP3    H241741   2.691   1.040  11.550  0.7620  1.0640 -0.2942
 6776TIP3   OH241742   4.058   0.478   1.108  0.3820 -0.1787  0.8101
 6776TIP3    H141743   3.968   0.498   1.082  0.4841 -1.5387 -0.8382
 6776TIP3    H241744   4.105   0.560   1.099 -0.5557  0.3907  1.0204
 6777TIP3   OH241745   1.022   1.127   5.149  0.2122 -0.3726  0.2149
 6777TIP3    H141746   1.112   1.157   5.162  0.5342 -1.9148  2.1477
 6777TIP3    H241747   1.017   1.104   5.057  1.6685  0.1345 -0.0109
 6778TIP3   OH241748   1.184   1.097  14.325 -0.2733  0.7541 -0.8623
 6778TIP3    H141749   1.172   1.006  14.299 -0.0904  0.7318 -0.8715
 6778TIP3    H241750   1.269   1.098  14.370 -0.8512  0.6672  0.2727
 6779TIP3   OH241751   6.024   6.694  16.915  0.3102  0.3579  0.0984
 6779TIP3    H141752   6.047   6.606  16.885 -0.7422 -1.5595  4.2411
 6779TIP3    H241753   5.950   6.720  16.860  0.9936 -1.0158 -1.5741
 6780TIP3   OH241754   3.768   3.834  15.305  0.1455  0.1244  0.3274
 6780TIP3    H141755   3.773   3.916  15.255  0.5427 -0.5750 -0.7999
 6780TIP3    H241756   3.737   3.769  15.243  1.8267 -1.0366  0.6432
 6781TIP3   OH241757   2.052   2.678  16.283 -0.0475 -0.1464 -0.2961
 6781TIP3    H141758   2.144   2.704  16.281  0.3971 -1.6792 -1.2277
 6781TIP3    H241759   2.032   2.667  16.376  1.1097 -1.0906 -0.1334
 6782TIP3   OH241760   4.175   5.374  15.318  0.0719 -0.4152  0.4821
 6782TIP3    H141761   4.158   5.378  15.412  1.7661 -0.2682  0.8116
 6782TIP3    H241762   4.240   5.442  15.302  0.9464 -1.4466 -0.5279
 6783TIP3   OH241763   6.226   1.759   0.585  0.5132 -0.2992  0.3445
 6783TIP3    H141764   6.242   1.741   0.678  0.1785  0.5201  0.5684
 6783TIP3    H241765   6.145   1.713   0.565  0.4813 -0.3170  0.5148
 6784TIP3   OH241766   3.068   0.913   0.403 -0.1556  0.6581  0.0805
 6784TIP3    H141767   3.144   0.948   0.448 -0.7488 -0.6734  2.2711
 6784TIP3    H241768   3.001   0.980   0.412  0.0473  0.8395  0.2301
 6785TIP3   OH241769   2.751   5.995   3.278 -0.1380 -0.7020  1.0693
 6785TIP3    H141770   2.793   6.074   3.313 -0.0220 -0.0664 -0.4173
 6785TIP3    H241771   2.728   6.019   3.188 -0.5258 -2.2211  0.7458
 6786TIP3   OH241772   4.644   2.526  14.199  0.0362  0.0839  0.4679
 6786TIP3    H141773   4.698   2.597  14.233  0.3885  0.0341  0.0358
 6786TIP3    H241774   4.604   2.486  14.276  0.2907  0.3918  0.7604
 6787TIP3   OH241775   5.677   2.681  13.527 -0.2361 -0.1050  0.3346
 6787TIP3    H141776   5.676   2.716  13.438 -0.3027 -1.6346 -0.2942
 6787TIP3    H241777   5.681   2.586  13.515 -0.0265 -0.3200  1.9709
 6788TIP3   OH241778   4.085   6.516  16.012  0.0093 -0.7220 -0.6736
 6788TIP3    H141779   4.066   6.607  15.989  0.5576 -0.3136  0.4105
 6788TIP3    H241780   4.174   6.519  16.048 -0.1596 -1.5985 -0.1555
 6789TIP3   OH241781   1.272   6.091   3.811 -0.3767 -0.1243 -0.2342
 6789TIP3    H141782   1.306   6.154   3.748 -1.3361  0.7449  0.0887
 6789TIP3    H241783   1.220   6.029   3.759 -1.4172  0.7666 -0.2877
 6790TIP3   OH241784   4.798   2.004   5.214 -0.1490 -0.0410  0.1652
 6790TIP3    H141785   4.878   2.022   5.164 -0.7981  0.8223 -0.6014
 6790TIP3    H241786   4.828   1.997   5.305  0.7276  0.9347 -0.0205
 6791TIP3   OH241787   3.191   4.685  14.017  0.2194  0.1338  0.0894
 6791TIP3    H141788   3.266   4.681  13.957 -0.6359 -0.4061 -0.9889
 6791TIP3    H241789   3.161   4.594  14.023  1.4371 -0.1922  2.9064
 6792TIP3   OH241790   0.510   6.746  13.176  0.3384  0.1513  0.2014
 6792TIP3    H141791   0.487   6.654  13.185 -1.4171  0.3129 -1.7926
 6792TIP3    H241792   0.543   6.754  13.086  2.5424  1.1224  1.0186
 6793TIP3   OH241793   5.825   5.404   0.587  0.1755 -0.0033 -0.1762
 6793TIP3    H141794   5.852   5.382   0.676  0.3550  0.7392 -0.0440
 6793TIP3    H241795   5.749   5.461   0.598 -0.0249 -0.2035 -0.5055
 6794TIP3   OH241796   3.093   1.910  13.115  0.1953 -0.7447  0.2246
 6794TIP3    H141797   3.087   2.005  13.117 -0.6889 -0.7900  1.0091
 6794TIP3    H241798   3.048   1.884  13.035 -3.1412 -0.6295  1.8642
 6795TIP3   OH241799   1.306   3.322  16.390  0.0136  0.2025 -0.2284
 6795TIP3    H141800   1.291   3.228  16.376  0.1547  0.3805 -1.7028
 6795TIP3    H241801   1.335   3.328  16.481  1.4333 -1.3460 -0.5350
 6796TIP3   OH241802   4.525   3.432  16.163  0.8652  0.1407 -0.5318
 6796TIP3    H141803   4.574   3.397  16.237 -0.8659  0.1644  0.6870
 6796TIP3    H241804   4.579   3.411  16.086  2.3263 -0.5881  0.6399
 6797TIP3   OH241805   5.834   2.064  11.524  0.1455 -0.4250 -0.2371
 6797TIP3    H141806   5.912   2.019  11.554  0.7415 -0.1245 -1.2520
 6797TIP3    H241807   5.818   2.131  11.590 -1.0758 -2.3989  1.5695
 6798TIP3   OH241808   0.696   1.964   5.547 -0.6441 -0.3669  0.2878
 6798TIP3    H141809   0.650   2.026   5.603 -0.7081 -0.3685  0.2368
 6798TIP3    H241810   0.655   1.879   5.568  1.0953 -0.8187  2.1955
 6799TIP3   OH241811   3.402   4.371   0.433  0.4033 -0.0908  0.4034
 6799TIP3    H141812   3.430   4.462   0.444 -0.5726  0.0407  2.0741
 6799TIP3    H241813   3.478   4.320   0.460  1.1199  0.1822 -0.9803
 6800TIP3   OH241814   0.060   0.270  11.417 -0.2831 -0.1368  0.2326
 6800TIP3    H141815   0.151   0.270  11.445 -0.1624 -0.2985 -0.1485
 6800TIP3    H241816   0.062   0.309  11.330 -0.3991 -1.2694 -0.3004
 6801TIP3   OH241817   4.167   0.550  11.512 -1.0794  0.3150  0.4905
 6801TIP3    H141818   4.158   0.455  11.518  1.0043  0.0202 -0.3829
 6801TIP3    H241819   4.224   0.573  11.585  1.7082  0.2935 -1.5163
 6802TIP3   OH241820   3.891   3.339   1.249 -0.0888  0.5151 -0.6305
 6802TIP3    H141821   3.956   3.334   1.318  0.6600  1.1927 -1.2626
 6802TIP3    H241822   3.868   3.248   1.230 -1.8161  0.3416  1.8589
 6803TIP3   OH241823   4.827   0.666  11.691  0.2461  0.1691  0.8632
 6803TIP3    H141824   4.879   0.696  11.617 -0.2416 -0.7956  0.1114
 6803TIP3    H241825   4.793   0.746  11.731  3.7495  1.0208  2.5377
 6804TIP3   OH241826   2.802   0.824  16.588  0.9657 -0.7387 -0.4136
 6804TIP3    H141827   2.722   0.838  16.537  0.4815 -0.7187  0.3478
 6804TIP3    H241828   2.803   0.895  16.651  0.4986 -1.9023  0.9460
 6805TIP3   OH241829   5.824   2.436   1.755 -0.7910  0.5511 -0.0870
 6805TIP3    H141830   5.884   2.511   1.751 -1.6119  1.3407  1.4325
 6805TIP3    H241831   5.875   2.362   1.721  0.0242  1.7885 -1.7160
 6806TIP3   OH241832   3.259   1.519  12.000  0.0419 -0.7376 -0.4932
 6806TIP3    H141833   3.205   1.586  12.041  0.9432 -0.4707  0.2879
 6806TIP3    H241834   3.221   1.436  12.031  0.4170 -0.5451  0.5131
 6807TIP3   OH241835   0.695   4.579  11.087  0.4128 -0.0583  0.0513
 6807TIP3    H141836   0.724   4.600  10.998 -0.3977 -1.0295 -0.4628
 6807TIP3    H241837   0.633   4.507  11.076  0.1285 -0.0498  1.3900
 6808TIP3   OH241838   2.495   4.443   1.418  0.7039 -0.4725 -0.4905
 6808TIP3    H141839   2.409   4.481   1.400  0.1096 -1.7636 -0.4811
 6808TIP3    H241840   2.554   4.486   1.355 -0.1100 -0.2203 -1.0930
 6809TIP3   OH241841   6.135   0.426   4.242  0.0082 -0.3937  0.9930
 6809TIP3    H141842   6.203   0.412   4.307 -1.6071 -1.4094  2.5799
 6809TIP3    H241843   6.096   0.511   4.265  0.4453 -0.0175  0.3613
 6810TIP3   OH241844   5.313   2.292   4.447  0.1881 -0.0060 -0.1127
 6810TIP3    H141845   5.337   2.211   4.401 -1.8945 -0.4075 -0.5892
 6810TIP3    H241846   5.350   2.281   4.535 -0.4349 -1.6891 -0.0251
 6811TIP3   OH241847   4.144   2.155   5.011 -0.5143 -0.1486  0.1532
 6811TIP3    H141848   4.111   2.192   4.929  0.0250 -0.9886 -0.4500
 6811TIP3    H241849   4.075   2.096   5.041 -0.3638 -0.4760 -0.1364
 6812TIP3   OH241850   3.980   6.652  16.553 -0.0520  0.2420 -0.6415
 6812TIP3    H141851   4.037   6.715  16.597 -1.9399  1.0940  0.7509
 6812TIP3    H241852   4.013   6.566  16.579  2.6907  0.5257 -2.7242
 6813TIP3   OH241853   2.290   2.805  13.339 -0.0468  0.3213  0.3291
 6813TIP3    H141854   2.372   2.812  13.290 -0.4270  1.5663 -0.1491
 6813TIP3    H241855   2.255   2.719  13.314  0.1067  0.6378 -1.0740
 6814TIP3   OH241856   0.550   0.232   4.445 -0.5015 -0.3935 -0.3531
 6814TIP3    H141857   0.625   0.186   4.481 -1.8566 -1.6643  1.0245
 6814TIP3    H241858   0.571   0.244   4.352  2.3117  1.3216  0.4164
 6815TIP3   OH241859   3.411   1.594  17.186 -0.1064  0.5112 -0.1602
 6815TIP3    H141860   3.382   1.514  17.142 -0.5602 -0.4357  1.7218
 6815TIP3    H241861   3.394   1.664  17.124 -1.9331 -0.5892 -0.9782
 6816TIP3   OH241862   4.691   2.112   5.615 -0.3508 -0.1013 -0.4972
 6816TIP3    H141863   4.663   2.176   5.680  0.7009  0.6627 -0.7687
 6816TIP3    H241864   4.610   2.068   5.588 -0.8785 -0.0307  0.8850
 6817TIP3   OH241865   6.101   0.816  15.753  0.3145 -0.5579 -0.2687
 6817TIP3    H141866   6.093   0.724  15.728  0.0580 -0.9606  1.1755
 6817TIP3    H241867   6.193   0.826  15.780  0.2568 -0.4892 -0.0922
 6818TIP3   OH241868   2.051   0.797   1.770 -0.0061  0.1913  0.6358
 6818TIP3    H141869   2.010   0.716   1.801  2.3355 -1.1024  0.5919
 6818TIP3    H241870   2.029   0.802   1.677  0.2059 -0.6664  0.5316
 6819TIP3   OH241871   4.793   4.503   3.523 -0.2055 -0.1916 -0.1066
 6819TIP3    H141872   4.758   4.569   3.583 -0.5471 -0.3305 -0.1507
 6819TIP3    H241873   4.819   4.552   3.445  0.5749  0.0397  0.2891
 6820TIP3   OH241874   0.898   3.582   0.661 -0.5399  0.3651  0.3584
 6820TIP3    H141875   0.916   3.575   0.755 -0.4573  1.8716  0.4719
 6820TIP3    H241876   0.965   3.641   0.628 -1.0580  0.4910 -0.4980
 6821TIP3   OH241877   3.579   0.296   2.178 -0.1120  0.1315 -0.5140
 6821TIP3    H141878   3.556   0.270   2.268  0.1421 -3.2580 -1.3001
 6821TIP3    H241879   3.673   0.308   2.180 -0.0871 -0.0803 -0.3291
 6822TIP3   OH241880   1.888   6.558   4.638 -0.5226 -0.2077  0.2833
 6822TIP3    H141881   1.930   6.639   4.668  0.9751 -0.5432 -0.8212
 6822TIP3    H241882   1.830   6.587   4.567 -0.1742 -0.0527  0.0563
 6823TIP3   OH241883   3.793   4.805   2.897  0.3547  0.3748 -0.0696
 6823TIP3    H141884   3.738   4.767   2.829  0.8005 -0.2334 -0.0866
 6823TIP3    H241885   3.880   4.812   2.858  0.3769  1.0320  0.0719
 6824TIP3   OH241886   4.334   3.274  12.228  0.4004 -0.4963 -0.2787
 6824TIP3    H141887   4.406   3.332  12.204  1.3570 -0.8445  1.5998
 6824TIP3    H241888   4.376   3.192  12.255 -0.4818 -0.0811  2.6957
 6825TIP3   OH241889   2.723   1.215   0.237 -0.1031 -0.0420  0.0149
 6825TIP3    H141890   2.807   1.256   0.217 -0.6696  1.7199  1.0685
 6825TIP3    H241891   2.662   1.254   0.176 -0.6500  0.7564  1.0390
 6826TIP3   OH241892   5.597   6.112  11.062  0.0585  0.1759  0.3682
 6826TIP3    H141893   5.573   6.187  11.008 -0.4609 -0.3432 -0.1454
 6826TIP3    H241894   5.691   6.120  11.075 -0.3879  2.7669  3.1747
 6827TIP3   OH241895   4.150   3.589  15.501 -0.0864 -0.4583  0.1162
 6827TIP3    H141896   4.147   3.523  15.432 -1.4384  0.6627 -0.9446
 6827TIP3    H241897   4.098   3.662  15.468  2.4568  1.7775  0.6583
 6828TIP3   OH241898   2.807   5.757  11.590 -0.1332  0.6632  0.4024
 6828TIP3    H141899   2.890   5.802  11.604  2.1494 -2.7110 -0.8307
 6828TIP3    H241900   2.769   5.748  11.677  1.3652  1.3527  1.1577
 6829TIP3   OH241901   5.713   0.579  13.875  0.5148 -0.3702 -0.3008
 6829TIP3    H141902   5.798   0.536  13.885 -0.6440 -2.5608  0.7588
 6829TIP3    H241903   5.703   0.633  13.953  0.0961 -1.7266  0.6137
 6830TIP3   OH241904   6.572   5.622  11.507  0.3408 -0.6797 -0.1855
 6830TIP3    H141905   6.598   5.701  11.461  1.3699 -1.8526 -1.6893
 6830TIP3    H241906   6.652   5.572  11.519 -0.4595 -2.0728 -0.3765
 6831TIP3   OH241907   5.206   1.681  15.171 -0.4329  0.0933 -0.1610
 6831TIP3    H141908   5.290   1.702  15.211 -1.0942  0.6730  0.9828
 6831TIP3    H241909   5.211   1.588  15.150  0.5336  0.1537 -0.2266
 6832TIP3   OH241910   1.349   0.505  13.814  0.0500  0.3893  0.0170
 6832TIP3    H141911   1.267   0.536  13.776  0.1450  0.7112  0.0761
 6832TIP3    H241912   1.407   0.581  13.813  0.3601  0.1583 -0.0548
 6833TIP3   OH241913   0.232   0.074   2.661  0.2499  0.0883  0.0412
 6833TIP3    H141914   0.243  -0.012   2.621  2.9292 -0.3248  1.4321
 6833TIP3    H241915   0.154   0.065   2.716  2.6561 -2.9748  3.4327
 6834TIP3   OH241916   1.131   0.568  16.493 -0.2030  0.3234 -0.0470
 6834TIP3    H141917   1.186   0.492  16.473 -0.7202 -0.2235  0.5628
 6834TIP3    H241918   1.192   0.642  16.493  0.3426 -0.1136 -0.4652
 6835TIP3   OH241919   6.700   2.560  12.726 -0.4062 -0.1888  0.1797
 6835TIP3    H141920   6.772   2.617  12.754 -0.4973 -0.7196  1.5596
 6835TIP3    H241921   6.629   2.580  12.788 -1.5634  0.5375 -1.3321
 6836TIP3   OH241922   2.467   4.581   4.044  0.7237  0.2370 -0.5589
 6836TIP3    H141923   2.458   4.609   4.136 -0.3534  0.1188 -0.6183
 6836TIP3    H241924   2.562   4.581   4.029  1.0297 -1.2066  1.0182
 6837TIP3   OH241925   5.491   6.264   1.238  0.2365  0.0372  0.6101
 6837TIP3    H141926   5.399   6.251   1.259  0.0425 -1.1547 -0.8425
 6837TIP3    H241927   5.535   6.187   1.274  0.7412  0.7298  1.5387
 6838TIP3   OH241928   4.933   1.447   3.949  0.0025  0.9395  0.1367
 6838TIP3    H141929   5.005   1.408   3.998  0.7118  0.9864 -0.8451
 6838TIP3    H241930   4.957   1.435   3.857 -1.1111  1.1981 -0.2043
 6839TIP3   OH241931   2.141   5.433   3.478  0.1943  0.1630 -0.1645
 6839TIP3    H141932   2.229   5.413   3.447 -0.1905 -3.3633  0.6407
 6839TIP3    H241933   2.083   5.382   3.422 -1.1961  0.9021  0.5486
 6840TIP3   OH241934   6.296   0.958  12.575  0.1687  0.1886  0.5632
 6840TIP3    H141935   6.327   0.924  12.491  0.0796  0.5615  0.3786
 6840TIP3    H241936   6.373   1.001  12.613 -0.3431  2.0267 -0.3590
 6841TIP3   OH241937   2.713   2.095  11.170 -0.7059 -0.4016  0.0277
 6841TIP3    H141938   2.643   2.031  11.153 -1.7430  1.0151 -1.2428
 6841TIP3    H241939   2.670   2.166  11.216  0.5320 -0.7325  1.7916
 6842TIP3   OH241940   0.603   4.423  14.810 -0.0834 -0.7051 -0.2748
 6842TIP3    H141941   0.511   4.399  14.814 -0.1468 -1.2672 -2.8544
 6842TIP3    H241942   0.650   4.340  14.823  0.0842 -0.4252  1.0085
 6843TIP3   OH241943   3.885   4.752   0.847 -0.1324 -0.0249  0.1124
 6843TIP3    H141944   3.826   4.691   0.890  0.9566 -1.3901 -0.2653
 6843TIP3    H241945   3.939   4.789   0.917 -0.6867  0.3921  0.3210
 6844TIP3   OH241946   2.466   2.183   1.824 -0.2319 -0.2662  0.2401
 6844TIP3    H141947   2.393   2.126   1.847  0.0745 -1.3538 -1.3183
 6844TIP3    H241948   2.539   2.124   1.808  0.5825  0.6950  0.3050
 6845TIP3   OH241949   1.335   1.764  16.595 -0.2201 -0.0993  0.2219
 6845TIP3    H141950   1.416   1.759  16.545 -0.1337 -0.8878  0.4238
 6845TIP3    H241951   1.300   1.674  16.593 -0.9466  0.1726  0.3610
 6846TIP3   OH241952   5.624   2.674  14.871  0.1007  0.3566 -0.3657
 6846TIP3    H141953   5.587   2.741  14.812 -1.6927 -1.4581 -1.4205
 6846TIP3    H241954   5.638   2.598  14.815 -1.4048 -1.3571  1.4407
 6847TIP3   OH241955   2.663   4.487   4.356  0.0203  0.2719  0.9382
 6847TIP3    H141956   2.724   4.523   4.420  1.0379 -2.0934  1.4152
 6847TIP3    H241957   2.612   4.562   4.326  4.6098  2.8986 -1.2221
 6848TIP3   OH241958   6.729   3.185  11.676 -0.0486 -0.0834 -0.6821
 6848TIP3    H141959   6.778   3.210  11.597 -0.5510 -0.8640 -1.2575
 6848TIP3    H241960   6.755   3.095  11.693  0.0881  0.0955  0.0756
 6849TIP3   OH241961   4.974   0.807   5.372 -0.2340  0.2115  0.4567
 6849TIP3    H141962   4.943   0.896   5.357  2.1340  1.0686  0.2428
 6849TIP3    H241963   4.991   0.803   5.466 -2.5954 -0.8572  0.9019
 6850TIP3   OH241964   6.094   5.888  15.301 -0.1875 -0.1808  0.3713
 6850TIP3    H141965   6.103   5.929  15.387 -0.9511  0.4322  0.1636
 6850TIP3    H241966   6.066   5.959  15.243 -0.4238 -0.7558 -0.2266
 6851TIP3   OH241967   6.180   4.264   5.122  0.1236  0.3510 -0.3561
 6851TIP3    H141968   6.181   4.323   5.046  0.3679 -0.5915 -1.0971
 6851TIP3    H241969   6.272   4.257   5.148  0.0607  0.5294 -0.0856
 6852TIP3   OH241970   5.480   4.920   6.358  0.8325 -1.0845  0.3263
 6852TIP3    H141971   5.541   4.980   6.402  0.2479 -0.9764  1.0031
 6852TIP3    H241972   5.470   4.957   6.270  0.2979 -0.0262  0.8075
 6853TIP3   OH241973   1.008   5.446  15.076  0.1715  0.3942  0.1176
 6853TIP3    H141974   0.913   5.458  15.074 -0.1932 -1.7470  1.4423
 6853TIP3    H241975   1.043   5.535  15.078 -1.7706  1.2428 -0.8174
 6854TIP3   OH241976   3.873   2.535  16.573  0.2764  0.3736  0.0957
 6854TIP3    H141977   3.873   2.507  16.664  0.7472  0.2418  0.0567
 6854TIP3    H241978   3.964   2.529  16.545 -0.0106 -0.5724 -0.6885
 6855TIP3   OH241979   5.684   5.074   4.528 -0.4659 -0.1286  0.4039
 6855TIP3    H141980   5.599   5.100   4.564 -0.2240 -0.2207  1.0671
 6855TIP3    H241981   5.742   5.073   4.604  0.1377 -0.0258 -0.0541
 6856TIP3   OH241982   0.839   1.008  15.185  0.2935  0.1070 -0.3584
 6856TIP3    H141983   0.902   0.997  15.256 -0.3112 -1.0540  0.0217
 6856TIP3    H241984   0.780   1.077  15.217  1.1940  1.0090 -0.6049
 6857TIP3   OH241985   6.442   2.124   4.056 -0.4156  0.6920  0.5179
 6857TIP3    H141986   6.441   2.219   4.042  3.6202  0.6715 -1.3394
 6857TIP3    H241987   6.487   2.113   4.140 -0.7027  0.4332  0.6378
 6858TIP3   OH241988   6.767   3.945   3.019  0.5279 -0.1055  0.6995
 6858TIP3    H141989   6.674   3.963   3.003  0.2559 -1.4761  0.6440
 6858TIP3    H241990   6.774   3.938   3.114  0.9353  1.6890  0.8504
 6859TIP3   OH241991   5.021   4.383   3.483 -0.5125  0.0450 -0.2636
 6859TIP3    H141992   5.055   4.407   3.569 -0.3722 -3.9837  1.0171
 6859TIP3    H241993   4.926   4.382   3.494 -0.4968 -0.4305 -0.1548
 6860TIP3   OH241994   2.758   0.446   0.390 -0.2113  0.2407 -0.9454
 6860TIP3    H141995   2.838   0.497   0.401 -0.0868  0.2164 -1.6943
 6860TIP3    H241996   2.688   0.508   0.414  0.0587 -0.0410  0.6889
 6861TIP3   OH241997   1.145   6.341  17.173 -0.0242 -0.0919 -0.3160
 6861TIP3    H141998   1.208   6.279  17.137 -1.9722 -1.2529 -1.9078
 6861TIP3    H241999   1.123   6.306  17.260  0.4168 -0.4690 -0.3553
 6862TIP3   OH242000   2.244   2.535  13.208  0.1925  0.4327 -0.1374
 6862TIP3    H142001   2.267   2.480  13.282 -0.0097 -1.1570 -1.2177
 6862TIP3    H242002   2.161   2.499  13.176 -0.6558  2.2026 -0.0734
 6863TIP3   OH242003   1.818   3.289   1.535 -0.1215 -0.1953 -0.2316
 6863TIP3    H142004   1.742   3.320   1.584  0.6629  0.7110  0.4364
 6863TIP3    H242005   1.850   3.214   1.585  0.8582  0.9121  0.8580
 6864TIP3   OH242006   3.637   1.181   2.546 -0.1430 -0.4207  0.3964
 6864TIP3    H142007   3.726   1.212   2.566  0.1077 -0.6911 -0.2848
 6864TIP3    H242008   3.643   1.085   2.553  0.0583 -0.5640 -1.3260
 6865TIP3   OH242009   0.658   3.622  12.303 -0.3687  0.3502  0.8098
 6865TIP3    H142010   0.725   3.579  12.356 -0.3280  0.4462  0.8377
 6865TIP3    H242011   0.602   3.551  12.272  0.6564  0.0880 -0.5084
 6866TIP3   OH242012   3.488   3.310  10.890 -0.4324  0.2883 -0.5132
 6866TIP3    H142013   3.567   3.360  10.870 -0.6956 -0.0602 -2.6864
 6866TIP3    H242014   3.519   3.238  10.945  0.6553  0.5723 -0.7320
 6867TIP3   OH242015   3.384   6.204  11.009 -1.5211  0.3807 -0.7765
 6867TIP3    H142016   3.298   6.169  10.986 -0.8834 -0.0763 -2.6564
 6867TIP3    H242017   3.443   6.165  10.945 -0.2957  2.5862 -1.0771
 6868TIP3   OH242018   0.219   4.156  14.562 -0.4454  0.0122  0.1773
 6868TIP3    H142019   0.205   4.062  14.552 -1.2957 -0.0151  1.4232
 6868TIP3    H242020   0.197   4.192  14.476  0.8730 -1.0080 -0.6169
 6869TIP3   OH242021   1.408   1.199  15.250  0.5590  0.2973 -0.1820
 6869TIP3    H142022   1.392   1.175  15.159  0.1789  1.0016 -0.3114
 6869TIP3    H242023   1.357   1.137  15.301  1.6133 -0.7769 -0.4007
 6870TIP3   OH242024   6.742   5.720  13.394  0.4354 -0.0080  0.3919
 6870TIP3    H142025   6.781   5.786  13.451  1.5956 -2.2847  2.4068
 6870TIP3    H242026   6.691   5.664  13.453  1.1268 -2.0790 -0.8767
 6871TIP3   OH242027   4.168   0.107  16.817  0.6857 -0.1626 -0.4644
 6871TIP3    H142028   4.158   0.178  16.879  1.0163 -0.1504 -0.4234
 6871TIP3    H242029   4.158   0.148  16.731  2.9119  0.3389 -0.5500
 6872TIP3   OH242030   0.953   5.173  12.994  0.2641  0.2877  0.0177
 6872TIP3    H142031   0.971   5.177  13.088  0.0200  0.5446  0.0533
 6872TIP3    H242032   0.973   5.083  12.970  0.1312  0.1664  0.3549
 6873TIP3   OH242033   4.109   1.938   3.468 -0.3933 -0.4774 -0.4818
 6873TIP3    H142034   4.068   2.006   3.520  2.1282 -0.4331  1.6593
 6873TIP3    H242035   4.158   1.986   3.400 -0.4794 -0.3067 -0.4231
 6874TIP3   OH242036   2.101   0.647  16.871 -0.3025 -0.1871 -0.4331
 6874TIP3    H142037   2.020   0.626  16.825  0.5203 -2.3893 -1.0188
 6874TIP3    H242038   2.170   0.615  16.814  0.9319  0.3830  0.6884
 6875TIP3   OH242039   2.034   5.480  13.217 -0.1609  0.6085 -0.8760
 6875TIP3    H142040   2.004   5.555  13.166  1.5620  1.4936 -0.6559
 6875TIP3    H242041   2.057   5.415  13.152 -0.1070  0.8862 -1.1377
 6876TIP3   OH242042   1.161   2.046  13.488 -0.1945 -0.1632  0.7316
 6876TIP3    H142043   1.224   2.081  13.425  0.8191 -0.8535  1.3223
 6876TIP3    H242044   1.076   2.055  13.445  0.3748  0.2008 -0.3522
 6877TIP3   OH242045   6.736   0.760  13.122  0.0924 -0.5914  0.0418
 6877TIP3    H142046   6.705   0.849  13.105 -0.2091 -0.6518  0.2692
 6877TIP3    H242047   6.681   0.704  13.066  0.5152 -0.6043 -0.3635
 6878TIP3   OH242048   4.827   6.682   1.650 -0.4183 -0.0631  0.6809
 6878TIP3    H142049   4.765   6.718   1.714  0.8108  2.1200  0.7516
 6878TIP3    H242050   4.913   6.698   1.689  0.2704 -1.5822 -0.1343
 6879TIP3   OH242051   2.122   1.997   5.075 -0.3491  0.1265 -0.1780
 6879TIP3    H142052   2.135   1.973   4.983  2.2195  1.4854 -0.2782
 6879TIP3    H242053   2.048   2.057   5.074 -3.1799 -3.0604 -0.6633
 6880TIP3   OH242054   6.450   1.018   1.939  0.0920  0.0942 -0.2277
 6880TIP3    H142055   6.479   0.946   1.883  1.1607  1.6506 -1.8012
 6880TIP3    H242056   6.357   1.029   1.919  0.1067 -0.3593 -0.5442
 6881TIP3   OH242057   3.808   3.397  15.783 -0.1883  0.1433  0.0713
 6881TIP3    H142058   3.798   3.474  15.727  0.0917 -0.8377 -1.3999
 6881TIP3    H242059   3.744   3.335  15.749 -1.8219  0.3691  2.4965
 6882TIP3   OH242060   5.564   6.594  12.721  0.6531  0.2404 -0.0618
 6882TIP3    H142061   5.652   6.572  12.752  1.3074  0.9582 -1.3308
 6882TIP3    H242062   5.506   6.536  12.771  1.6780  0.8839  2.0070
 6883TIP3   OH242063   3.533   3.078   2.399  1.2592 -0.3459  0.2883
 6883TIP3    H142064   3.515   2.996   2.446 -1.5626  0.0877  0.1162
 6883TIP3    H242065   3.611   3.113   2.441 -0.6195 -0.3771  4.2288
 6884TIP3   OH242066   0.868   5.445   3.285 -0.2698 -0.2184 -0.3622
 6884TIP3    H142067   0.944   5.393   3.260  0.8441  1.3103 -0.3463
 6884TIP3    H242068   0.902   5.507   3.349 -0.9663  1.9954 -1.9963
 6885TIP3   OH242069   2.499   6.113  13.539  0.2289  0.5714  0.0084
 6885TIP3    H142070   2.459   6.134  13.623  0.6413  1.0159  0.0952
 6885TIP3    H242071   2.452   6.035  13.509  2.5060 -1.9341  2.4156
 6886TIP3   OH242072   0.903   0.980   0.585 -0.4881 -0.1687  0.5057
 6886TIP3    H142073   0.960   1.032   0.527 -0.4056 -0.4702  0.3125
 6886TIP3    H242074   0.937   0.891   0.577 -0.3898 -0.1883  1.1322
 6887TIP3   OH242075   5.037   6.389  13.903 -0.3324 -0.0574  0.3826
 6887TIP3    H142076   4.967   6.395  13.969  1.4627 -0.7328  2.5014
 6887TIP3    H242077   5.002   6.329  13.837 -2.0374  0.2140  0.9795
 6888TIP3   OH242078   2.635   4.693   2.997  0.4751  0.1243  0.2564
 6888TIP3    H142079   2.630   4.771   3.052 -0.2115 -0.8253  1.6057
 6888TIP3    H242080   2.671   4.724   2.914  1.4885  1.6201  1.2178
 6889TIP3   OH242081   4.067   2.002   1.887 -0.4400  0.4549 -0.8685
 6889TIP3    H142082   4.163   2.009   1.893 -0.4968  0.2501  0.7597
 6889TIP3    H242083   4.043   2.062   1.816  0.8750  0.6025 -1.2191
 6890TIP3   OH242084   2.757   2.494  15.055  0.3355 -0.3923 -0.2251
 6890TIP3    H142085   2.721   2.478  14.968  1.2444 -0.7374 -0.5504
 6890TIP3    H242086   2.769   2.406  15.092  0.1602 -0.2536  0.1605
 6891TIP3   OH242087   1.955   2.079   5.921  0.4891  0.3301 -0.1238
 6891TIP3    H142088   1.871   2.080   5.968  0.5946 -0.3013  0.0945
 6891TIP3    H242089   2.010   2.021   5.973  0.6329 -0.3234 -0.9787
 6892TIP3   OH242090   0.437   3.900   3.830 -0.0457  0.9619  0.1935
 6892TIP3    H142091   0.471   3.828   3.777 -0.8391  1.0256 -0.4298
 6892TIP3    H242092   0.396   3.959   3.766 -0.0252  1.6056  0.7659
 6893TIP3   OH242093   0.905   0.709   2.134 -0.0779  0.0889 -0.8787
 6893TIP3    H142094   0.894   0.624   2.176  0.2247  1.0681  1.3495
 6893TIP3    H242095   0.914   0.771   2.207  0.6988  1.9079 -2.4143
 6894TIP3   OH242096   2.203   6.582  13.066 -0.1088  0.6910 -0.1450
 6894TIP3    H142097   2.180   6.534  12.987 -0.8763  1.3824 -0.3581
 6894TIP3    H242098   2.254   6.657  13.034  0.3873  0.4638  0.1058
 6895TIP3   OH242099   2.115   5.715   2.890  0.0123  0.1292 -0.0766
 6895TIP3    H142100   2.070   5.754   2.965 -2.0980 -1.7426 -0.2774
 6895TIP3    H242101   2.169   5.645   2.927  1.1543  0.9735 -0.0738
 6896TIP3   OH242102   2.485   5.249  17.071  0.1861 -0.1148 -0.1070
 6896TIP3    H142103   2.495   5.204  17.155  0.4330 -4.1495 -2.0383
 6896TIP3    H242104   2.560   5.221  17.019 -0.3943  1.5412 -1.9899
 6897TIP3   OH242105   2.738   3.266   1.208  0.1948 -0.3596  0.3041
 6897TIP3    H142106   2.817   3.224   1.174 -0.2448 -1.1679  0.2669
 6897TIP3    H242107   2.687   3.195   1.247 -1.1086 -0.0808 -0.8030
 6898TIP3   OH242108   2.029   1.715  16.762  0.6681  0.9120 -0.2160
 6898TIP3    H142109   2.050   1.791  16.818  0.2798  0.8011  0.0792
 6898TIP3    H242110   2.115   1.683  16.733  0.8725  0.9986  0.2800
 6899TIP3   OH242111   0.732   1.355   3.384  0.1068 -0.4779  0.3191
 6899TIP3    H142112   0.710   1.399   3.467 -0.5012  0.5620 -0.3718
 6899TIP3    H242113   0.827   1.356   3.382  0.1258  1.4195  0.0481
 6900TIP3   OH242114   0.749   3.832   4.077 -0.3484  0.4902 -0.2216
 6900TIP3    H142115   0.738   3.782   3.996  1.1230 -1.4394  0.7045
 6900TIP3    H242116   0.691   3.789   4.140  0.3092  0.4739  0.3769
 6901TIP3   OH242117   1.161   0.875   5.544  0.5172  0.2518  0.2304
 6901TIP3    H142118   1.082   0.904   5.588  1.1879  1.0765  0.9219
 6901TIP3    H242119   1.192   0.952   5.497 -0.3609 -0.6824 -2.0181
 6902TIP3   OH242120   6.076   2.235   2.325 -0.3641  0.2364  0.2746
 6902TIP3    H142121   5.994   2.199   2.292 -0.1677 -0.0320  0.0728
 6902TIP3    H242122   6.051   2.281   2.405 -0.5524 -0.7861  0.8197
 6903TIP3   OH242123   3.062   2.372   2.129 -0.0605 -0.1376  0.0888
 6903TIP3    H142124   3.037   2.435   2.060  0.9383  0.5253  0.3058
 6903TIP3    H242125   3.129   2.418   2.179  0.2539 -1.1673  0.6298
 6904TIP3   OH242126   5.836   2.413   4.266 -0.2792  0.4664  0.1144
 6904TIP3    H142127   5.873   2.325   4.273  0.6806  1.0055  4.6158
 6904TIP3    H242128   5.745   2.403   4.294 -0.6382  0.7093 -0.9291
 6905TIP3   OH242129   6.100   4.314   4.135  0.1172 -0.3629  0.0749
 6905TIP3    H142130   6.192   4.297   4.151  0.3795  1.1923  0.3769
 6905TIP3    H242131   6.058   4.306   4.221  0.2555  0.5012  0.2336
 6906TIP3   OH242132   4.169   3.217  11.328 -0.1898 -0.5587 -0.2319
 6906TIP3    H142133   4.160   3.134  11.375  0.1151 -1.2308 -1.3330
 6906TIP3    H242134   4.190   3.192  11.238 -0.7439  0.7034 -0.7359
 6907TIP3   OH242135   0.292   2.302  13.844 -0.0491  0.4042  0.0087
 6907TIP3    H142136   0.347   2.372  13.810 -0.6929  0.8470 -0.1192
 6907TIP3    H242137   0.203   2.325  13.818 -0.3041 -0.3155  0.2037
 6908TIP3   OH242138   5.548   2.657   4.281  0.4618 -0.6806 -0.2336
 6908TIP3    H142139   5.549   2.607   4.200 -1.3649 -1.7382  0.3390
 6908TIP3    H242140   5.576   2.595   4.348 -0.1116 -0.4456  0.2350
 6909TIP3   OH242141   0.301   1.191   0.118 -0.7451 -0.0863 -0.1704
 6909TIP3    H142142   0.292   1.161   0.028  0.4345 -0.3477 -0.2100
 6909TIP3    H242143   0.213   1.183   0.155 -0.8254 -1.8983 -0.6939
 6910TIP3   OH242144   2.431   3.872   3.340 -0.2632  0.0330 -0.2957
 6910TIP3    H142145   2.446   3.871   3.435 -0.0209 -1.6077 -0.3108
 6910TIP3    H242146   2.510   3.831   3.303 -0.5418  0.2670 -1.1743
 6911TIP3   OH242147   4.123   2.423  13.361 -0.1625  0.4468  0.0778
 6911TIP3    H142148   4.095   2.361  13.428 -0.3070  0.4006 -0.0234
 6911TIP3    H242149   4.071   2.502  13.378 -0.9034  0.1135 -0.5581
 6912TIP3   OH242150   5.429   5.937   2.718  0.6421 -0.0285  0.0030
 6912TIP3    H142151   5.416   5.889   2.637 -0.5257  0.5036 -0.1457
 6912TIP3    H242152   5.491   6.006   2.696 -0.4678  0.7628 -0.7286
 6913TIP3   OH242153   2.272   6.269   5.655  0.2899 -0.4857  0.5439
 6913TIP3    H142154   2.328   6.244   5.581  0.7643 -1.0817  1.0840
 6913TIP3    H242155   2.328   6.255   5.732  0.2711  1.4063  0.9500
 6914TIP3   OH242156   4.546   5.526  15.364  0.3969  0.1907 -0.6823
 6914TIP3    H142157   4.559   5.433  15.385  0.6948 -0.2270 -2.5507
 6914TIP3    H242158   4.633   5.558  15.343  0.1010  0.5331 -1.4044
 6915TIP3   OH242159   0.520   4.148  15.304 -0.0979 -0.3026 -0.6527
 6915TIP3    H142160   0.477   4.137  15.389 -0.1262 -1.1106 -0.7717
 6915TIP3    H242161   0.583   4.076  15.299 -0.6759 -0.7496 -1.6745
 6916TIP3   OH242162   6.737   1.745   4.707  0.0927  0.3908 -0.2937
 6916TIP3    H142163   6.701   1.664   4.744  0.2340  0.8555  0.9143
 6916TIP3    H242164   6.685   1.815   4.748 -1.2383  0.8906 -2.6440
 6917TIP3   OH242165   2.488   3.651  15.514  0.1743  0.6477  0.0277
 6917TIP3    H142166   2.531   3.663  15.430  2.0097  0.5154  0.8917
 6917TIP3    H242167   2.529   3.716  15.571 -1.0092  0.7092  0.8309
 6918TIP3   OH242168   4.423   5.084   6.026  0.4975 -0.4926 -0.0539
 6918TIP3    H142169   4.496   5.126   5.981  0.5181 -0.7319 -0.2465
 6918TIP3    H242170   4.465   5.026   6.090  0.4790 -0.8469 -0.3637
 6919TIP3   OH242171   1.627   3.943   0.973 -0.0167 -0.5542 -0.2361
 6919TIP3    H142172   1.722   3.941   0.960 -0.1468  0.1229 -1.4697
 6919TIP3    H242173   1.609   4.032   1.004 -0.2091 -0.7879  0.3229
 6920TIP3   OH242174   2.985   4.619   4.685  0.2848 -0.0406  0.5501
 6920TIP3    H142175   2.900   4.654   4.659  0.1238  0.9867  2.2610
 6920TIP3    H242176   3.039   4.625   4.606 -1.3529 -1.2415 -0.7315
 6921TIP3   OH242177   5.324   4.563  11.136 -0.3632 -0.4811  0.1679
 6921TIP3    H142178   5.337   4.469  11.148 -1.6042 -0.8016 -0.7148
 6921TIP3    H242179   5.257   4.587  11.201  2.4452  0.6079  2.9157
 6922TIP3   OH242180   2.292   6.015  10.569  0.4032 -0.5073 -0.0446
 6922TIP3    H142181   2.287   6.071  10.492  1.3092  0.8095  0.8266
 6922TIP3    H242182   2.356   5.948  10.546  0.5235 -0.2390 -0.4996
 6923TIP3   OH242183   6.443   6.736  14.755  0.5172  0.5922 -0.3745
 6923TIP3    H142184   6.350   6.746  14.739  0.0871 -1.4598  0.5206
 6923TIP3    H242185   6.473   6.823  14.781 -1.5152  0.9409  0.9839
 6924TIP3   OH242186   3.926   4.541   1.539 -0.4360  0.6282  0.2459
 6924TIP3    H142187   3.988   4.469   1.554  0.2991  1.3282  0.6915
 6924TIP3    H242188   3.840   4.503   1.558  0.0541  0.2267  1.8727
 6925TIP3   OH242189   2.055   4.703  15.008 -0.0994  0.4301 -0.7704
 6925TIP3    H142190   2.098   4.788  15.022  2.5293 -0.8740 -0.2738
 6925TIP3    H242191   2.095   4.669  14.928  0.2922 -1.1144  0.0480
 6926TIP3   OH242192   3.347   3.348   3.561 -0.3479  0.5225 -0.0669
 6926TIP3    H142193   3.379   3.369   3.473 -0.4410  0.7852 -0.0395
 6926TIP3    H242194   3.257   3.317   3.547 -0.7341  1.5621  0.0301
 6927TIP3   OH242195   1.287   6.600  15.019  0.1115  0.8308  0.0531
 6927TIP3    H142196   1.381   6.615  15.010  0.1760  0.2409 -0.3551
 6927TIP3    H242197   1.276   6.506  15.001 -0.6130  0.9979 -0.4469
 6928TIP3   OH242198   5.987   1.476  12.522  0.3850 -0.1648  0.1732
 6928TIP3    H142199   5.909   1.465  12.576  0.3350 -1.8512 -0.1991
 6928TIP3    H242200   5.953   1.505  12.437  0.2456 -0.0210  0.2774
 6929TIP3   OH242201   1.432   4.947  11.587  0.2300 -0.2796 -0.1485
 6929TIP3    H142202   1.385   5.028  11.566  0.3276 -0.2190 -0.1312
 6929TIP3    H242203   1.373   4.901  11.648 -0.3800 -0.7905 -1.1063
 6930TIP3   OH242204   5.876   1.443   1.835  0.2324  0.0762  0.5636
 6930TIP3    H142205   5.833   1.528   1.846 -0.5025  0.0416 -1.4970
 6930TIP3    H242206   5.968   1.460   1.852  0.0366  1.1818  0.6237
 6931TIP3   OH242207   6.127   0.621  11.898  0.0455  0.0669  0.4765
 6931TIP3    H142208   6.097   0.561  11.967 -1.1805 -0.2912 -0.3481
 6931TIP3    H242209   6.205   0.578  11.862  0.6961  0.2530  1.6123
 6932TIP3   OH242210   0.828   5.013   3.687  0.2200  0.3883 -0.5048
 6932TIP3    H142211   0.754   4.990   3.631  0.1535 -0.2310 -0.1670
 6932TIP3    H242212   0.835   4.942   3.750  1.8053 -0.1452 -1.2137
 6933TIP3   OH242213   4.356   1.452   1.855  0.4633 -0.2612  0.1585
 6933TIP3    H142214   4.287   1.422   1.914 -0.5384 -1.2590 -1.4416
 6933TIP3    H242215   4.321   1.436   1.767  2.1987  0.4670 -0.7103
 6934TIP3   OH242216   5.510   1.291  16.824 -0.0601 -0.0623 -0.3516
 6934TIP3    H142217   5.584   1.308  16.882 -0.5901  0.2144  0.2569
 6934TIP3    H242218   5.500   1.372  16.773 -0.7728  0.4205  0.5165
 6935TIP3   OH242219   4.397   3.255  13.764  0.3618  0.1729 -0.4944
 6935TIP3    H142220   4.313   3.260  13.717 -0.3690 -0.4615  0.7046
 6935TIP3    H242221   4.434   3.343  13.755  0.2461  0.0952 -2.2058
 6936TIP3   OH242222   2.635   5.845   0.929 -0.1815  0.5666 -0.1160
 6936TIP3    H142223   2.631   5.787   1.005 -1.1334  1.4089  0.4996
 6936TIP3    H242224   2.717   5.822   0.886  0.7662  0.5724  1.5882
 6937TIP3   OH242225   5.803   6.515   4.548 -0.0190  0.1028 -0.3559
 6937TIP3    H142226   5.848   6.513   4.632  0.6000  0.9784 -0.6495
 6937TIP3    H242227   5.796   6.608   4.526 -0.7144 -0.0859 -0.9898
 6938TIP3   OH242228   4.833   4.761   3.921 -0.2806 -0.3135  0.1100
 6938TIP3    H142229   4.755   4.757   3.977 -0.4932  0.5469 -0.1184
 6938TIP3    H242230   4.835   4.851   3.889 -1.0133 -1.1364 -2.4611
 6939TIP3   OH242231   0.234   1.698   0.820 -0.0093 -0.4593  0.6465
 6939TIP3    H142232   0.257   1.606   0.811  0.2130 -0.2278 -1.8653
 6939TIP3    H242233   0.265   1.739   0.739 -0.6384  1.7126  1.4234
 6940TIP3   OH242234   2.761   4.509   0.205 -0.5225 -0.0000 -0.1878
 6940TIP3    H142235   2.678   4.492   0.161 -0.1305  2.0183 -1.8811
 6940TIP3    H242236   2.738   4.515   0.298 -1.8785 -1.5617 -0.3856
 6941TIP3   OH242237   2.902   2.318   4.700 -0.0700 -0.1986 -0.3396
 6941TIP3    H142238   2.952   2.238   4.685 -2.5868 -1.6731 -1.4803
 6941TIP3    H242239   2.930   2.348   4.787  0.6198 -2.5934  0.3367
 6942TIP3   OH242240   1.447   4.216   4.629 -0.4885  0.3163  0.5475
 6942TIP3    H142241   1.489   4.297   4.598 -0.8276  0.2254 -0.1701
 6942TIP3    H242242   1.462   4.216   4.723  1.4884  0.0976  0.2852
 6943TIP3   OH242243   0.783   3.042  10.618 -0.5020 -0.5268  0.3496
 6943TIP3    H142244   0.816   2.997  10.540 -1.1212  0.6965 -0.6491
 6943TIP3    H242245   0.856   3.097  10.647 -1.0997  1.0288 -0.9666
 6944TIP3   OH242246   5.599   1.467  16.284  0.0784 -0.2839  0.3767
 6944TIP3    H142247   5.618   1.416  16.363  0.2995 -0.2636  0.3397
 6944TIP3    H242248   5.607   1.558  16.312 -0.5238 -0.2648  0.4948
 6945TIP3   OH242249   1.570   0.583   2.781  0.0013  0.2991 -0.2416
 6945TIP3    H142250   1.535   0.524   2.848 -1.0168  1.5250  0.3550
 6945TIP3    H242251   1.557   0.536   2.699 -1.3877 -0.0481  0.1469
 6946TIP3   OH242252   2.371   0.991  15.833 -0.2128 -0.0044  0.6421
 6946TIP3    H142253   2.290   1.039  15.817 -1.2266 -1.5670  0.9371
 6946TIP3    H242254   2.344   0.900  15.845  1.5382 -0.4962  1.1888
 6947TIP3   OH242255   3.653   2.336   4.570  0.2124  0.4328 -0.0319
 6947TIP3    H142256   3.713   2.403   4.536  0.8973 -0.2032 -0.1095
 6947TIP3    H242257   3.582   2.385   4.611  1.2360  1.2132  0.8490
 6948TIP3   OH242258   0.447   0.022   3.049 -0.4750  0.1948  0.0917
 6948TIP3    H142259   0.532   0.013   3.007 -1.4664 -0.3907 -1.9485
 6948TIP3    H242260   0.452  -0.033   3.127  1.0292  0.2538  0.0555
 6949TIP3   OH242261   4.909   2.483   2.441 -0.1864  0.6067  0.4052
 6949TIP3    H142262   4.836   2.471   2.380 -0.2179  2.5947 -0.0178
 6949TIP3    H242263   4.946   2.395   2.452 -1.7221 -0.2062 -0.5059
 6950TIP3   OH242264   3.595   1.675  11.733 -1.2418 -0.4517  0.3580
 6950TIP3    H142265   3.582   1.673  11.828  1.6096  0.7868  0.8707
 6950TIP3    H242266   3.570   1.587  11.704  0.5018 -1.8756  2.7356
 6951TIP3   OH242267   6.570   1.398   1.813  0.0839  0.0165  0.4806
 6951TIP3    H142268   6.545   1.465   1.749 -1.0827  2.5668  3.3053
 6951TIP3    H242269   6.665   1.407   1.821  0.0965  0.4817 -0.0979
 6952TIP3   OH242270   2.780   6.129  14.737 -0.3604 -0.4624 -0.4150
 6952TIP3    H142271   2.773   6.188  14.812  0.0790  0.0625 -0.7760
 6952TIP3    H242272   2.801   6.187  14.663  0.3388 -1.1044 -0.7268
 6953TIP3   OH242273   3.258   2.961  12.159  0.0172  0.3153 -0.6475
 6953TIP3    H142274   3.199   2.914  12.217 -2.1573 -0.2610 -3.1104
 6953TIP3    H242275   3.344   2.923  12.176 -0.6967 -0.5347  1.3762
 6954TIP3   OH242276   0.289   1.113  12.676 -0.2846  0.0206  0.2244
 6954TIP3    H142277   0.255   1.092  12.589  1.4422  0.5894 -0.6306
 6954TIP3    H242278   0.280   1.032  12.726 -3.4538  0.2994  0.3165
 6955TIP3   OH242279   2.085   0.253  15.100  0.1386  0.3224  0.0253
 6955TIP3    H142280   2.070   0.293  15.014  1.4869 -0.1236 -0.4322
 6955TIP3    H242281   2.147   0.182  15.083 -0.5444 -0.5811  1.1740
 6956TIP3   OH242282   0.897   0.320   6.575 -0.4004 -0.1314  0.4548
 6956TIP3    H142283   0.948   0.381   6.520 -0.5306  0.8174  1.3557
 6956TIP3    H242284   0.902   0.237   6.529 -0.9339  0.7453 -1.2765
 6957TIP3   OH242285   2.937   0.344   1.789  0.2155 -0.3422  0.1280
 6957TIP3    H142286   2.880   0.295   1.849 -0.9041  0.0043 -0.6206
 6957TIP3    H242287   2.965   0.279   1.725  0.8933 -0.5718  0.6478
 6958TIP3   OH242288   5.280   3.937   3.580  0.2244 -0.2417 -0.0749
 6958TIP3    H142289   5.250   3.933   3.671  1.9217 -1.7379  0.4674
 6958TIP3    H242290   5.214   3.990   3.536 -0.9944 -0.0251  1.8795
 6959TIP3   OH242291   3.927   0.998  14.842  0.4983 -1.1756 -0.3882
 6959TIP3    H142292   3.839   0.969  14.866  0.5300 -1.6188 -0.7929
 6959TIP3    H242293   3.984   0.926  14.869  0.6366 -1.2662 -0.9103
 6960TIP3   OH242294   5.990   1.372   0.159  0.1602  0.4784 -0.7683
 6960TIP3    H142295   5.937   1.370   0.079  1.2233  0.3334 -1.4841
 6960TIP3    H242296   6.019   1.462   0.166 -0.2036  0.5670 -0.3500
 6961TIP3   OH242297   5.924   4.981   2.370  0.1068  0.5813 -0.1509
 6961TIP3    H142298   5.855   5.041   2.398  0.2847  0.1344  1.2901
 6961TIP3    H242299   5.924   4.911   2.435 -0.6346 -1.4521 -2.2009
 6962TIP3   OH242300   2.647   4.121   0.224 -0.6271 -0.0843 -0.1315
 6962TIP3    H142301   2.604   4.202   0.197 -0.2984  0.1458  0.0334
 6962TIP3    H242302   2.740   4.143   0.232 -0.6464 -0.2473  0.7414
 6963TIP3   OH242303   4.808   0.564  11.439  0.4380  0.0453 -0.0750
 6963TIP3    H142304   4.741   0.596  11.500  0.5661 -0.8108  0.5477
 6963TIP3    H242305   4.795   0.615  11.359 -1.6276 -0.7835 -0.3320
 6964TIP3   OH242306   3.320   6.776   4.204 -0.2750  0.0533 -0.3131
 6964TIP3    H142307   3.275   6.855   4.176  1.4332  0.8968 -0.8494
 6964TIP3    H242308   3.350   6.735   4.122  0.2386 -0.2809  0.0315
 6965TIP3   OH242309   2.331   1.984   5.972  0.0538  0.1889  0.1789
 6965TIP3    H142310   2.266   1.975   6.041  0.0109 -0.7088  0.0261
 6965TIP3    H242311   2.333   1.899   5.929  1.9070 -0.0767  0.6896
 6966TIP3   OH242312   1.274   4.140  13.678 -0.1879 -0.8688  0.2783
 6966TIP3    H142313   1.208   4.163  13.743  0.8751 -0.9140  1.3992
 6966TIP3    H242314   1.291   4.047  13.693 -0.1506 -0.9566 -0.2761
 6967TIP3   OH242315   4.808   5.101  14.106  0.3325 -0.1975  0.7062
 6967TIP3    H142316   4.843   5.061  14.186  0.5504 -1.2439  0.1112
 6967TIP3    H242317   4.765   5.181  14.136  0.2625 -0.6585  1.9003
 6968TIP3   OH242318   4.648   5.431  13.128  0.0617 -0.7388 -0.2992
 6968TIP3    H142319   4.621   5.339  13.126  0.7652 -0.9433 -0.9066
 6968TIP3    H242320   4.651   5.453  13.221  2.0117 -2.0124  0.0179
 6969TIP3   OH242321   2.074   5.987   1.895  0.1863 -0.0358  0.2355
 6969TIP3    H142322   2.043   5.923   1.831 -1.0408  0.8143 -0.0593
 6969TIP3    H242323   2.144   6.035   1.849  0.3840 -0.4703  0.0835
 6970TIP3   OH242324   0.083   2.981  12.981  0.1675  0.6299 -0.3183
 6970TIP3    H142325   0.088   2.940  13.067  0.9983 -1.5431 -1.3022
 6970TIP3    H242326   0.031   3.060  12.994 -1.4081 -0.6570  1.7923
 6971TIP3   OH242327   0.492   2.377   0.260  0.0769 -0.0358 -0.1844
 6971TIP3    H142328   0.548   2.451   0.283  0.4311 -0.3969  0.1186
 6971TIP3    H242329   0.537   2.301   0.296  0.8456 -0.6851 -2.3329
 6972TIP3   OH242330   2.856   3.587   6.264 -0.3105 -0.5883 -0.1450
 6972TIP3    H142331   2.942   3.624   6.287 -0.8023  0.8471 -0.5005
 6972TIP3    H242332   2.813   3.573   6.349  0.1959 -1.1503  0.0266
 6973TIP3   OH242333   2.497   4.774   5.677  0.2267  0.5902  0.1464
 6973TIP3    H142334   2.431   4.791   5.609  0.2352  0.0172 -0.0152
 6973TIP3    H242335   2.579   4.807   5.640  0.5864 -1.3221 -0.9198
 6974TIP3   OH242336   3.102   3.843  14.247 -0.0582  0.1997  0.2220
 6974TIP3    H142337   3.071   3.931  14.266  0.7274  0.3013  1.0751
 6974TIP3    H242338   3.080   3.792  14.325 -0.3612 -0.3301 -0.1994
 6975TIP3   OH242339   6.426   0.089  15.929 -0.0476  0.2552 -0.2299
 6975TIP3    H142340   6.346   0.108  15.977  2.0652  2.0444  2.8903
 6975TIP3    H242341   6.410   0.003  15.889 -3.2211  0.2350  0.8331
 6976TIP3   OH242342   2.723   5.386   2.305  0.2900 -0.2061 -0.0259
 6976TIP3    H142343   2.679   5.314   2.261 -1.2361  0.5108  0.2324
 6976TIP3    H242344   2.652   5.446   2.329  1.3658  0.7450  0.9309
 6977TIP3   OH242345   5.431   6.264  16.633  0.2419  0.0981  0.3772
 6977TIP3    H142346   5.453   6.195  16.696  0.6621  0.0984  0.2355
 6977TIP3    H242347   5.357   6.229  16.583  0.5479 -0.3131  0.2078
 6978TIP3   OH242348   1.726   1.068   1.172 -0.1487  0.1715  0.5696
 6978TIP3    H142349   1.788   1.116   1.226 -0.0366  0.3462  0.2910
 6978TIP3    H242350   1.762   0.979   1.167  0.3051  0.3728  0.0752
 6979TIP3   OH242351   1.450   1.755   4.016 -0.5994  0.1818  0.1092
 6979TIP3    H142352   1.540   1.755   3.983 -1.0827 -0.1884 -1.2747
 6979TIP3    H242353   1.430   1.662   4.029 -2.1241 -0.2036 -3.6276
 6980TIP3   OH242354   3.306   2.808  12.733 -0.0047 -0.3078 -0.7054
 6980TIP3    H142355   3.365   2.865  12.782  1.0150 -1.7707 -0.1538
 6980TIP3    H242356   3.365   2.755  12.678 -0.8371 -1.3597 -0.6178
 6981TIP3   OH242357   4.118   0.387   4.674  0.9266 -0.2516  0.0644
 6981TIP3    H142358   4.054   0.459   4.673  2.3050  1.0100 -0.6804
 6981TIP3    H242359   4.069   0.312   4.708 -0.1734  1.3891  2.3701
 6982TIP3   OH242360   2.903   0.923  11.139  0.1440  0.2382  0.0960
 6982TIP3    H142361   2.824   0.877  11.112 -0.4231  1.6292 -0.6940
 6982TIP3    H242362   2.960   0.919  11.062 -0.3397  1.7596 -0.3598
 6983TIP3   OH242363   0.003   3.188  12.492  0.4206 -0.8497  0.3379
 6983TIP3    H142364   0.036   3.208  12.405 -0.8893 -0.3547 -0.0668
 6983TIP3    H242365  -0.041   3.103  12.483 -1.1006 -0.0721  0.1056
 6984TIP3   OH242366   2.819   1.656  15.878 -0.4174 -1.0437  0.0497
 6984TIP3    H142367   2.770   1.687  15.803  0.0219 -2.1678 -0.7219
 6984TIP3    H242368   2.911   1.675  15.857 -0.3166 -1.0329  0.4718
 6985TIP3   OH242369   5.913   3.290   1.874  0.1299 -0.1254  0.2557
 6985TIP3    H142370   5.855   3.311   1.800  0.1949 -2.5065 -0.5289
 6985TIP3    H242371   5.997   3.328   1.850 -0.2273  0.4030 -0.1834
 6986TIP3   OH242372   4.303   4.396   0.779 -0.1993 -0.3353  0.3285
 6986TIP3    H142373   4.371   4.398   0.711 -0.4250  0.7057  0.1094
 6986TIP3    H242374   4.323   4.471   0.835  0.0353 -1.2357  1.4899
 6987TIP3   OH242375   2.995   1.535  15.311 -0.4917 -0.2541 -0.0979
 6987TIP3    H142376   2.928   1.472  15.287  0.4443 -1.1178 -0.5341
 6987TIP3    H242377   3.052   1.487  15.372 -0.4415  0.5525  0.5063
 6988TIP3   OH242378   3.782   3.281  12.742  0.5991 -0.2397 -0.1870
 6988TIP3    H142379   3.698   3.250  12.774  1.0253  0.4310  1.7290
 6988TIP3    H242380   3.821   3.327  12.817  1.2289  2.4087 -1.9830
 6989TIP3   OH242381   3.299   4.704   0.115 -0.1574  0.4205 -0.6687
 6989TIP3    H142382   3.308   4.793   0.149 -0.3822 -0.4131  1.7897
 6989TIP3    H242383   3.389   4.673   0.105  0.2071 -0.8819  4.0056
 6990TIP3   OH242384   4.781   0.075  12.922  0.0586  0.4379  0.0894
 6990TIP3    H142385   4.744   0.133  12.988 -0.5519  2.1753 -1.6757
 6990TIP3    H242386   4.871   0.106  12.910 -0.0583  0.6110 -0.3834
 6991TIP3   OH242387   0.627   4.772   5.196 -0.1162 -0.0858  0.6937
 6991TIP3    H142388   0.661   4.717   5.126  0.6611  0.2130  0.8280
 6991TIP3    H242389   0.549   4.814   5.159 -0.5482 -1.0376  0.4918
 6992TIP3   OH242390   3.016   5.974  11.582  0.2173  0.1667 -0.1165
 6992TIP3    H142391   3.072   5.942  11.512  0.6457  0.2094  0.1981
 6992TIP3    H242392   3.013   6.069  11.570  1.2617  0.3115  0.6068
 6993TIP3   OH242393   3.744   4.068  15.514 -0.1377 -0.2149 -0.2608
 6993TIP3    H142394   3.827   4.035  15.480  0.3198 -0.0388  0.6752
 6993TIP3    H242395   3.727   4.147  15.463 -0.7190 -1.2712 -1.8042
 6994TIP3   OH242396   6.373   0.384  13.003 -0.7470 -0.1927 -0.1945
 6994TIP3    H142397   6.328   0.309  12.964  0.0377 -0.4220 -0.6686
 6994TIP3    H242398   6.375   0.364  13.097 -1.7529 -0.1056 -0.1384
 6995TIP3   OH242399   6.616   3.082  15.945  0.3888  0.4115  0.1561
 6995TIP3    H142400   6.602   3.176  15.957 -0.6022  0.0531  2.1651
 6995TIP3    H242401   6.592   3.066  15.854 -2.1484  1.6695  0.5127
 6996TIP3   OH242402   2.363   0.511  16.449  0.3164 -0.1223  0.0068
 6996TIP3    H142403   2.317   0.428  16.460 -0.0795  0.1839  0.7382
 6996TIP3    H242404   2.442   0.489  16.398 -0.6176 -0.6537 -1.2645
 6997TIP3   OH242405   4.013   2.823  15.329 -0.1705  0.3631  0.1857
 6997TIP3    H142406   3.924   2.792  15.311  1.0578 -2.6874 -1.2466
 6997TIP3    H242407   4.027   2.801  15.421 -0.6331  0.2640  0.2372
 6998TIP3   OH242408   5.550   1.305   3.783  0.4586 -0.0921  0.0514
 6998TIP3    H142409   5.588   1.387   3.752 -0.7691  0.7123  0.6050
 6998TIP3    H242410   5.482   1.285   3.718  0.4103 -0.3987  0.1955
 6999TIP3   OH242411   1.017   4.845   1.986 -0.6417  0.9292  0.0236
 6999TIP3    H142412   1.065   4.791   2.049 -0.0759  2.6271  1.1346
 6999TIP3    H242413   0.927   4.846   2.019 -0.9305 -0.2916 -0.6908
 7000TIP3   OH242414   5.338   4.637  14.787  0.3808  0.0032  0.0881
 7000TIP3    H142415   5.431   4.623  14.801  0.5120  2.3079  2.2261
 7000TIP3    H242416   5.332   4.727  14.754 -1.1194  0.1755  0.7281
 7001TIP3   OH242417   1.092   3.807  11.915  0.2546 -0.7268  0.1993
 7001TIP3    H142418   1.032   3.777  11.984  0.8796 -1.3244  0.5014
 7001TIP3    H242419   1.104   3.900  11.933  1.6033 -1.1685  1.8722
 7002TIP3   OH242420   6.026   5.242  11.542 -0.2819  0.8129  0.8098
 7002TIP3    H142421   5.958   5.263  11.478 -0.7517  3.9465  2.1646
 7002TIP3    H242422   6.108   5.247  11.492 -0.7362  1.7733  0.1129
 7003TIP3   OH242423   2.571   2.153   6.533 -0.1696  0.0473  0.2372
 7003TIP3    H142424   2.594   2.064   6.505  0.1933 -0.0422  0.8191
 7003TIP3    H242425   2.652   2.189   6.570 -0.1655  0.8200 -0.4802
 7004TIP3   OH242426   0.681   1.263  11.176 -0.3257  0.5798  0.4518
 7004TIP3    H142427   0.651   1.214  11.253 -1.6023  2.2950  1.1215
 7004TIP3    H242428   0.770   1.232  11.161 -0.3699 -0.4566  2.0704
 7005TIP3   OH242429   3.366   0.206   2.794  0.5383 -0.0164  0.0325
 7005TIP3    H142430   3.348   0.133   2.854  1.1315  1.8168  2.6104
 7005TIP3    H242431   3.314   0.278   2.828  1.4666  1.3245 -1.2569
 7006TIP3   OH242432   1.782   4.624   2.563  0.0476 -0.3596 -0.2534
 7006TIP3    H142433   1.828   4.562   2.619  1.1026  1.2608  0.7678
 7006TIP3    H242434   1.833   4.625   2.482  2.1018  1.5469  0.9226
 7007TIP3   OH242435   5.170   1.785  14.116  0.8548 -0.0072 -0.4926
 7007TIP3    H142436   5.113   1.862  14.113 -0.1776 -0.7742 -1.8983
 7007TIP3    H242437   5.257   1.818  14.095  0.3384  0.7276 -1.5581
 7008TIP3   OH242438   4.900   4.199  12.429  0.1563 -0.0920  0.4323
 7008TIP3    H142439   4.950   4.273  12.463 -0.1523  0.1223  0.4284
 7008TIP3    H242440   4.910   4.130  12.495  1.8710 -0.6629 -0.3696
 7009TIP3   OH242441   2.906   5.474  14.100 -0.4906  0.0107 -0.2631
 7009TIP3    H142442   2.876   5.535  14.033 -1.9829  0.1313  0.4699
 7009TIP3    H242443   2.850   5.397  14.088 -0.8288  0.0656  0.8722
 7010TIP3   OH242444   4.529   2.095   2.819  0.1828 -0.0748 -0.9230
 7010TIP3    H142445   4.600   2.121   2.877 -1.0796  1.1595  0.1245
 7010TIP3    H242446   4.504   2.175   2.773 -1.5930 -0.0990 -0.0751
 7011TIP3   OH242447   1.369   4.769  11.331 -0.2855  0.0750  0.0417
 7011TIP3    H142448   1.351   4.858  11.361 -1.0672 -0.2370  0.5226
 7011TIP3    H242449   1.307   4.714  11.379  0.9863 -0.8890  0.6780
 7012TIP3   OH242450   3.443   2.130  12.449  0.4563  0.1673  0.5393
 7012TIP3    H142451   3.437   2.037  12.469 -0.5678 -0.3133 -1.7303
 7012TIP3    H242452   3.506   2.135  12.377  0.2222  1.1659  0.3931
 7013TIP3   OH242453   4.476   6.235  12.115  0.2768  0.4018 -0.0819
 7013TIP3    H142454   4.451   6.148  12.145  0.4223  0.1433 -0.6824
 7013TIP3    H242455   4.395   6.274  12.084  0.6551 -0.7593 -2.8359
 7014TIP3   OH242456   0.799   2.513   0.044 -0.4567 -0.4154  0.2485
 7014TIP3    H142457   0.888   2.482   0.030 -0.6175 -0.3369 -1.1230
 7014TIP3    H242458   0.770   2.467   0.123  0.7504 -0.5145  0.6570
 7015TIP3   OH242459   6.686   3.646  12.840 -0.9534 -0.1978  0.4441
 7015TIP3    H142460   6.761   3.701  12.862  1.1447 -3.3482  1.9793
 7015TIP3    H242461   6.714   3.599  12.761 -2.1169 -0.0894 -0.0429
 7016TIP3   OH242462   2.090   6.218  14.287 -0.5769  0.6411 -0.0946
 7016TIP3    H142463   2.179   6.199  14.317 -0.7496  1.9199  1.3620
 7016TIP3    H242464   2.102   6.283  14.218 -0.3785  0.9739  0.2470
 7017TIP3   OH242465   6.389   2.312   2.750  0.7770  0.0664 -0.2774
 7017TIP3    H142466   6.483   2.317   2.735  0.8451 -0.4941 -0.0653
 7017TIP3    H242467   6.352   2.300   2.662  0.9677 -0.5091 -0.2841
 7018TIP3   OH242468   4.198   4.221   5.167 -0.4983  0.2151 -0.0489
 7018TIP3    H142469   4.261   4.225   5.239  2.2407 -0.5631 -2.2375
 7018TIP3    H242470   4.179   4.128   5.157 -0.5609  0.2828 -0.5752
 7019TIP3   OH242471   1.260   3.890  13.771  0.3980  0.4748 -0.3954
 7019TIP3    H142472   1.200   3.851  13.707  0.4110  1.6886 -1.1723
 7019TIP3    H242473   1.216   3.878  13.855 -0.1236 -0.1758 -0.7500
 7020TIP3   OH242474   0.248   0.247   5.919  0.0255 -0.0444 -0.0634
 7020TIP3    H142475   0.286   0.194   5.849  1.1064 -1.2172  1.3494
 7020TIP3    H242476   0.323   0.269   5.975 -1.0335 -0.4757  1.5703
 7021TIP3   OH242477   5.242   1.340  13.354 -0.1646  0.6292 -0.2544
 7021TIP3    H142478   5.182   1.409  13.382 -0.0362  1.4713 -1.9250
 7021TIP3    H242479   5.206   1.260  13.392 -2.6802  1.0184 -1.6295
 7022TIP3   OH242480   6.384   5.917  15.506  0.3562  0.0775  0.0671
 7022TIP3    H142481   6.426   5.950  15.586  0.7069 -0.5005  0.1208
 7022TIP3    H242482   6.341   5.994  15.469  1.6350  0.7425 -0.1015
 7023TIP3   OH242483   2.821   1.608  15.548 -0.5248 -0.5083 -1.0480
 7023TIP3    H142484   2.860   1.525  15.575 -1.9060 -1.0602 -0.6543
 7023TIP3    H242485   2.815   1.602  15.452 -0.5407 -0.8371 -1.0283
 7024TIP3   OH242486   0.833   3.387  13.612  0.0705  0.3522 -0.0411
 7024TIP3    H142487   0.803   3.307  13.568  0.5770 -0.5199  1.1390
 7024TIP3    H242488   0.797   3.380  13.701  0.1088  1.4532  0.0717
 7025TIP3   OH242489   3.768   4.811   3.156  0.0209 -0.6526 -0.3005
 7025TIP3    H142490   3.770   4.804   3.061 -0.7427  0.5193 -0.4365
 7025TIP3    H242491   3.729   4.729   3.186 -2.0787 -0.0484 -1.1920
 7026TIP3   OH242492   0.579   4.387  12.097  0.0530  0.0508  0.5208
 7026TIP3    H142493   0.635   4.317  12.130 -0.3780  0.1624  1.5311
 7026TIP3    H242494   0.615   4.408  12.011  0.7083 -0.8220  0.5677
 7027TIP3   OH242495   1.833   0.251  10.454  0.8902  0.7783 -0.4223
 7027TIP3    H142496   1.866   0.233  10.367 -1.0769  0.8252 -1.2168
 7027TIP3    H242497   1.861   0.341  10.472  1.5616  0.6630 -0.8717
 7028TIP3   OH242498   1.587   5.040  13.030  0.3983 -0.0322 -0.1140
 7028TIP3    H142499   1.560   5.115  12.977 -0.6980  0.1914  0.7431
 7028TIP3    H242500   1.601   4.969  12.966 -1.8639 -0.0632 -0.6382
 7029TIP3   OH242501   3.646   0.328  15.189  0.3171 -0.0722  0.6246
 7029TIP3    H142502   3.628   0.270  15.115 -1.6496  0.4641  0.6302
 7029TIP3    H242503   3.621   0.277  15.266  0.8558 -0.0612  0.8110
 7030TIP3   OH242504   4.786   0.291   4.091 -0.5242  0.3341  0.1165
 7030TIP3    H142505   4.808   0.313   4.181  3.3452 -2.9035  0.2532
 7030TIP3    H242506   4.830   0.358   4.038  2.3259 -0.9705  0.6645
 7031TIP3   OH242507   5.307   5.611  10.888  0.7789  0.3596 -0.2875
 7031TIP3    H142508   5.399   5.628  10.907  0.7370 -1.3462  1.8535
 7031TIP3    H242509   5.308   5.531  10.835  0.5275  0.0469  0.1719
 7032TIP3   OH242510   5.773   5.199  15.354  0.8492  0.5710 -0.4583
 7032TIP3    H142511   5.821   5.269  15.399 -0.3833  0.2190  1.5475
 7032TIP3    H242512   5.702   5.245  15.309  0.3894  0.7192  0.3763
 7033TIP3   OH242513   5.413   3.963   1.540  0.1808  0.0681  0.2282
 7033TIP3    H142514   5.424   3.931   1.629  1.3009 -0.8122 -0.2025
 7033TIP3    H242515   5.448   4.053   1.542  2.6858 -0.8090  0.1508
 7034TIP3   OH242516   2.812   3.220   6.378 -0.4846  0.2146  0.5017
 7034TIP3    H142517   2.863   3.213   6.459  0.6238  0.4847 -0.1427
 7034TIP3    H242518   2.874   3.194   6.309 -2.1739 -2.7910 -0.0741
 7035TIP3   OH242519   4.685   4.461  14.474 -0.1849  0.2362  0.5453
 7035TIP3    H142520   4.624   4.534  14.469  0.9391  1.1968  0.4229
 7035TIP3    H242521   4.659   4.413  14.553  0.7883  2.4298  2.3256
 7036TIP3   OH242522   4.750   4.537   4.765  0.0126 -0.3886  0.2261
 7036TIP3    H142523   4.710   4.623   4.768 -0.8723 -0.7512 -0.7224
 7036TIP3    H242524   4.775   4.519   4.856 -2.5822 -0.4316  0.9982
 7037TIP3   OH242525   4.999   1.427  10.733 -0.2129 -0.2982 -0.1882
 7037TIP3    H142526   5.001   1.514  10.695 -0.7262  0.2924  1.0822
 7037TIP3    H242527   5.091   1.405  10.748 -0.0986  0.1459 -0.2322
 7038TIP3   OH242528   0.441   3.562  10.699  0.1450 -0.3769 -0.6598
 7038TIP3    H142529   0.413   3.646  10.734 -1.1900 -1.5364  1.2981
 7038TIP3    H242530   0.390   3.551  10.619  0.2113  0.5975 -0.8423
 7039TIP3   OH242531   0.779   5.426   0.531 -0.1561  0.0532 -0.2513
 7039TIP3    H142532   0.780   5.332   0.510 -2.0868 -0.3394  1.1528
 7039TIP3    H242533   0.780   5.429   0.627  0.3605  1.4892 -0.2872
 7040TIP3   OH242534   1.406   2.581   3.780  0.3840 -0.4843  0.0316
 7040TIP3    H142535   1.408   2.499   3.731 -0.4210 -0.4503 -0.0741
 7040TIP3    H242536   1.491   2.585   3.824  0.1902 -1.6872  0.5473
 7041TIP3   OH242537   5.181   2.434   3.169  0.4434 -0.0615  0.1991
 7041TIP3    H142538   5.229   2.453   3.250  0.6616  0.6017 -0.0842
 7041TIP3    H242539   5.145   2.518   3.142  1.0640 -0.1214 -0.8380
 7042TIP3   OH242540   2.756   3.188  12.089 -0.2057  0.4395 -0.0126
 7042TIP3    H142541   2.793   3.275  12.105  0.7457 -0.1568  1.1528
 7042TIP3    H242542   2.777   3.170  11.998  1.7063  0.4524  0.4026
 7043TIP3   OH242543   1.263   4.961  11.887 -0.8728 -0.2902 -0.5073
 7043TIP3    H142544   1.232   4.938  11.799  1.8541 -1.2193 -1.3274
 7043TIP3    H242545   1.284   4.877  11.928  0.9388  0.2498 -0.2285
 7044TIP3   OH242546   2.226   0.734  16.409  0.0959 -0.5360 -0.1548
 7044TIP3    H142547   2.263   0.797  16.471 -0.2779 -1.7275  1.3419
 7044TIP3    H242548   2.280   0.656  16.420 -0.1922 -0.8837 -1.1133
 7045TIP3   OH242549   4.906   1.177  11.614  0.0582 -0.1072  0.0074
 7045TIP3    H142550   4.891   1.243  11.546 -1.8470 -1.0494 -0.5476
 7045TIP3    H242551   4.989   1.136  11.589  0.1847  0.6213 -0.8415
 7046TIP3   OH242552   2.479   0.245  16.975  0.5013 -0.2540  0.0570
 7046TIP3    H142553   2.386   0.251  16.951 -0.9915  0.4597  4.8567
 7046TIP3    H242554   2.515   0.331  16.952 -1.0246  0.7531  1.2188
 7047TIP3   OH242555   6.500   3.312   2.093 -0.2368 -0.0021 -0.1220
 7047TIP3    H142556   6.507   3.236   2.035 -1.2681 -1.0448  1.0482
 7047TIP3    H242557   6.407   3.334   2.093  0.2471  2.3770 -1.7404
 7048TIP3   OH242558   4.515   3.732  16.248  0.0887 -0.5833  0.1546
 7048TIP3    H142559   4.453   3.660  16.250  0.0243 -0.5224  0.4085
 7048TIP3    H242560   4.468   3.804  16.206 -0.8005  0.1719  2.2887
 7049TIP3   OH242561   6.178   5.275  12.553 -0.2974  1.1343 -0.5186
 7049TIP3    H142562   6.091   5.262  12.592 -0.2854  1.8684 -0.2274
 7049TIP3    H242563   6.161   5.289  12.460 -0.2389 -1.8278 -1.0607
 7050TIP3   OH242564   2.300   0.549  16.722 -0.3285 -0.0319  0.5028
 7050TIP3    H142565   2.326   0.527  16.633 -0.2400 -4.9969  1.4846
 7050TIP3    H242566   2.383   0.558  16.770 -0.3871  0.6844  0.4773
 7051TIP3   OH242567   6.772   0.969  15.221 -0.5463 -0.4557 -0.0397
 7051TIP3    H142568   6.716   0.964  15.143  0.6374 -0.7920 -0.8902
 7051TIP3    H242569   6.812   1.056  15.215 -0.7045 -0.3502  0.3906
 7052TIP3   OH242570   5.612   2.353   5.555 -0.1011 -0.4186  0.2826
 7052TIP3    H142571   5.582   2.393   5.473 -0.7596 -0.7988  0.3267
 7052TIP3    H242572   5.697   2.316   5.534 -0.7502 -1.4925 -0.5545
 7053TIP3   OH242573   4.320   1.738  12.274  0.1283 -0.0374 -0.7588
 7053TIP3    H142574   4.288   1.826  12.254 -1.7951 -0.7324 -0.9618
 7053TIP3    H242575   4.288   1.683  12.202 -0.5449 -1.2680  0.4219
 7054TIP3   OH242576   1.261   1.397   3.200 -0.0153  0.6292 -0.2193
 7054TIP3    H142577   1.347   1.358   3.215 -0.1538  1.2166  2.6073
 7054TIP3    H242578   1.222   1.404   3.287 -2.6064  1.1681 -1.3278
 7055TIP3   OH242579   1.828   4.621  12.463  0.1209 -0.0956  0.4443
 7055TIP3    H142580   1.761   4.678  12.424  0.6716 -0.3682 -0.9609
 7055TIP3    H242581   1.911   4.660  12.437  0.5135 -1.5293 -0.5958
 7056TIP3   OH242582   2.098   3.891  10.950  0.4676 -0.2142  0.2942
 7056TIP3    H142583   2.048   3.871  10.871  0.6928  0.7252 -0.0941
 7056TIP3    H242584   2.165   3.823  10.953 -0.2899 -0.9769  0.3507
 7057TIP3   OH242585   1.469   5.907   3.526  0.0109  0.3841 -0.0117
 7057TIP3    H142586   1.395   5.895   3.585  1.9422  2.1159  3.0532
 7057TIP3    H242587   1.444   5.981   3.471 -1.1923 -0.1962 -0.2685
 7058TIP3   OH242588   0.761   1.081  16.619  0.1951 -0.3607 -0.0595
 7058TIP3    H142589   0.837   1.104  16.672  0.3663  1.4016 -1.0023
 7058TIP3    H242590   0.697   1.047  16.682  1.4733 -1.2209  0.8403
 7059TIP3   OH242591   1.374   5.875  16.007 -0.5316 -0.4905  0.2025
 7059TIP3    H142592   1.436   5.873  16.080  0.2602 -1.7914 -0.4708
 7059TIP3    H242593   1.428   5.894  15.930 -1.1548 -0.4184 -0.2228
 7060TIP3   OH242594   4.754   5.502  16.306  0.5448 -0.0063 -0.5001
 7060TIP3    H142595   4.783   5.445  16.234  1.3728 -1.4098  0.8776
 7060TIP3    H242596   4.828   5.560  16.322  1.3931 -1.3734  0.8199
 7061TIP3   OH242597   0.620   6.777  17.058 -0.4466  0.4451  0.1051
 7061TIP3    H142598   0.715   6.789  17.056 -0.2360 -0.5853  1.7588
 7061TIP3    H242599   0.586   6.843  16.998  1.2662  1.2947  0.0097
 7062TIP3   OH242600   0.250   5.503   1.586 -0.3667 -0.3529  0.3187
 7062TIP3    H142601   0.304   5.455   1.649 -1.3348  0.9482  2.2320
 7062TIP3    H242602   0.174   5.446   1.571  0.9848 -1.7532 -1.6383
 7063TIP3   OH242603   0.854   4.192   5.234 -0.0335  0.3840 -0.5680
 7063TIP3    H142604   0.910   4.261   5.271 -0.4253 -0.3877  1.5958
 7063TIP3    H242605   0.914   4.133   5.189  0.5073  1.1775 -0.9060
 7064TIP3   OH242606   5.273   5.165   3.596  0.4594 -0.1308 -0.2703
 7064TIP3    H142607   5.268   5.088   3.653  1.7350 -0.5686 -0.7184
 7064TIP3    H242608   5.231   5.138   3.515 -1.4425  0.5225  0.4310
 7065TIP3   OH242609   4.935   0.759  16.826 -0.1862 -0.0628  0.2926
 7065TIP3    H142610   4.978   0.805  16.898 -1.0410  0.3497  0.5554
 7065TIP3    H242611   5.006   0.738  16.765  0.4637  0.0851  0.9825
 7066TIP3   OH242612   6.404   3.979   3.371 -0.6176  0.4612  0.4499
 7066TIP3    H142613   6.439   3.920   3.438 -0.2373 -0.0461 -0.1915
 7066TIP3    H242614   6.317   4.003   3.404  0.0328  1.1994  1.7353
 7067TIP3   OH242615   2.513   6.394   1.543 -0.4836  0.2943 -0.5581
 7067TIP3    H142616   2.472   6.463   1.595 -1.2778 -1.3000  1.0271
 7067TIP3    H242617   2.546   6.439   1.465 -0.5494  2.5218  0.6329
 7068TIP3   OH242618   1.331   5.379   1.034 -0.5256  0.0779 -0.1564
 7068TIP3    H142619   1.337   5.437   1.109 -3.8556  0.7644 -0.2574
 7068TIP3    H242620   1.315   5.437   0.959  0.2639 -0.7372 -0.9847
 7069TIP3   OH242621   2.961   4.928  14.843 -0.3035 -0.2411  0.3889
 7069TIP3    H142622   2.930   4.841  14.868  1.7716 -1.5317 -1.2269
 7069TIP3    H242623   2.960   4.927  14.747  1.6692  0.7314  0.3085
 7070TIP3   OH242624   1.784   3.276   5.596 -0.8098  0.0952 -0.0539
 7070TIP3    H142625   1.866   3.324   5.604 -0.7284  0.0720 -0.6765
 7070TIP3    H242626   1.741   3.286   5.681 -0.1999  0.1723  0.2479
 7071TIP3   OH242627   3.068   3.511   5.672  0.5731 -0.6838 -0.8927
 7071TIP3    H142628   3.094   3.457   5.747  0.2419  1.3439  0.7809
 7071TIP3    H242629   2.983   3.476   5.645 -0.0320 -0.5048  0.7019
 7072TIP3   OH242630   0.629   2.733  12.143  0.1322 -0.8995 -0.3167
 7072TIP3    H142631   0.668   2.647  12.128  0.7217 -0.8237  0.6881
 7072TIP3    H242632   0.578   2.723  12.224  2.9705  0.4985  1.8135
 7073TIP3   OH242633   3.483   5.706   0.170  0.1225  0.3528  0.0331
 7073TIP3    H142634   3.536   5.785   0.179 -1.6696  1.5935  0.3374
 7073TIP3    H242635   3.396   5.739   0.147 -0.5562 -1.5821 -0.3532
 7074TIP3   OH242636   0.389   1.041  11.830 -0.0896  0.5539 -0.6445
 7074TIP3    H142637   0.430   0.965  11.869 -1.6714 -0.3177 -0.5934
 7074TIP3    H242638   0.460   1.087  11.785  0.5344 -2.4188 -3.0423
 7075TIP3   OH242639   0.257   4.446  15.888 -0.3617 -0.0795 -0.0784
 7075TIP3    H142640   0.201   4.430  15.964  1.7490  3.6005  2.5301
 7075TIP3    H242641   0.342   4.409  15.913  0.0052 -0.1125 -1.3279
 7076TIP3   OH242642   1.731   3.833  16.150 -0.4137  0.3764 -0.3655
 7076TIP3    H142643   1.704   3.744  16.128 -0.2623  0.3212 -0.3330
 7076TIP3    H242644   1.825   3.834  16.131 -1.0589  1.7024 -4.2313
 7077TIP3   OH242645   1.793   5.087  16.771 -0.0807 -0.0061 -0.4530
 7077TIP3    H142646   1.795   5.104  16.677  1.7056  1.0041 -0.2707
 7077TIP3    H242647   1.748   5.162  16.808 -2.4854 -1.2614 -0.5828
 7078TIP3   OH242648   1.536   5.035   2.651 -0.1332  0.1018 -0.5272
 7078TIP3    H142649   1.545   4.951   2.605  1.0873  1.4802 -3.0254
 7078TIP3    H242650   1.625   5.061   2.673 -0.4247  1.0205 -0.3698
 7079TIP3   OH242651   0.472   1.632  13.120 -0.3636 -0.5609  0.3045
 7079TIP3    H142652   0.506   1.636  13.209 -0.5626  0.5328  0.3459
 7079TIP3    H242653   0.421   1.712  13.110 -0.1529 -0.5489 -0.8618
 7080TIP3   OH242654   0.255   1.153  13.688 -0.4710  0.3734 -0.3110
 7080TIP3    H142655   0.177   1.155  13.743  0.3909 -0.1462  0.9747
 7080TIP3    H242656   0.240   1.221  13.622 -0.3028  3.1399  2.3163
 7081TIP3   OH242657   5.711   1.670   1.349 -0.1842  0.4685  0.4831
 7081TIP3    H142658   5.655   1.715   1.286  0.6043  0.3444 -0.3376
 7081TIP3    H242659   5.691   1.577   1.337 -0.9498  0.5082  1.3345
 7082TIP3   OH242660   2.284   5.109  13.233 -0.2720 -0.1808 -0.3123
 7082TIP3    H142661   2.252   5.150  13.153 -2.4531 -0.0100  0.5788
 7082TIP3    H242662   2.241   5.157  13.304  0.7022 -1.0658  0.9253
 7083TIP3   OH242663   2.325   3.950  12.631  0.1195  0.3504 -0.0223
 7083TIP3    H142664   2.351   4.005  12.557  2.4287 -1.2065 -0.4679
 7083TIP3    H242665   2.407   3.917  12.667 -1.0876 -1.6415  1.1210
 7084TIP3   OH242666   2.276   0.528   4.761  0.1259  0.1181  0.2782
 7084TIP3    H142667   2.221   0.479   4.823  1.6169 -2.0588  0.0385
 7084TIP3    H242668   2.322   0.592   4.816 -2.0207  1.4523  0.5899
 7085TIP3   OH242669   5.230   5.793  14.135  0.2765  0.0714 -0.2680
 7085TIP3    H142670   5.173   5.760  14.205 -0.1383  1.0163 -0.1439
 7085TIP3    H242671   5.170   5.818  14.065  0.6553 -0.3738 -0.7571
 7086TIP3   OH242672   1.735   4.398   5.011 -0.1753 -0.1815 -0.3215
 7086TIP3    H142673   1.761   4.478   4.966 -0.4250 -0.3472 -0.7629
 7086TIP3    H242674   1.714   4.426   5.100  2.4982 -0.1676  0.3949
 7087TIP3   OH242675   1.870   4.931  13.169  0.2902  0.5284 -0.8464
 7087TIP3    H142676   1.880   4.861  13.104 -1.7795  0.1742 -0.8399
 7087TIP3    H242677   1.828   4.889  13.244  1.6127  1.1886  0.3053
 7088TIP3   OH242678   3.834   2.878   1.907  0.6477 -0.2497  0.1706
 7088TIP3    H142679   3.901   2.817   1.937  0.2739 -1.9622 -2.1818
 7088TIP3    H242680   3.768   2.876   1.977  0.8313 -2.3060  0.3696
 7089TIP3   OH242681   5.963   0.419  12.076 -0.1221 -0.3461 -0.2874
 7089TIP3    H142682   5.952   0.425  12.171  0.5774  2.0599 -0.2738
 7089TIP3    H242683   6.056   0.397  12.065  0.8787  3.2561 -0.3000
 7090TIP3   OH242684   4.719   4.351  16.442 -0.3563 -0.2755  0.1230
 7090TIP3    H142685   4.795   4.351  16.501 -1.3749 -0.6678  1.4947
 7090TIP3    H242686   4.701   4.258  16.428  0.9983 -0.2335 -2.3896
 7091TIP3   OH242687   5.427   2.477   0.945 -0.2587  0.3524 -0.3255
 7091TIP3    H142688   5.426   2.545   0.877 -0.0799 -0.2005 -0.8976
 7091TIP3    H242689   5.388   2.519   1.022 -2.0418  0.5107 -1.2441
 7092TIP3   OH242690   5.040   4.769  14.060 -0.1629 -0.4325  0.6496
 7092TIP3    H142691   4.975   4.715  14.106 -2.2775 -0.0928 -1.7403
 7092TIP3    H242692   5.009   4.773  13.970  1.7523  2.0362 -0.0146
 7093TIP3   OH242693   6.259   0.979  11.276  0.9163 -0.1993 -0.2194
 7093TIP3    H142694   6.214   1.053  11.316  0.9443 -1.3882  2.2459
 7093TIP3    H242695   6.352   0.997  11.290  0.8913 -1.2296  1.5894
 7094TIP3   OH242696   5.650   6.567   2.707  0.3204 -0.0680  0.4090
 7094TIP3    H142697   5.720   6.516   2.666 -1.6922 -1.9326 -0.9752
 7094TIP3    H242698   5.604   6.503   2.762 -2.4731  0.0232 -1.6069
 7095TIP3   OH242699   4.721   5.707  15.565 -0.1203  0.3149 -0.1231
 7095TIP3    H142700   4.770   5.749  15.636 -0.3256 -1.7050  1.2903
 7095TIP3    H242701   4.636   5.688  15.603  0.0872 -1.6854 -0.5735
 7096TIP3   OH242702   6.284   3.426   2.858 -0.3755 -1.1326  0.0290
 7096TIP3    H142703   6.210   3.380   2.897 -1.0972 -1.0863 -1.2032
 7096TIP3    H242704   6.278   3.515   2.891 -0.9252 -1.1131 -0.1125
 7097TIP3   OH242705   5.252   1.623  13.235 -0.0496  0.0247 -0.3072
 7097TIP3    H142706   5.158   1.617  13.252 -0.2899 -1.0949 -1.8097
 7097TIP3    H242707   5.262   1.704  13.184 -0.1618  0.2840  0.0811
 7098TIP3   OH242708   3.792   0.969  15.233  0.0334  0.0571  0.1422
 7098TIP3    H142709   3.700   0.962  15.209  0.5400 -0.0331 -1.9113
 7098TIP3    H242710   3.808   1.063  15.241 -0.4342  0.0446  1.4388
 7099TIP3   OH242711   3.565   3.912  12.593  0.1998  0.1305  0.3084
 7099TIP3    H142712   3.615   3.991  12.574 -1.2393  1.7286  2.6679
 7099TIP3    H242713   3.631   3.844  12.606  1.7896  1.9778  2.6390
 7100TIP3   OH242714   2.149   1.699   5.027 -0.0887 -0.5473  0.1777
 7100TIP3    H142715   2.079   1.732   5.084 -0.3400 -2.2584  0.9172
 7100TIP3    H242716   2.154   1.764   4.956 -3.1458 -0.8547 -0.4913
 7101TIP3   OH242717   2.234   2.757  14.856 -0.3971 -0.5622  0.0747
 7101TIP3    H142718   2.243   2.698  14.782 -2.1447  1.2515 -1.6908
 7101TIP3    H242719   2.299   2.826  14.840  0.7117 -1.2130  1.4384
 7102TIP3   OH242720   5.586   5.888  14.353 -0.5042  0.4466  0.3663
 7102TIP3    H142721   5.549   5.916  14.269 -1.3477 -0.4655  0.4085
 7102TIP3    H242722   5.551   5.950  14.417 -0.3497  0.7788  0.1306
 7103TIP3   OH242723   3.731   6.358  13.187  0.4432 -0.0653 -0.3248
 7103TIP3    H142724   3.688   6.434  13.226 -0.8318 -0.8945 -0.0199
 7103TIP3    H242725   3.811   6.345  13.238  0.9772  1.4005 -0.7575
 7104TIP3   OH242726   5.110   3.012  15.920  0.2612 -0.3964 -0.5737
 7104TIP3    H142727   5.044   2.949  15.889 -1.6586  0.7730  0.8601
 7104TIP3    H242728   5.110   3.081  15.853 -1.4603  0.5223  0.2872
 7105TIP3   OH242729   0.131   2.165   5.452 -0.3020 -0.5932 -0.0944
 7105TIP3    H142730   0.214   2.203   5.422 -1.5120  1.7879 -0.6548
 7105TIP3    H242731   0.072   2.174   5.378 -1.5918 -0.5112  0.9125
 7106TIP3   OH242732   0.941   5.746  11.964  0.1956 -0.4082 -0.0328
 7106TIP3    H142733   1.018   5.690  11.954  0.1100 -0.3515 -1.2332
 7106TIP3    H242734   0.897   5.713  12.042  0.5117 -1.5840 -0.3271
 7107TIP3   OH242735   0.936   0.358  14.513 -0.2194  0.1713  0.2105
 7107TIP3    H142736   0.890   0.287  14.558 -1.9118  1.4670  0.6166
 7107TIP3    H242737   0.978   0.316  14.438 -1.0699 -1.2643  0.5144
 7108TIP3   OH242738   2.057   3.747  14.282  0.3284  0.5541  0.4139
 7108TIP3    H142739   1.981   3.800  14.260  0.1953  0.7113  1.2231
 7108TIP3    H242740   2.026   3.687  14.350  0.9842  0.7678  0.9106
 7109TIP3   OH242741   1.595   6.103   1.077 -0.2426  0.6310  0.3345
 7109TIP3    H142742   1.583   6.124   1.170  1.7620  1.5135  0.4487
 7109TIP3    H242743   1.509   6.074   1.048 -1.1379  1.1801  2.2498
 7110TIP3   OH242744   4.567   1.746   3.832  0.5130  0.0773 -0.2552
 7110TIP3    H142745   4.601   1.676   3.776 -0.6554 -0.0152 -0.8624
 7110TIP3    H242746   4.635   1.757   3.899  0.8818 -1.4045 -0.3460
 7111TIP3   OH242747   1.165   3.905  13.217 -0.1644  0.0086  0.0386
 7111TIP3    H142748   1.075   3.876  13.234 -0.1753 -0.7552 -1.1569
 7111TIP3    H242749   1.156   3.968  13.145  0.1038  1.2431  1.0623
 7112TIP3   OH242750   2.408   1.187  10.572 -0.0328 -0.0667 -0.4186
 7112TIP3    H142751   2.465   1.122  10.530  0.3685 -0.3093  0.4864
 7112TIP3    H242752   2.460   1.267  10.573 -0.6750  0.4073 -1.8972
 7113TIP3   OH242753   4.523   0.593  12.289 -0.1109 -0.0180  0.7816
 7113TIP3    H142754   4.431   0.579  12.313 -0.3798 -0.9585 -0.6625
 7113TIP3    H242755   4.572   0.571  12.368 -1.0853 -0.3782  1.2993
 7114TIP3   OH242756   0.255   3.051   2.816  0.1039  0.0696 -0.0337
 7114TIP3    H142757   0.233   3.069   2.908  1.3139  1.2153  0.0556
 7114TIP3    H242758   0.321   3.116   2.794  1.4548 -1.5826 -1.0727
 7115TIP3   OH242759   2.523   2.819  16.518 -0.1507  0.0895  0.1696
 7115TIP3    H142760   2.514   2.902  16.472  2.4484  0.4880  0.2271
 7115TIP3    H242761   2.439   2.807  16.562 -0.4569  2.9536  0.5796
 7116TIP3   OH242762   6.504   3.489  16.353  0.7098  0.3338  0.3503
 7116TIP3    H142763   6.595   3.504  16.328  0.6204  1.0796  0.4599
 7116TIP3    H242764   6.505   3.491  16.449  0.7919 -0.9831  0.3979
 7117TIP3   OH242765   5.673   4.396   4.153 -0.0424 -0.3215 -0.5316
 7117TIP3    H142766   5.580   4.390   4.135 -0.0353  0.6564 -1.0000
 7117TIP3    H242767   5.714   4.333   4.093 -0.2868  0.4536 -1.5362
 7118TIP3   OH242768   2.941   3.196   1.762 -0.2854 -0.0743  0.2561
 7118TIP3    H142769   2.861   3.201   1.814 -0.8628 -2.6796 -0.2293
 7118TIP3    H242770   2.935   3.111   1.717  2.2841  0.0919 -0.5558
 7119TIP3   OH242771   0.248   0.810   0.847 -0.3137 -0.7039 -0.5120
 7119TIP3    H142772   0.193   0.732   0.840  0.8288 -1.5459 -0.4022
 7119TIP3    H242773   0.269   0.816   0.940 -1.0289  0.2035 -0.3971
 7120TIP3   OH242774   0.126   3.590  15.041  0.3662 -0.3642  0.7244
 7120TIP3    H142775   0.214   3.610  15.011 -0.5453  0.1697 -1.8620
 7120TIP3    H242776   0.101   3.664  15.095  1.0933  0.0132  0.5547
 7121TIP3   OH242777   4.719   1.948   0.844  0.5792  0.2705 -0.3491
 7121TIP3    H142778   4.774   1.870   0.835  1.8076  0.8029  1.9516
 7121TIP3    H242779   4.744   2.003   0.770  2.5575  0.1176  0.1563
 7122TIP3   OH242780   0.971   2.709  13.158 -0.0399  0.6218 -0.1564
 7122TIP3    H142781   1.037   2.640  13.152  0.1961  0.5093  2.4345
 7122TIP3    H242782   0.887   2.663  13.151  0.1390  0.2758 -0.0650
 7123TIP3   OH242783   6.561   5.660  15.032 -0.4346 -0.0330 -0.0245
 7123TIP3    H142784   6.598   5.648  14.944 -0.0563  2.1907 -0.2097
 7123TIP3    H242785   6.468   5.643  15.020 -0.1641 -1.3173 -0.4982
 7124TIP3   OH242786   3.852   6.602  17.146  0.7268 -0.6494  0.0673
 7124TIP3    H142787   3.893   6.610  17.060  0.9121 -1.7061  0.0468
 7124TIP3    H242788   3.775   6.547  17.131  0.1226  0.0876  0.3798
 7125TIP3   OH242789   4.171   1.011  16.670 -0.0032 -0.3587  0.1839
 7125TIP3    H142790   4.239   1.017  16.603 -0.2198  1.7078  0.0897
 7125TIP3    H242791   4.218   1.018  16.753  0.0031  0.0593  0.1466
 7126TIP3   OH242792   5.239   2.822  14.624  0.0690 -0.5734 -0.1746
 7126TIP3    H142793   5.224   2.739  14.579  0.0858  0.3891 -2.0414
 7126TIP3    H242794   5.160   2.836  14.676 -0.9419 -0.6674 -1.6310
 7127TIP3   OH242795   3.926   0.996  12.315  0.3462  0.6896 -0.1214
 7127TIP3    H142796   3.873   1.005  12.236  1.2789  1.9676 -0.6375
 7127TIP3    H242797   3.917   1.079  12.361  1.3810  0.6981  0.0970
 7128TIP3   OH242798   2.067   6.316   2.048 -0.0615  0.5550  0.1568
 7128TIP3    H142799   2.005   6.371   2.000  0.0641  0.7159  0.1782
 7128TIP3    H242800   2.013   6.270   2.113 -0.5867 -1.1769 -1.4031
 7129TIP3   OH242801   1.774   5.806  13.818  0.2403 -0.0408 -0.0679
 7129TIP3    H142802   1.799   5.898  13.807 -0.4616  0.2364  0.5741
 7129TIP3    H242803   1.705   5.792  13.754  1.7486 -0.7250 -1.6325
 7130TIP3   OH242804   2.505   5.354   5.091  0.2670  0.2356  0.4145
 7130TIP3    H142805   2.586   5.379   5.047 -0.7929  1.0129 -1.1870
 7130TIP3    H242806   2.534   5.304   5.168  2.2521  0.8040  0.0935
 7131TIP3   OH242807   6.293   0.755  13.020  0.0192  0.2850  0.1179
 7131TIP3    H142808   6.261   0.826  13.076 -0.6047  0.3045 -0.2473
 7131TIP3    H242809   6.377   0.787  12.988  0.3205  0.3295  0.9293
 7132TIP3   OH242810   1.918   5.644  14.504  0.0983  0.8587 -0.5111
 7132TIP3    H142811   1.949   5.569  14.554  2.1946  2.5582  0.8753
 7132TIP3    H242812   1.828   5.658  14.535  1.0334  1.3241  2.2459
 7133TIP3   OH242813   5.111   6.337   0.517 -0.0956  0.0679  0.0292
 7133TIP3    H142814   5.143   6.335   0.608  1.3180 -0.5909 -0.4436
 7133TIP3    H242815   5.190   6.353   0.465 -1.1459  2.3246 -0.9931
 7134TIP3   OH242816   2.165   0.441  15.590 -0.0380  0.0818 -0.4130
 7134TIP3    H142817   2.235   0.481  15.641 -0.8354  0.6193  0.2774
 7134TIP3    H242818   2.174   0.479  15.503  1.7272 -1.3171 -0.9123
 7135TIP3   OH242819   0.713   0.317   0.159 -0.1250  0.1606  0.1125
 7135TIP3    H142820   0.703   0.318   0.064  1.6498 -2.2047 -0.1851
 7135TIP3    H242821   0.748   0.404   0.180 -0.3184  0.6321 -1.4179
 7136TIP3   OH242822   1.660   4.725  11.867  0.4852  0.0702  0.4359
 7136TIP3    H142823   1.626   4.811  11.890 -1.2176 -0.5577  0.4732
 7136TIP3    H242824   1.755   4.736  11.863  0.3809  1.6748  1.5116
 7137TIP3   OH242825   0.086   1.167   4.872  0.0411 -0.5297 -0.1939
 7137TIP3    H142826   0.052   1.243   4.918 -2.8300 -1.2653 -0.9347
 7137TIP3    H242827   0.035   1.094   4.906 -0.1526 -1.5059 -2.4447
 7138TIP3   OH242828   3.747   0.668  14.761 -0.2612  0.1792  0.6129
 7138TIP3    H142829   3.756   0.575  14.738 -0.0182  0.1440  0.8483
 7138TIP3    H242830   3.680   0.668  14.830 -0.6623  0.2384  0.2304
 7139TIP3   OH242831   6.055   6.331  11.995  0.2237 -0.0269  0.2816
 7139TIP3    H142832   5.963   6.341  11.972 -0.0662  1.3904  1.8512
 7139TIP3    H242833   6.081   6.416  12.029  1.9839 -0.5484  0.3703
 7140TIP3   OH242834   6.397   4.509   0.519  0.1849 -0.4827  0.2827
 7140TIP3    H142835   6.474   4.565   0.513  0.2738 -0.7297 -3.6869
 7140TIP3    H242836   6.323   4.568   0.504 -0.3621 -0.5083  2.5057
 7141TIP3   OH242837   6.048   1.135  13.450  0.1893  0.6138 -0.4296
 7141TIP3    H142838   6.082   1.200  13.511 -3.0070  0.2590  1.9526
 7141TIP3    H242839   6.057   1.052  13.496 -0.0036 -0.0351 -1.5149
 7142TIP3   OH242840   4.070   3.021  11.849  0.2991  0.1794  0.2908
 7142TIP3    H142841   4.089   3.098  11.795  0.2569 -0.6442 -0.9485
 7142TIP3    H242842   4.147   3.010  11.904  0.6114  0.6829 -0.0423
 7143TIP3   OH242843   0.224   3.030   1.881 -0.3159 -0.9686  0.0346
 7143TIP3    H142844   0.301   3.050   1.934 -1.5582 -0.2168  1.6732
 7143TIP3    H242845   0.245   3.063   1.793  0.3530  1.4391  1.0124
 7144TIP3   OH242846   5.370   0.015   5.056 -0.6854  0.0560  0.2913
 7144TIP3    H142847   5.367  -0.052   5.124 -0.3609  0.4429  0.6993
 7144TIP3    H242848   5.463   0.022   5.033 -0.3374  2.0863  2.0323
 7145TIP3   OH242849   5.554   3.872  16.866  0.0614 -0.1610 -0.4037
 7145TIP3    H142850   5.511   3.954  16.892  1.5123  0.2219  0.9675
 7145TIP3    H242851   5.563   3.879  16.771 -3.7843 -0.7742 -0.9550
 7146TIP3   OH242852   5.838   0.122  14.303  0.2576 -0.1896 -0.2173
 7146TIP3    H142853   5.770   0.058  14.283  2.5608 -2.3775 -1.5891
 7146TIP3    H242854   5.846   0.175  14.223 -0.1066  0.3561  0.1008
 7147TIP3   OH242855   6.743   5.974   0.084  0.2399  0.6058 -0.0761
 7147TIP3    H142856   6.793   6.055   0.075 -0.2492  0.7990 -1.2416
 7147TIP3    H242857   6.794   5.910   0.034  0.5928  0.2008  0.7904
 7148TIP3   OH242858   3.498   1.176  12.152 -0.1205 -0.5297 -0.4520
 7148TIP3    H142859   3.522   1.257  12.107 -0.2041  0.2728  0.8844
 7148TIP3    H242860   3.408   1.192  12.183  0.4165 -0.5006  1.1653
 7149TIP3   OH242861   4.930   2.877  13.527 -0.7708 -0.6108 -0.0820
 7149TIP3    H142862   4.935   2.864  13.622 -1.3742  2.0015  0.4026
 7149TIP3    H242863   5.013   2.844  13.493 -0.3907 -1.2639  1.4057
 7150TIP3   OH242864   1.623   2.056  14.201  0.2798 -0.4050 -0.4765
 7150TIP3    H142865   1.578   2.096  14.126  0.0502 -0.3120 -0.2907
 7150TIP3    H242866   1.702   2.018  14.164  0.3963  0.0375 -0.6943
 7151TIP3   OH242867   2.320   0.209  15.676 -0.1422  0.0976  0.6755
 7151TIP3    H142868   2.351   0.179  15.591 -0.9800 -2.0645  1.0563
 7151TIP3    H242869   2.236   0.251  15.657 -0.3225 -0.3694  0.4280
 7152TIP3   OH242870   6.608   0.675  15.310 -0.3098  0.4290 -0.8214
 7152TIP3    H142871   6.668   0.714  15.374  0.5769 -1.3631 -0.5086
 7152TIP3    H242872   6.617   0.730  15.232  1.7133  0.2320 -0.7584
 7153TIP3   OH242873   4.847   2.214  11.328 -0.7523 -0.9037  0.5771
 7153TIP3    H142874   4.757   2.196  11.353 -0.7704 -1.9549 -0.1638
 7153TIP3    H242875   4.883   2.129  11.303 -0.0125 -0.2909 -0.5826
 7154TIP3   OH242876   3.109   5.819   0.686 -0.8686 -0.4324  0.3835
 7154TIP3    H142877   3.192   5.800   0.643 -1.5787  1.9158 -2.4034
 7154TIP3    H242878   3.127   5.895   0.742 -1.1788  0.4067 -0.6213
 7155TIP3   OH242879   4.494   0.823  14.944  0.4597  0.3975  0.7047
 7155TIP3    H142880   4.454   0.736  14.945  1.5026 -0.0929  1.2345
 7155TIP3    H242881   4.428   0.879  14.903 -1.0702 -0.2339  2.1437
 7156TIP3   OH242882   6.124   4.146  10.221  0.3238 -0.2371  0.1710
 7156TIP3    H142883   6.031   4.168  10.210  0.3695 -0.3027 -0.3868
 7156TIP3    H242884   6.167   4.230  10.238  0.6479  0.3496 -2.9509
 7157TIP3   OH242885   3.758   0.158   3.752 -0.0078 -0.3852 -0.1252
 7157TIP3    H142886   3.709   0.168   3.834 -0.4750 -0.8340 -0.3440
 7157TIP3    H242887   3.734   0.235   3.701  1.4906  0.7146  0.7501
 7158TIP3   OH242888   4.100   4.096  16.572 -0.3195 -0.0298  0.0153
 7158TIP3    H142889   4.107   4.185  16.607 -1.0912  0.4205 -0.9667
 7158TIP3    H242890   4.010   4.071  16.588 -0.2818 -0.3815 -0.3227
 7159TIP3   OH242891   1.147   2.022   2.515  0.2059 -0.1591  0.0608
 7159TIP3    H142892   1.101   1.955   2.567 -0.5156 -0.2221 -0.6415
 7159TIP3    H242893   1.192   2.076   2.580  0.7020 -1.2454  0.6530
 7160TIP3   OH242894   4.697   3.070   2.498  0.1389 -0.0434  0.3417
 7160TIP3    H142895   4.752   3.143   2.470  0.6778 -0.8967 -0.9015
 7160TIP3    H242896   4.650   3.044   2.418 -1.7920  0.3972  1.2676
 7161TIP3   OH242897   4.629   2.113  10.895  0.2490  0.0860 -0.2325
 7161TIP3    H142898   4.717   2.081  10.880 -0.1665 -1.4978  0.5333
 7161TIP3    H242899   4.584   2.041  10.939 -0.1885  2.3369  3.4545
 7162TIP3   OH242900   0.554   1.208  16.465  0.5824  0.2513  0.3073
 7162TIP3    H142901   0.462   1.210  16.439  1.0005  0.6512 -1.1972
 7162TIP3    H242902   0.558   1.142  16.535 -1.0519  1.1046  1.2615
 7163TIP3   OH242903   6.137   4.457  12.881  0.2613 -0.0318  0.0480
 7163TIP3    H142904   6.219   4.445  12.930  1.5454 -3.1230 -2.4840
 7163TIP3    H242905   6.077   4.495  12.944  1.6562 -3.8355  4.2161
 7164TIP3   OH242906   4.159   1.348   3.379 -0.2820 -0.5365 -0.1277
 7164TIP3    H142907   4.167   1.412   3.308 -0.3940 -1.2408 -0.7868
 7164TIP3    H242908   4.197   1.392   3.455 -1.7025  0.8859 -0.1802
 7165TIP3   OH242909   2.476   3.291  13.253  0.1083  0.3727 -0.0422
 7165TIP3    H142910   2.553   3.332  13.212  0.2823  1.9713  1.7411
 7165TIP3    H242911   2.500   3.199  13.262  1.3787  0.6382 -0.5035
 7166TIP3   OH242912   1.458   0.723   4.922 -0.2681  0.4552  0.5387
 7166TIP3    H142913   1.468   0.818   4.925  0.6619  0.3612  2.9838
 7166TIP3    H242914   1.545   0.691   4.897 -0.8802  0.2326 -1.4527
 7167TIP3   OH242915   6.067   5.317   2.094 -0.2375  0.3236 -0.2693
 7167TIP3    H142916   6.055   5.412   2.091 -2.3982  0.0998  0.0401
 7167TIP3    H242917   6.100   5.300   2.183 -1.3081  0.6703  0.2118
 7168TIP3   OH242918   4.081   2.660   0.286 -0.1667  0.4922 -0.1443
 7168TIP3    H142919   4.000   2.612   0.303 -0.9836  1.9235  0.2401
 7168TIP3    H242920   4.105   2.699   0.370  0.4189  0.8143 -0.4498
 7169TIP3   OH242921   4.519   3.139   3.942 -0.1472  0.1457  0.0118
 7169TIP3    H142922   4.446   3.186   3.983  0.9731  1.8481  0.1527
 7169TIP3    H242923   4.581   3.207   3.918  1.5903 -1.2681  0.2559
 7170TIP3   OH242924   3.877   4.022  13.809 -0.4333  0.1531 -0.5218
 7170TIP3    H142925   3.904   3.952  13.749  0.5555 -0.5680  0.7231
 7170TIP3    H242926   3.954   4.077  13.817 -0.9311  0.9045 -0.7965
 7171TIP3   OH242927   4.025   3.638  13.916  0.0198 -1.0097 -0.3716
 7171TIP3    H142928   3.966   3.593  13.976 -1.8580  1.5837 -0.0766
 7171TIP3    H242929   3.973   3.650  13.836  1.4401 -1.7941 -1.4574
 7172TIP3   OH242930   4.069   6.381  15.149  0.0452  0.1487  0.1720
 7172TIP3    H142931   4.117   6.436  15.087  2.7641 -1.8854  0.2978
 7172TIP3    H242932   4.128   6.372  15.224 -0.4902 -2.4037  0.3859
 7173TIP3   OH242933   2.952   0.657  15.736 -0.0697  0.0891 -0.5935
 7173TIP3    H142934   2.969   0.566  15.713 -0.4781  0.1238 -1.0456
 7173TIP3    H242935   3.039   0.698  15.739  0.1085 -0.3040 -0.4378
 7174TIP3   OH242936   2.812   0.050  17.168  0.4534 -0.7037 -0.5366
 7174TIP3    H142937   2.803  -0.038  17.131 -0.3191  0.1645 -2.5811
 7174TIP3    H242938   2.724   0.072  17.198  0.4842 -0.3579 -0.7018
 7175TIP3   OH242939   2.754   3.419  15.759  0.3832  0.4217 -0.8976
 7175TIP3    H142940   2.805   3.391  15.683 -0.1906 -0.6166 -0.9162
 7175TIP3    H242941   2.753   3.343  15.817  1.3618  1.3916  0.4856
 7176TIP3   OH242942   3.948   0.759   1.527  0.5019 -0.9508  0.2722
 7176TIP3    H142943   3.882   0.759   1.597 -0.2439  2.0483 -0.2763
 7176TIP3    H242944   3.898   0.736   1.449  0.7060 -1.3634  0.2614
 7177TIP3   OH242945   1.618   4.466   4.065 -0.3294  0.4051 -0.2468
 7177TIP3    H142946   1.595   4.539   4.007 -2.7927  0.6397  0.8776
 7177TIP3    H242947   1.585   4.389   4.019  0.4496  0.2314 -0.5176
 7178TIP3   OH242948   2.751   0.957  11.389 -0.3971 -0.0099  0.0853
 7178TIP3    H142949   2.751   0.880  11.332 -0.3831 -0.6433  0.9309
 7178TIP3    H242950   2.792   1.026  11.336  1.9241 -1.2243  0.1818
 7179TIP3   OH242951   4.367   1.001   0.499  0.7963 -0.4835 -0.2160
 7179TIP3    H142952   4.300   0.983   0.433 -1.6360 -1.2469  2.2856
 7179TIP3    H242953   4.380   1.096   0.494  1.4361 -0.6308 -2.3817
 7180TIP3   OH242954   5.622   3.427   5.814  0.1191 -0.4136  0.3482
 7180TIP3    H142955   5.658   3.495   5.871  1.1019 -0.6046 -0.0324
 7180TIP3    H242956   5.577   3.476   5.745  1.6716 -0.1088 -0.4739
 7181TIP3   OH242957   4.099   2.702  11.124  0.3023  0.1246  0.3806
 7181TIP3    H142958   4.093   2.662  11.037 -3.1595 -0.2195  0.6542
 7181TIP3    H242959   4.176   2.759  11.119  0.2265  0.1001 -2.8756
 7182TIP3   OH242960   3.598   6.767   5.232  0.3062  0.1849 -0.2644
 7182TIP3    H142961   3.596   6.745   5.325 -0.6527 -1.0024 -0.5354
 7182TIP3    H242962   3.520   6.821   5.219  1.5406  2.1480 -0.0160
 7183TIP3   OH242963   4.009   1.462  16.105  0.2314  0.4401 -0.0895
 7183TIP3    H142964   4.085   1.416  16.070  0.6576  0.4218  0.8171
 7183TIP3    H242965   3.939   1.397  16.102  0.2298  0.4747 -0.9875
 7184TIP3   OH242966   6.146   5.231  16.823 -0.0570 -0.2329 -0.3010
 7184TIP3    H142967   6.075   5.167  16.835 -1.0142  0.8109 -0.2352
 7184TIP3    H242968   6.135   5.262  16.733 -0.3982  0.7525  0.0709
 7185TIP3   OH242969   5.199   6.651   3.520  0.5394 -0.0154  0.9992
 7185TIP3    H142970   5.150   6.677   3.598 -0.0211 -1.3156  1.1093
 7185TIP3    H242971   5.291   6.651   3.547  0.2565 -1.7497  2.0884
 7186TIP3   OH242972   5.440   6.115   5.711 -0.3915 -0.1311  0.0165
 7186TIP3    H142973   5.434   6.145   5.802  1.6407 -1.0736  0.5171
 7186TIP3    H242974   5.507   6.170   5.672  0.5290 -1.3456 -0.1730
 7187TIP3   OH242975   6.769   0.430  12.847 -0.0282  0.2476  0.2838
 7187TIP3    H142976   6.778   0.468  12.759  0.4412  2.3044  1.1461
 7187TIP3    H242977   6.859   0.422  12.878 -0.1024 -1.8189  0.0956
 7188TIP3   OH242978   0.114   5.786  15.697 -0.6515  0.0647 -0.1220
 7188TIP3    H142979   0.153   5.826  15.775  1.1404  0.6992 -1.2846
 7188TIP3    H242980   0.106   5.693  15.720 -0.8493  0.3615  1.0683
 7189TIP3   OH242981   0.842   1.660  15.904  0.0239 -0.0249  0.2835
 7189TIP3    H142982   0.807   1.651  15.816  1.2231 -1.2745 -0.1053
 7189TIP3    H242983   0.767   1.684  15.958 -0.7561  0.5747 -1.0407
 7190TIP3   OH242984   4.211   5.658  12.883 -0.4804  0.0497  0.1590
 7190TIP3    H142985   4.269   5.619  12.948  1.3300  3.0381  0.5612
 7190TIP3    H242986   4.263   5.662  12.803 -0.5789  1.4948  0.1307
 7191TIP3   OH242987   1.365   0.816   5.753 -0.1501  0.7320 -0.7144
 7191TIP3    H142988   1.294   0.833   5.691 -0.2139  0.8381 -0.6132
 7191TIP3    H242989   1.367   0.894   5.808 -1.0009  0.0749  0.3016
 7192TIP3   OH242990   5.345   2.268   5.545  0.3975  0.0644  0.0461
 7192TIP3    H142991   5.373   2.236   5.631  0.4594  0.3300  0.1245
 7192TIP3    H242992   5.423   2.257   5.490  0.2850 -0.3310 -0.0375
 7193TIP3   OH242993   1.581   2.201   1.987  0.3230 -0.2196  0.1974
 7193TIP3    H142994   1.673   2.221   2.006 -0.3825  2.0396  1.5794
 7193TIP3    H242995   1.569   2.111   2.018  2.6188 -1.5381 -2.3012
 7194TIP3   OH242996   5.250   5.704  16.249  0.4879 -0.3912 -0.3413
 7194TIP3    H142997   5.201   5.698  16.167  0.2345 -1.4810 -0.1218
 7194TIP3    H242998   5.310   5.630  16.246  0.5527 -0.3733  0.4098
 7195TIP3   OH242999   5.127   6.363   5.982 -0.2504 -0.6321  0.7063
 7195TIP3    H143000   5.156   6.354   6.072  0.7315 -0.2096  0.4466
 7195TIP3    H243001   5.109   6.456   5.971  1.8836 -0.2509 -0.1473
 7196TIP3   OH243002   2.345   5.208  12.368  0.2573  0.4229 -0.7169
 7196TIP3    H143003   2.270   5.215  12.428  0.8686  0.0215  0.1097
 7196TIP3    H243004   2.348   5.116  12.343  0.0886  0.5630 -1.2643
 7197TIP3   OH243005   5.688   6.026  12.179  0.3603 -0.9456  0.2939
 7197TIP3    H143006   5.687   6.087  12.105  1.1980 -0.4012  0.7082
 7197TIP3    H243007   5.651   6.077  12.252 -1.6129 -1.8610 -0.0040
 7198TIP3   OH243008   6.654   0.140   5.522 -0.0365  0.2697  0.7743
 7198TIP3    H143009   6.638   0.166   5.431 -1.6796  2.6308  1.6511
 7198TIP3    H243010   6.682   0.220   5.566 -1.1242 -0.3524  2.7381
 7199TIP3   OH243011   3.758   5.986  11.916  0.2949  0.5410  0.2309
 7199TIP3    H143012   3.837   5.990  11.970 -0.3471 -0.9634  1.3526
 7199TIP3    H243013   3.767   5.904  11.867  0.3987  1.4022 -1.2582
 7200TIP3   OH243014   0.551   4.880   0.453  0.0858 -0.2999 -0.0025
 7200TIP3    H143015   0.549   4.824   0.376 -0.0585  0.0316 -0.2435
 7200TIP3    H243016   0.460   4.910   0.463 -0.0473 -0.9218  0.7274
 7201TIP3   OH243017   6.187   3.582   3.130  0.1894  0.2474  0.3269
 7201TIP3    H143018   6.246   3.644   3.086 -1.1662 -0.4288 -2.7397
 7201TIP3    H243019   6.100   3.604   3.095 -1.3423  0.6216  3.9882
 7202TIP3   OH243020   6.471   5.994  14.654  0.5824  0.1996  0.5431
 7202TIP3    H143021   6.479   6.063  14.588 -0.8944 -0.8662 -0.8340
 7202TIP3    H243022   6.444   6.040  14.733 -0.2194  1.2479 -0.3003
 7203TIP3   OH243023   1.963   2.143   3.300  0.6719 -0.1547 -0.6780
 7203TIP3    H143024   2.032   2.077   3.299  1.7374  0.9130 -1.5167
 7203TIP3    H243025   1.937   2.152   3.209  0.0198  0.0678 -0.4751
 7204TIP3   OH243026   2.737   2.504   3.669 -0.2141 -0.3395  0.0709
 7204TIP3    H143027   2.679   2.511   3.593 -1.6375  0.7229  1.1754
 7204TIP3    H243028   2.718   2.584   3.720  2.5968  0.3078  0.2629
 7205TIP3   OH243029   3.040   6.553  16.542  0.0022 -0.1943  0.1439
 7205TIP3    H143030   3.002   6.619  16.484 -0.9338 -0.5389  0.3429
 7205TIP3    H243031   2.977   6.544  16.613  2.0196  1.6684  2.3536
 7206TIP3   OH243032   4.833   1.446   0.350 -0.1388 -0.1909 -0.4110
 7206TIP3    H143033   4.772   1.399   0.292  1.1336 -1.2434 -0.9450
 7206TIP3    H243034   4.848   1.530   0.306 -0.2210 -0.4371 -0.9143
 7207TIP3   OH243035   0.921   1.949  14.078 -0.2405  0.0916  0.1545
 7207TIP3    H143036   0.940   1.858  14.056 -0.3579  0.3622 -1.1277
 7207TIP3    H243037   0.941   1.998  13.998 -1.3175  1.0447  0.4402
 7208TIP3   OH243038   2.317   0.433  15.875  0.0520 -0.7955 -0.1570
 7208TIP3    H143039   2.324   0.358  15.815  0.6335 -2.9032  2.3537
 7208TIP3    H243040   2.224   0.434  15.901  0.4855 -2.3805  1.7262
 7209TIP3   OH243041   0.906   1.555  17.172  0.8514 -0.0949 -0.6959
 7209TIP3    H143042   0.910   1.471  17.217  2.6096  0.4258  0.2215
 7209TIP3    H243043   0.839   1.543  17.105  1.0024 -2.2010 -0.5461
 7210TIP3   OH243044   2.003   4.794   1.104  0.3183  0.3647  0.6049
 7210TIP3    H143045   2.031   4.841   1.182  0.5114  3.5886 -1.2266
 7210TIP3    H243046   1.913   4.824   1.088  0.5535  0.4083 -0.8095
 7211TIP3   OH243047   1.271   1.241   5.841  0.4277  0.3623 -0.7488
 7211TIP3    H143048   1.177   1.251   5.831  0.3554 -0.0556 -0.5069
 7211TIP3    H243049   1.281   1.171   5.905  0.9010  0.6685 -0.4829
 7212TIP3   OH243050   5.984   2.203  17.029  0.2050 -0.4701 -0.5474
 7212TIP3    H143051   5.959   2.172  17.116  0.6213  1.4194  0.2782
 7212TIP3    H243052   6.037   2.132  16.994 -0.6269 -1.6154  0.3859
 7213TIP3   OH243053   5.372   1.981   1.382  0.5289 -0.1028 -0.0546
 7213TIP3    H143054   5.374   2.074   1.403 -0.8330 -0.2535  0.9157
 7213TIP3    H243055   5.339   1.939   1.462 -0.6640 -1.2040 -1.0686
 7214TIP3   OH243056   5.000   5.835  13.535  0.1738  0.4169  0.0364
 7214TIP3    H143057   4.980   5.742  13.540  0.8021  0.1682 -1.4735
 7214TIP3    H243058   4.977   5.860  13.446 -1.2234  2.0451  0.7815
 7215TIP3   OH243059   3.955   3.270   4.355 -0.2453 -0.0229 -0.3394
 7215TIP3    H143060   3.892   3.253   4.286 -0.0910  1.1848 -0.8085
 7215TIP3    H243061   4.018   3.331   4.315  1.7056 -1.8209 -0.1679
 7216TIP3   OH243062   2.618   3.383  15.377 -0.6888 -0.1400 -0.3510
 7216TIP3    H143063   2.558   3.410  15.448 -0.7576 -0.2197 -0.3781
 7216TIP3    H243064   2.585   3.428  15.300 -0.1634  0.5432 -0.1834
 7217TIP3   OH243065   2.592   3.616   2.147 -0.2747  0.4492  0.4386
 7217TIP3    H143066   2.661   3.666   2.190 -1.0901  1.3216  0.7728
 7217TIP3    H243067   2.631   3.530   2.131  1.0612  1.0913  0.1110
 7218TIP3   OH243068   5.852   1.890  16.644 -0.0815 -0.3477  0.1769
 7218TIP3    H143069   5.782   1.909  16.707  0.7656  0.0004  1.0219
 7218TIP3    H243070   5.933   1.896  16.694  0.4683 -3.0995 -0.2347
 7219TIP3   OH243071   0.031   2.664   0.679 -0.0798  0.8304 -0.1187
 7219TIP3    H143072   0.034   2.667   0.583 -1.6658  2.3837 -0.1877
 7219TIP3    H243073  -0.055   2.627   0.698 -0.1975  1.4970  0.6784
 7220TIP3   OH243074   4.076   4.170   3.431  0.5132 -0.4345  0.3770
 7220TIP3    H143075   4.034   4.119   3.500 -0.6816 -2.3682 -1.6456
 7220TIP3    H243076   4.160   4.125   3.416 -0.7703 -2.3352 -1.7779
 7221TIP3   OH243077   3.444   3.798   1.200  0.1648 -0.5550 -0.2090
 7221TIP3    H143078   3.496   3.744   1.260  0.5078 -0.4719 -0.4256
 7221TIP3    H243079   3.509   3.839   1.143  0.0204  1.1098  0.7625
 7222TIP3   OH243080   5.432   5.280  15.576 -0.8050 -0.6030 -0.3716
 7222TIP3    H143081   5.457   5.192  15.551 -1.9472 -1.3497  0.9860
 7222TIP3    H243082   5.515   5.327  15.587 -0.1597 -1.7747 -0.1338
 7223TIP3   OH243083   5.273   5.003  11.188 -0.2206  0.2581 -0.2355
 7223TIP3    H143084   5.254   4.920  11.144 -1.2735 -0.6282  1.7486
 7223TIP3    H243085   5.367   5.001  11.206 -0.3815 -0.9856  0.6245
 7224TIP3   OH243086   1.223   4.596  16.012 -0.1411 -0.0317 -0.5094
 7224TIP3    H143087   1.192   4.668  16.068  0.3801  0.3504 -0.7046
 7224TIP3    H243088   1.149   4.580  15.953  0.3266  1.5054 -1.5810
 7225TIP3   OH243089   6.685   6.127  16.794  0.0936  0.4898  0.3053
 7225TIP3    H143090   6.708   6.049  16.845  1.4191  0.4694 -0.2824
 7225TIP3    H243091   6.634   6.094  16.721 -1.7516  0.5098  1.5384
 7226TIP3   OH243092   1.091   1.626  15.630  0.3979 -0.4293  0.5487
 7226TIP3    H143093   1.019   1.589  15.580  0.9443  0.6302 -1.0878
 7226TIP3    H243094   1.155   1.556  15.636  0.0913 -0.7365  0.2675
 7227TIP3   OH243095   4.097   3.196   3.840  0.1713  0.2235  0.0126
 7227TIP3    H143096   4.135   3.138   3.906  0.2471 -1.4139 -1.3925
 7227TIP3    H243097   4.172   3.236   3.797  0.4127 -2.1722 -2.0259
 7228TIP3   OH243098   2.533   4.398   5.172  0.0835 -0.3016  0.1049
 7228TIP3    H143099   2.541   4.457   5.247  0.6754 -0.3720  0.1071
 7228TIP3    H243100   2.443   4.366   5.176  0.4395 -1.2478  1.4968
 7229TIP3   OH243101   5.021   1.324  12.502  0.4291  0.0034  0.3778
 7229TIP3    H143102   5.103   1.282  12.473 -0.5342 -0.5681 -1.6945
 7229TIP3    H243103   4.963   1.317  12.426 -1.5473  0.4297  1.7978
 7230TIP3   OH243104   4.173   5.480   4.219 -0.6835  0.9449 -0.2807
 7230TIP3    H143105   4.088   5.448   4.189 -0.0761 -1.9489  0.7082
 7230TIP3    H243106   4.152   5.556   4.274 -2.8239 -0.4479  0.9877
 7231TIP3   OH243107   6.696   2.343   4.486 -0.0160  0.5861 -0.6407
 7231TIP3    H143108   6.776   2.396   4.485  0.3132  0.4279  3.3273
 7231TIP3    H243109   6.634   2.394   4.538 -1.2413 -0.9455 -0.5281
 7232TIP3   OH243110   1.800   1.090   2.802 -0.4266  0.0284  0.6946
 7232TIP3    H143111   1.721   1.135   2.771 -0.1188  1.7331  2.2192
 7232TIP3    H243112   1.769   1.005   2.832 -1.0306 -0.9107 -2.2667
 7233TIP3   OH243113   5.156   6.229  13.697 -0.0373 -0.2597  0.2540
 7233TIP3    H143114   5.134   6.267  13.612 -2.4359 -1.5648  0.1832
 7233TIP3    H243115   5.187   6.141  13.677  0.3867 -0.2045  0.6648
 7234TIP3   OH243116   4.765   1.574  15.738 -0.2923 -0.2892  0.6373
 7234TIP3    H143117   4.827   1.539  15.674  0.2995  0.5331  0.7521
 7234TIP3    H243118   4.740   1.659  15.703 -2.8848 -1.3636 -0.4178
 7235TIP3   OH243119   5.362   4.504   2.091  0.3631 -0.0594  0.2914
 7235TIP3    H143120   5.347   4.598   2.102 -0.0547  0.0749 -1.0998
 7235TIP3    H243121   5.437   4.499   2.032  1.5187 -0.6508  1.7644
 7236TIP3   OH243122   3.228   3.096   4.858 -0.1045  0.2440  0.7378
 7236TIP3    H143123   3.140   3.102   4.822  0.3041  1.1807 -0.1863
 7236TIP3    H243124   3.216   3.067   4.948 -1.2767 -0.6623  0.3126
 7237TIP3   OH243125   3.198   5.808   1.469 -0.1835  0.7858 -0.1794
 7237TIP3    H143126   3.175   5.763   1.550  2.6302  0.7386  0.6936
 7237TIP3    H243127   3.237   5.739   1.414 -2.0073  0.8255 -1.5963
 7238TIP3   OH243128   5.891   4.307  10.262 -0.1291 -0.0878 -0.3130
 7238TIP3    H143129   5.868   4.379  10.320  1.0448  1.8979 -2.1870
 7238TIP3    H243130   5.828   4.313  10.189  1.9667  1.1923 -2.1202
 7239TIP3   OH243131   4.186   1.891  14.478 -0.0047  0.0856  0.2060
 7239TIP3    H143132   4.245   1.915  14.549 -0.9586  2.5592  0.2490
 7239TIP3    H243133   4.104   1.867  14.521 -0.3980  1.0116  0.0047
 7240TIP3   OH243134   5.269   6.369   5.742  0.2723  0.3524 -0.5748
 7240TIP3    H143135   5.208   6.345   5.812 -1.5889 -0.6470 -2.4355
 7240TIP3    H243136   5.260   6.463   5.734  1.2057  0.6352  1.0777
 7241TIP3   OH243137   3.841   4.246  11.089  0.2607  0.0720 -0.4361
 7241TIP3    H143138   3.795   4.264  11.007  0.7235 -0.2852 -0.7821
 7241TIP3    H243139   3.784   4.282  11.157  0.1400  0.8765 -0.9522
 7242TIP3   OH243140   2.739   0.134  14.260  0.1029  0.6251 -0.0366
 7242TIP3    H143141   2.799   0.059  14.267 -0.5063  0.1989  0.7094
 7242TIP3    H243142   2.759   0.188  14.336 -0.9891  0.0701  0.6752
 7243TIP3   OH243143   4.075   3.117  10.325  0.3646 -0.3061 -0.6373
 7243TIP3    H143144   4.098   3.114  10.232 -2.5935  1.8253 -1.5620
 7243TIP3    H243145   4.097   3.206  10.353 -0.5619 -0.3063  0.1554
 7244TIP3   OH243146   1.463   6.031   4.001 -0.5357  0.1368 -0.4954
 7244TIP3    H143147   1.410   6.060   3.927 -0.8654  2.7431  0.6301
 7244TIP3    H243148   1.412   6.056   4.078  2.2108  2.8245  0.6606
 7245TIP3   OH243149   1.052   1.162   1.501 -0.2999 -0.0531 -0.1260
 7245TIP3    H143150   0.997   1.183   1.425 -1.9711  0.3547  1.1551
 7245TIP3    H243151   0.990   1.150   1.573  1.2488 -0.5103  1.1750
 7246TIP3   OH243152   6.696   6.475   4.445  0.4591 -0.0647  0.3447
 7246TIP3    H143153   6.601   6.489   4.446  0.5915  0.8608  0.2827
 7246TIP3    H243154   6.731   6.551   4.399  1.3618  0.4943  1.8958
 7247TIP3   OH243155   0.531   4.523   2.844 -0.4334  0.0529  0.0947
 7247TIP3    H143156   0.576   4.607   2.840 -0.6912  0.2154  0.5443
 7247TIP3    H243157   0.601   4.458   2.843 -0.2562  0.2345 -1.0391
 7248TIP3   OH243158   6.656   3.460   6.148 -0.0714 -0.6662 -0.4446
 7248TIP3    H143159   6.706   3.386   6.182  2.2861  0.4158 -1.3121
 7248TIP3    H243160   6.625   3.432   6.062  1.4639 -0.4510 -1.1026
 7249TIP3   OH243161   5.628   4.905   3.042  0.3188 -0.2616 -0.0785
 7249TIP3    H143162   5.712   4.939   3.010 -0.1142  0.9929  0.0436
 7249TIP3    H243163   5.627   4.813   3.016  0.9286  0.1668 -1.7342
 7250TIP3   OH243164   0.715   4.858  16.496 -0.1014  0.2307 -0.3241
 7250TIP3    H143165   0.663   4.854  16.576  0.6598 -0.5312  0.1436
 7250TIP3    H243166   0.765   4.939  16.504  0.5293 -0.2186  0.3263
 7251TIP3   OH243167   0.793   2.171   0.500  0.0659 -0.2956 -0.8887
 7251TIP3    H143168   0.837   2.251   0.529 -0.4070 -0.5650  0.7013
 7251TIP3    H243169   0.817   2.105   0.566 -1.6493 -0.7661 -0.6716
 7252TIP3   OH243170   1.566   1.499  14.907 -0.4686  0.8862  0.1853
 7252TIP3    H143171   1.495   1.544  14.953  0.0298  1.4808  0.3873
 7252TIP3    H243172   1.595   1.562  14.840 -1.7249 -0.2691 -1.5164
 7253TIP3   OH243173   5.342   1.468  12.335 -0.1945  0.2867  0.0624
 7253TIP3    H143174   5.341   1.374  12.316 -0.4347  0.3857 -0.4429
 7253TIP3    H243175   5.386   1.476  12.420  1.4310 -0.1393 -0.6973
 7254TIP3   OH243176   5.928   1.050   4.817 -0.3246 -0.1747 -0.4613
 7254TIP3    H143177   5.864   1.110   4.855  0.3463 -0.5022  1.2795
 7254TIP3    H243178   6.007   1.063   4.870  0.4946 -1.0743 -1.4205
 7255TIP3   OH243179   5.415   3.048  15.265 -0.0468 -0.1735  0.6027
 7255TIP3    H143180   5.333   3.014  15.229  0.5306 -0.1483 -0.8298
 7255TIP3    H243181   5.473   2.973  15.269  0.0308 -0.0866  1.0675
 7256TIP3   OH243182   4.832   5.697   1.664  0.9651 -0.7585 -0.2986
 7256TIP3    H143183   4.804   5.606   1.662  1.3717 -0.9468  1.4681
 7256TIP3    H243184   4.927   5.694   1.653  0.9673 -0.5234 -0.3666
 7257TIP3   OH243185   2.106   5.824   3.991  0.0261 -0.4212 -0.5964
 7257TIP3    H143186   2.165   5.757   3.956  1.2352 -0.0025  0.5540
 7257TIP3    H243187   2.082   5.877   3.914  1.1614 -0.5995 -1.0981
 7258TIP3   OH243188   1.392   6.636   1.342  0.4293  0.4428 -0.4600
 7258TIP3    H143189   1.337   6.642   1.420  1.7817 -2.8967  0.9400
 7258TIP3    H243190   1.331   6.645   1.268 -1.0664  2.4427  0.9412
 7259TIP3   OH243191   0.084   4.640   2.942  0.1347 -0.1221  0.2924
 7259TIP3    H143192  -0.006   4.612   2.958 -0.0868 -1.1366 -2.2301
 7259TIP3    H243193   0.083   4.734   2.959 -2.1900  0.4535 -2.2214
 7260TIP3   OH243194   2.140   6.519   3.853  0.3366 -0.0655  0.7162
 7260TIP3    H143195   2.228   6.482   3.853  0.5630  0.4579  1.0305
 7260TIP3    H243196   2.087   6.454   3.900  0.6682 -0.1316  1.0017
 7261TIP3   OH243197   6.447   0.429  12.735  0.8070  0.2103 -0.2116
 7261TIP3    H143198   6.494   0.345  12.741 -1.1177 -0.8892  0.2248
 7261TIP3    H243199   6.407   0.441  12.821 -0.2808  0.7430 -0.7694
 7262TIP3   OH243200   5.131   2.488   4.859  0.7856  0.2106  0.1989
 7262TIP3    H143201   5.175   2.497   4.774  0.6084  0.0919  0.0959
 7262TIP3    H243202   5.059   2.427   4.844  0.9279 -0.0391  0.5031
 7263TIP3   OH243203   4.383   2.422   2.046 -0.5069 -0.1926  0.3024
 7263TIP3    H143204   4.327   2.347   2.064  0.2832 -1.1261 -0.9456
 7263TIP3    H243205   4.468   2.384   2.021  0.5647  1.1592  1.6453
 7264TIP3   OH243206   5.791   5.721   1.097 -0.3677  0.1127  0.2054
 7264TIP3    H143207   5.797   5.793   1.160  1.5824 -0.4935  0.7740
 7264TIP3    H243208   5.801   5.762   1.012  0.4383  0.5618  0.5113
 7265TIP3   OH243209   5.883   2.603   0.893 -1.2077 -0.0995 -0.1443
 7265TIP3    H143210   5.948   2.671   0.880 -1.4290  0.0167 -0.6577
 7265TIP3    H243211   5.879   2.591   0.988 -0.5816  0.0251 -0.1007
 7266TIP3   OH243212   6.058   4.106  15.957 -0.7148 -0.2326  0.1294
 7266TIP3    H143213   6.079   4.091  16.049  1.3424 -0.5231 -0.3362
 7266TIP3    H243214   6.122   4.053  15.909 -0.1407  1.7955 -1.4837
 7267TIP3   OH243215   5.308   4.570  10.843 -0.1399  0.0905 -0.2210
 7267TIP3    H143216   5.293   4.579  10.937  2.4013 -2.9766  0.6753
 7267TIP3    H243217   5.239   4.511  10.813 -1.1820  1.3760 -0.4130
 7268TIP3   OH243218   3.723   1.276  12.329  0.1772  0.2601  0.2785
 7268TIP3    H143219   3.672   1.354  12.350  0.6523  0.7432 -0.3231
 7268TIP3    H243220   3.658   1.211  12.303 -0.0874  1.4144 -2.2583
 7269TIP3   OH243221   1.072   5.952   1.430  0.4107 -0.4345  0.1289
 7269TIP3    H143222   1.044   5.926   1.518  0.9722 -2.2370 -0.1933
 7269TIP3    H243223   1.039   6.042   1.420 -2.5045 -1.3017  0.9512
 7270TIP3   OH243224   2.494   1.540  10.673 -0.9583 -0.4197 -0.4280
 7270TIP3    H143225   2.574   1.547  10.621 -1.7480 -2.3995 -2.0904
 7270TIP3    H243226   2.509   1.465  10.730 -0.8803  0.4798  0.7590
 7271TIP3   OH243227   5.601   2.320   2.986  0.4314  0.1904  0.1944
 7271TIP3    H143228   5.544   2.396   2.969 -0.4708 -0.3574  0.7099
 7271TIP3    H243229   5.593   2.305   3.080 -2.3917 -2.8151 -0.3764
 7272TIP3   OH243230   3.343   0.028   1.382 -0.1563  0.4390 -0.8618
 7272TIP3    H143231   3.357  -0.031   1.308  1.6700 -0.6416  0.2705
 7272TIP3    H243232   3.431   0.048   1.414 -0.8741  1.1745  0.7801
 7273TIP3   OH243233   5.281   0.250  16.335  0.3309  0.3088 -0.0192
 7273TIP3    H143234   5.277   0.165  16.291  0.2958  0.1267  0.3274
 7273TIP3    H243235   5.226   0.307  16.281  0.6485  0.2043 -0.4541
 7274TIP3   OH243236   5.304   1.070   4.438 -0.3170 -0.4680  0.1794
 7274TIP3    H143237   5.226   1.107   4.480  0.7214  0.0246  1.7826
 7274TIP3    H243238   5.292   0.975   4.443 -0.9933 -0.3905  0.0486
 7275TIP3   OH243239   2.980   3.707   2.511 -0.2189 -0.3056 -0.0461
 7275TIP3    H143240   2.984   3.787   2.563  0.6633 -1.5301  1.9232
 7275TIP3    H243241   3.008   3.733   2.424  2.6338  1.1088  1.1690
 7276TIP3   OH243242   0.063   1.063  14.037  0.2160  0.0228 -0.2941
 7276TIP3    H143243  -0.023   1.036  14.070  0.6528  0.6294  1.4289
 7276TIP3    H243244   0.043   1.121  13.963 -0.8093 -0.8671 -0.7500
 7277TIP3   OH243245   5.761   2.421  14.745 -0.0446 -0.5457  0.0418
 7277TIP3    H143246   5.834   2.462  14.699 -0.5455 -1.1823 -1.3842
 7277TIP3    H243247   5.799   2.343  14.786  0.3635 -0.0869  0.5489
 7278TIP3   OH243248   4.305   4.456  11.621  0.2314  0.2654 -0.1562
 7278TIP3    H143249   4.262   4.505  11.691  0.3785  1.5082 -0.9246
 7278TIP3    H243250   4.392   4.435  11.656  0.4096  1.1342 -0.0724
 7279TIP3   OH243251   6.260   4.468  17.093  0.0923 -0.0635 -0.1246
 7279TIP3    H143252   6.214   4.426  17.166  0.8179 -2.4773 -0.9450
 7279TIP3    H243253   6.213   4.438  17.015  1.1566 -0.0562 -0.7869
 7280TIP3   OH243254   4.441   3.319  11.341 -0.2604 -0.0980  0.1878
 7280TIP3    H143255   4.431   3.367  11.259  1.2781 -1.7077 -1.0321
 7280TIP3    H243256   4.353   3.291  11.364 -0.6222 -0.3009 -1.3725
 7281TIP3   OH243257   3.775   4.800   0.602 -0.1229 -0.0743  0.4110
 7281TIP3    H143258   3.705   4.857   0.633  0.3410  1.3240 -1.0185
 7281TIP3    H243259   3.824   4.777   0.681 -0.2308  1.6384  0.9994
 7282TIP3   OH243260   2.746   4.257  11.656  0.2307 -0.9189 -0.2745
 7282TIP3    H143261   2.670   4.224  11.704 -0.3839  1.5236  0.5544
 7282TIP3    H243262   2.710   4.322  11.596  1.6501  0.2754  0.1181
 7283TIP3   OH243263   4.277   3.770  14.248 -0.1601 -0.6720 -0.0968
 7283TIP3    H143264   4.217   3.770  14.173 -1.1285 -2.3764  0.6337
 7283TIP3    H243265   4.340   3.839  14.227 -0.5995 -0.8519 -2.3197
 7284TIP3   OH243266   2.249   3.017  13.108 -0.0329  0.5326 -0.6877
 7284TIP3    H143267   2.230   2.925  13.092 -1.7598  0.8465 -0.6752
 7284TIP3    H243268   2.343   3.025  13.093  0.7254 -1.7737  1.9328
 7285TIP3   OH243269   1.164   3.215   0.837 -0.2475 -0.2349  0.1261
 7285TIP3    H143270   1.193   3.124   0.835 -1.0071 -0.5202  1.0478
 7285TIP3    H243271   1.148   3.238   0.746  2.2650 -0.2295 -0.3861
 7286TIP3   OH243272   4.474   6.776   2.855 -0.2170  0.3535  0.7218
 7286TIP3    H143273   4.529   6.743   2.926  2.3482  0.8958 -0.8849
 7286TIP3    H243274   4.481   6.710   2.786 -3.9461 -0.9691  1.3684
 7287TIP3   OH243275   0.740   2.041   3.183  0.2448  0.1796 -0.0236
 7287TIP3    H143276   0.812   1.980   3.198 -0.3449 -0.6562 -0.5127
 7287TIP3    H243277   0.719   2.076   3.269  0.7315 -0.1450  0.2311
 7288TIP3   OH243278   6.684   6.794  14.034 -0.0073 -0.4256 -0.3935
 7288TIP3    H143279   6.778   6.785  14.046 -0.1437 -3.8374 -0.8154
 7288TIP3    H243280   6.673   6.809  13.940  0.0958 -0.3348 -0.3912
 7289TIP3   OH243281   3.539   1.725  15.162 -0.1030  0.1376 -0.1439
 7289TIP3    H143282   3.566   1.773  15.241  0.9120 -1.6208  0.6290
 7289TIP3    H243283   3.488   1.651  15.194 -0.3987 -0.1347 -1.1987
 7290TIP3   OH243284   0.189   3.970   4.288 -0.0882  0.3258 -0.2374
 7290TIP3    H143285   0.182   4.037   4.355 -0.4923  0.1917 -0.1426
 7290TIP3    H243286   0.164   4.014   4.207  0.6944  0.5660 -0.3510
 7291TIP3   OH243287   1.403   6.306   5.506  0.2150 -0.4599  0.3092
 7291TIP3    H143288   1.431   6.237   5.567 -0.7870 -1.3063 -0.1585
 7291TIP3    H243289   1.404   6.386   5.558  0.3254 -1.0062  1.1694
 7292TIP3   OH243290   4.917   2.711  16.478  0.3938 -0.5154  0.2388
 7292TIP3    H143291   4.959   2.767  16.414  0.9412 -1.7141 -0.4761
 7292TIP3    H243292   4.989   2.675  16.530 -0.1111  2.6405  3.5442
 7293TIP3   OH243293   1.140   1.959  15.967 -0.7054 -0.0070  0.1212
 7293TIP3    H143294   1.193   1.986  15.892 -1.2987  1.6540  0.2637
 7293TIP3    H243295   1.120   1.867  15.950  2.5990 -0.9059  0.2985
 7294TIP3   OH243296   3.761   5.498   3.879 -0.1159 -0.1898 -0.3384
 7294TIP3    H143297   3.836   5.557   3.889 -0.5347  0.4736 -1.0223
 7294TIP3    H243298   3.799   5.416   3.846  0.3021  0.1662 -0.7563
 7295TIP3   OH243299   1.385   3.834   3.539  0.1614  0.1455 -0.0114
 7295TIP3    H143300   1.388   3.923   3.502 -2.6657  0.4604  0.2847
 7295TIP3    H243301   1.400   3.847   3.633 -1.8743  0.5957  0.2960
 7296TIP3   OH243302   4.498   5.230  15.221  0.5418  0.0017 -0.0425
 7296TIP3    H143303   4.473   5.320  15.198  1.2786  0.2419  0.0888
 7296TIP3    H243304   4.515   5.233  15.315  0.2225 -0.3570  0.0252
 7297TIP3   OH243305   6.371   4.714  13.335 -0.0372 -0.0116 -0.0743
 7297TIP3    H143306   6.458   4.694  13.368 -0.5017  1.3705  2.2074
 7297TIP3    H243307   6.386   4.776  13.263  0.8758 -0.4136 -0.2461
 7298TIP3   OH243308   2.723   4.597  16.764 -0.3654  0.1210 -0.5102
 7298TIP3    H143309   2.805   4.549  16.756 -0.4218  0.2179 -1.9111
 7298TIP3    H243310   2.722   4.656  16.688 -1.4931  0.4768 -0.2401
 7299TIP3   OH243311   5.489   1.660   3.531  0.4410  0.5855  0.2274
 7299TIP3    H143312   5.500   1.748   3.567  0.2544  0.7571 -0.1228
 7299TIP3    H243313   5.410   1.666   3.478  0.0760  0.0377  0.7030
 7300TIP3   OH243314   5.178   2.590  14.803 -0.2541  0.6714 -0.3182
 7300TIP3    H143315   5.089   2.623  14.819 -0.5291  0.4780 -1.4240
 7300TIP3    H243316   5.235   2.656  14.844 -0.8740  1.3021 -0.4572
 7301TIP3   OH243317   2.809   3.459  14.468 -0.1587  0.2489  0.0353
 7301TIP3    H143318   2.749   3.528  14.439 -0.7803 -0.5577 -0.6541
 7301TIP3    H243319   2.797   3.388  14.404  1.1613 -0.1360  0.1836
 7302TIP3   OH243320   3.128   0.296  13.089  0.4335 -0.0297 -0.3759
 7302TIP3    H143321   3.209   0.339  13.062  0.0294  1.2831  0.4165
 7302TIP3    H243322   3.065   0.318  13.020  0.4618 -0.1417 -0.4384
 7303TIP3   OH243323   1.795   0.964  16.683  0.1789  0.1896 -0.2584
 7303TIP3    H143324   1.785   1.016  16.603  0.3474  0.7644  0.0953
 7303TIP3    H243325   1.888   0.942  16.686  0.5867  1.8691  0.8163
 7304TIP3   OH243326   3.252   2.828   3.303 -0.1189  0.1458 -0.0744
 7304TIP3    H143327   3.280   2.905   3.353 -1.3645  1.0337 -0.6743
 7304TIP3    H243328   3.163   2.850   3.274 -0.7042 -1.7569  0.1754
 7305TIP3   OH243329   2.993   1.225   5.409  0.2735  0.2351 -0.0186
 7305TIP3    H143330   2.945   1.296   5.453  1.2462  0.2324  1.1056
 7305TIP3    H243331   3.082   1.259   5.399  0.5213 -0.4794 -0.3177
 7306TIP3   OH243332   3.595   2.462  16.561  0.1055 -0.0785 -0.1984
 7306TIP3    H143333   3.685   2.492  16.555  0.2203 -0.1759  0.9018
 7306TIP3    H243334   3.549   2.530  16.611  0.0456 -0.9990  1.0414
 7307TIP3   OH243335   6.522   2.906  13.028  0.0786 -0.1883  0.3628
 7307TIP3    H143336   6.538   2.910  12.933 -0.2662 -1.4828  0.2298
 7307TIP3    H243337   6.546   2.993  13.060  0.1487  0.2880 -0.9220
 7308TIP3   OH243338   5.787   4.145   1.794 -0.1735  0.3821 -0.0237
 7308TIP3    H143339   5.801   4.110   1.706 -0.1828  1.5439 -0.4992
 7308TIP3    H243340   5.843   4.091   1.851 -0.2691 -0.4584 -0.7118
 7309TIP3   OH243341   5.076   5.284  14.158  0.5624 -0.3765  0.5191
 7309TIP3    H143342   5.165   5.293  14.193  0.7915  0.8191 -0.3250
 7309TIP3    H243343   5.081   5.209  14.100  0.9833 -0.4095  0.5915
 7310TIP3   OH243344   5.193   4.205   5.051  0.1679 -0.3434  0.1814
 7310TIP3    H143345   5.144   4.273   5.004 -0.3137 -1.2943 -0.7326
 7310TIP3    H243346   5.131   4.171   5.116  0.6231  0.5164  1.1022
 7311TIP3   OH243347   4.525   2.922   2.909  0.3313  0.2087  0.2132
 7311TIP3    H143348   4.525   2.863   2.833  1.7954  0.4492  0.0097
 7311TIP3    H243349   4.432   2.940   2.924 -0.0012  0.0529 -1.4438
 7312TIP3   OH243350   2.218   1.483  12.146 -0.0116 -0.1207  0.4657
 7312TIP3    H143351   2.132   1.495  12.105 -0.3715  2.2432  1.7344
 7312TIP3    H243352   2.199   1.473  12.239  1.0663  0.5610  0.7795
 7313TIP3   OH243353   4.005   1.165  13.630 -0.1450  0.6994  0.1290
 7313TIP3    H143354   3.930   1.225  13.626  0.8894  2.0195 -0.3420
 7313TIP3    H243355   4.026   1.160  13.723  0.7796  2.4442  0.0525
 7314TIP3   OH243356   4.596   0.806  10.996 -0.6811 -0.0602  0.4405
 7314TIP3    H143357   4.523   0.860  10.966  1.0449  0.5745 -3.0158
 7314TIP3    H243358   4.619   0.752  10.921  1.3244 -1.5267  1.9885
 7315TIP3   OH243359   0.659   3.588   1.732  0.0159  0.5725  0.1127
 7315TIP3    H143360   0.680   3.621   1.819 -1.0593  0.3733  0.4681
 7315TIP3    H243361   0.607   3.658   1.692  0.5952  0.7056 -0.4097
 7316TIP3   OH243362   4.654   0.466  12.762 -0.4755 -0.3815  0.0987
 7316TIP3    H143363   4.581   0.523  12.738 -2.2733 -1.6528  2.1751
 7316TIP3    H243364   4.655   0.467  12.858  0.6158 -2.3706  0.1701
 7317TIP3   OH243365   2.039   6.055  13.610  0.1909  0.1766  0.7530
 7317TIP3    H143366   2.120   6.105  13.605  1.9655 -2.1904  3.0553
 7317TIP3    H243367   2.067   5.967  13.635 -3.0556 -0.9364  0.8718
 7318TIP3   OH243368   2.013   2.877   2.028 -0.0287 -0.2352  0.1975
 7318TIP3    H143369   1.999   2.934   2.103  0.4530 -0.4914  0.4895
 7318TIP3    H243370   2.075   2.924   1.973  2.3507 -1.4720  1.6239
 7319TIP3   OH243371   4.578   0.028  15.901  0.2467 -0.0991 -0.5128
 7319TIP3    H143372   4.523  -0.046  15.875 -2.0378  1.6964 -1.0977
 7319TIP3    H243373   4.586   0.081  15.823  0.1606  1.2587  0.3709
 7320TIP3   OH243374   1.460   5.116  16.319  0.3961  0.2074  0.2211
 7320TIP3    H143375   1.384   5.124  16.261  1.8584 -1.0438 -2.0031
 7320TIP3    H243376   1.489   5.206  16.334  0.3380  0.5487 -1.5449
 7321TIP3   OH243377   3.511   2.811  11.678 -0.0791  0.6385 -0.4597
 7321TIP3    H143378   3.563   2.892  11.683  0.2952  0.4935 -1.7126
 7321TIP3    H243379   3.431   2.837  11.633  0.1545  0.2774 -1.1056
 7322TIP3   OH243380   4.604   1.255  16.472  0.0416  0.4852 -0.2083
 7322TIP3    H143381   4.597   1.302  16.555  2.0286 -0.6463  0.6681
 7322TIP3    H243382   4.695   1.265  16.446 -0.1673 -0.5033 -1.4526
 7323TIP3   OH243383   5.900   5.991   3.949 -0.3295 -0.0055  0.1017
 7323TIP3    H143384   5.976   6.042   3.976  0.4487 -0.6236 -0.8568
 7323TIP3    H243385   5.826   6.051   3.957  0.2553  0.5973  1.0607
 7324TIP3   OH243386   4.722   0.302  13.819 -0.3581  0.6755  0.2321
 7324TIP3    H143387   4.768   0.332  13.897 -0.5303 -1.4506  1.2091
 7324TIP3    H243388   4.756   0.214  13.803 -2.1179  0.0973 -0.6077
 7325TIP3   OH243389   5.529   3.040  12.025 -0.0126 -0.4168  0.2846
 7325TIP3    H143390   5.460   3.028  11.961  1.0761 -0.2705 -0.9721
 7325TIP3    H243391   5.502   2.988  12.100 -2.0165  0.5489  0.2819
 7326TIP3   OH243392   4.531   2.474   0.371  0.4026 -0.7837 -0.3994
 7326TIP3    H143393   4.463   2.512   0.426  0.1695  2.2864 -2.5468
 7326TIP3    H243394   4.484   2.412   0.314  0.4113 -2.8029  1.6491
 7327TIP3   OH243395   1.423   6.476   5.751 -0.4611 -0.2344  0.2221
 7327TIP3    H143396   1.390   6.463   5.840  0.8706 -3.9965  0.3601
 7327TIP3    H243397   1.514   6.505   5.763 -0.7564  0.8124  0.0178
 7328TIP3   OH243398   1.154   6.511   5.623 -0.2055  0.4621 -0.1212
 7328TIP3    H143399   1.135   6.418   5.613  1.3191  0.0223  0.6767
 7328TIP3    H243400   1.244   6.513   5.656 -0.7704  2.1492  1.4854
 7329TIP3   OH243401   5.157   2.963   3.136  0.2717  0.0627 -0.2879
 7329TIP3    H143402   5.092   2.895   3.154  0.5714 -0.2584 -0.3932
 7329TIP3    H243403   5.119   3.013   3.063  0.7902 -1.0488 -1.3646
 7330TIP3   OH243404   2.360   2.141   0.732 -0.4226 -0.0703 -0.2384
 7330TIP3    H143405   2.323   2.096   0.656 -2.2292  0.2825  0.3995
 7330TIP3    H243406   2.348   2.234   0.714  2.8082  0.2911 -1.2982
 7331TIP3   OH243407   2.546   4.446  11.550 -0.4836  0.0615  0.0882
 7331TIP3    H143408   2.515   4.391  11.623  1.1510 -0.1955  0.6503
 7331TIP3    H243409   2.560   4.532  11.589 -1.2202  0.3745 -0.3354
 7332TIP3   OH243410   1.121   4.222  10.940 -0.2042 -0.3228 -0.4458
 7332TIP3    H143411   1.171   4.289  10.893 -0.9579 -0.3376 -1.3007
 7332TIP3    H243412   1.100   4.157  10.873  0.4020 -1.3644  0.3499
 7333TIP3   OH243413   4.642   6.786  13.958 -0.3962  0.5069 -0.9204
 7333TIP3    H143414   4.583   6.726  13.913  0.3973 -0.7076 -0.3960
 7333TIP3    H243415   4.700   6.819  13.889  1.6634 -2.3342 -0.7559
 7334TIP3   OH243416   0.390   1.521  14.857 -0.2157 -0.0458  0.2362
 7334TIP3    H143417   0.295   1.532  14.847 -0.0359  1.4578 -0.0438
 7334TIP3    H243418   0.428   1.570  14.784  0.7880  0.0350  0.7907
 7335TIP3   OH243419   6.309   5.012  12.510 -0.4464 -0.4916 -0.4522
 7335TIP3    H143420   6.374   4.998  12.579  0.1015 -0.0180 -0.8637
 7335TIP3    H243421   6.251   5.079  12.546 -0.0663 -0.1246 -0.5013
 7336TIP3   OH243422   5.688   6.532  11.254  0.0746  0.1754 -0.6097
 7336TIP3    H143423   5.776   6.565  11.234  0.0584 -0.0938 -1.1366
 7336TIP3    H243424   5.650   6.510  11.169 -0.4322  0.1041 -0.3696
 7337TIP3   OH243425   4.999   2.952   2.889  0.0341 -0.0040 -0.2218
 7337TIP3    H143426   4.924   3.002   2.858  0.5124  0.7099 -0.2548
 7337TIP3    H243427   4.961   2.882   2.942 -0.6921 -0.1806 -0.9575
 7338TIP3   OH243428   1.914   6.053  12.671 -0.0899  0.0335  0.3128
 7338TIP3    H143429   1.828   6.013  12.665 -0.1662  0.1202  0.7740
 7338TIP3    H243430   1.900   6.144  12.645  0.1462 -0.3022 -1.0650
 7339TIP3   OH243431   1.348   1.276   0.884 -0.7271  0.2671 -0.0127
 7339TIP3    H143432   1.342   1.371   0.898 -1.6521  0.2029  0.0316
 7339TIP3    H243433   1.439   1.255   0.908 -1.0186  0.8485  1.7512
 7340TIP3   OH243434   0.081   4.128  12.705  0.4914  0.2297 -1.0168
 7340TIP3    H143435   0.090   4.213  12.747  2.8253 -0.4421  0.0170
 7340TIP3    H243436   0.085   4.147  12.611 -0.7890  1.3810 -0.8690
 7341TIP3   OH243437   1.438   6.106   5.237  0.6556 -0.3005  0.0673
 7341TIP3    H143438   1.506   6.171   5.255  1.2915 -1.3498  1.7104
 7341TIP3    H243439   1.404   6.082   5.324 -0.4439 -1.2269 -0.5898
 7342TIP3   OH243440   5.802   1.528  15.247 -0.2487 -0.3103 -0.9380
 7342TIP3    H143441   5.784   1.501  15.337 -2.6481 -0.5327 -1.3916
 7342TIP3    H243442   5.897   1.531  15.240 -0.0057 -0.8152  1.4331
 7343TIP3   OH243443   1.734   5.940   3.667 -0.0461 -0.0985  0.0884
 7343TIP3    H143444   1.659   5.932   3.607  0.1537  0.3398 -0.2337
 7343TIP3    H243445   1.779   5.856   3.662 -0.4085 -0.2962  0.1348
 7344TIP3   OH243446   3.695   4.024   2.080  0.6409  0.2829  0.5900
 7344TIP3    H143447   3.725   3.987   2.163  0.4632 -0.1171  0.4785
 7344TIP3    H243448   3.638   3.957   2.043  0.7690  0.4316  0.1147
 7345TIP3   OH243449   2.746   3.313  13.992 -0.2167 -0.2353  0.0205
 7345TIP3    H143450   2.652   3.319  13.976 -0.3069 -1.2699  0.0634
 7345TIP3    H243451   2.783   3.392  13.952 -0.8393 -0.9496 -2.1586
 7346TIP3   OH243452   2.850   6.748  13.563 -0.0624  0.7219 -0.8229
 7346TIP3    H143453   2.916   6.815  13.547  1.5029 -0.7699 -0.9578
 7346TIP3    H243454   2.894   6.666  13.538 -2.2070 -0.2590 -1.5690
 7347TIP3   OH243455   1.737   3.437   3.025 -0.3926 -0.5481 -0.2128
 7347TIP3    H143456   1.673   3.442   3.095  1.0005  0.0795  1.0541
 7347TIP3    H243457   1.684   3.433   2.945 -1.9917  0.7354  0.7220
 7348TIP3   OH243458   1.212   3.916   2.309 -0.4245 -0.3793  0.2547
 7348TIP3    H143459   1.181   3.882   2.225 -0.6702 -1.0083  0.5982
 7348TIP3    H243460   1.133   3.923   2.363 -0.4234  0.9765  0.1154
 7349TIP3   OH243461   0.427   1.961   2.814  0.2645 -0.2463 -0.2055
 7349TIP3    H143462   0.465   1.879   2.782 -0.8286 -1.8947  2.4087
 7349TIP3    H243463   0.347   1.972   2.762  0.7509 -0.4530 -1.0158
 7350TIP3   OH243464   6.017   4.073   2.281 -0.3569  0.0817  0.3618
 7350TIP3    H143465   6.044   4.162   2.256 -1.0693  0.5940  1.3296
 7350TIP3    H243466   5.922   4.073   2.269 -0.1756 -1.1628 -1.4191
 7351TIP3   OH243467   4.609   3.439  17.162  0.2023 -0.5789  0.2016
 7351TIP3    H143468   4.516   3.421  17.176 -0.4384  2.1066 -0.0673
 7351TIP3    H243469   4.625   3.413  17.071 -0.6138  0.1113 -0.1478
 7352TIP3   OH243470   0.241   5.438  15.195 -0.4882  0.3651 -0.1250
 7352TIP3    H143471   0.221   5.525  15.231  0.3440  1.2240 -1.6480
 7352TIP3    H243472   0.335   5.439  15.182 -0.7365  0.1234 -2.3175
 7353TIP3   OH243473   4.471   2.397  12.962  0.2421 -0.7104  0.5559
 7353TIP3    H143474   4.410   2.401  13.035  0.2860 -0.7204  0.5936
 7353TIP3    H243475   4.489   2.488  12.940 -1.4639 -0.6726 -0.8777
 7354TIP3   OH243476   4.976   6.739  15.295  0.1642 -0.2839 -0.2029
 7354TIP3    H143477   4.922   6.665  15.267 -1.3251  0.9196 -0.5958
 7354TIP3    H243478   4.982   6.730  15.390 -1.9304  0.3237  0.0266
 7355TIP3   OH243479   4.042   0.334   4.396  0.0917 -0.2462  0.0568
 7355TIP3    H143480   4.083   0.383   4.467 -0.6403  2.7352 -1.3968
 7355TIP3    H243481   3.948   0.336   4.417 -0.0757  0.1989 -0.7179
 7356TIP3   OH243482   5.249   1.641   2.011  0.2841 -0.2018  0.2357
 7356TIP3    H143483   5.344   1.636   2.027  0.1849 -2.6269  0.2913
 7356TIP3    H243484   5.215   1.557   2.039 -1.7603  0.1862 -0.8885
 7357TIP3   OH243485   5.722   6.751   2.382  0.4169  0.2739 -0.4550
 7357TIP3    H143486   5.745   6.676   2.326 -0.5478 -0.5128  0.1828
 7357TIP3    H243487   5.648   6.792   2.337  1.5185  1.4345 -1.2913
 7358TIP3   OH243488   6.159   1.735   4.884 -0.1569 -0.4223  0.6557
 7358TIP3    H143489   6.245   1.740   4.925 -0.4265  1.1123  1.0978
 7358TIP3    H243490   6.109   1.674   4.938  0.1263  0.0223  1.4270
 7359TIP3   OH243491   5.367   6.797  15.543 -0.5246  0.1119  0.3696
 7359TIP3    H143492   5.459   6.820  15.529  0.0326 -2.3321 -0.5182
 7359TIP3    H243493   5.343   6.841  15.624  1.2713  1.2335  0.3405
 7360TIP3   OH243494   0.520   2.679  11.821  0.0020  0.2083 -0.2681
 7360TIP3    H143495   0.606   2.648  11.849  0.4725  0.7694 -1.0599
 7360TIP3    H243496   0.524   2.680  11.725 -1.2740 -0.8325 -0.3700
 7361TIP3   OH243497   2.980   0.093  12.144 -0.0756  0.2891  0.0077
 7361TIP3    H143498   3.048   0.159  12.151 -1.9054  2.2321  0.3432
 7361TIP3    H243499   2.961   0.087  12.050 -0.2215  0.5889  0.0177
 7362TIP3   OH243500   0.192   5.932  11.413 -0.2575  0.5269 -0.1005
 7362TIP3    H143501   0.269   5.980  11.444 -0.0102  0.5558 -0.7547
 7362TIP3    H243502   0.228   5.860  11.361 -0.6803  0.7615 -0.7318
 7363TIP3   OH243503   5.801   4.701  14.119 -0.0377 -0.0976  0.0719
 7363TIP3    H143504   5.810   4.652  14.037  0.9687  0.2017 -0.0167
 7363TIP3    H243505   5.886   4.688  14.163  0.5173  2.0898 -0.2600
 7364TIP3   OH243506   0.680   3.019   1.089  0.4899 -0.2231  0.6114
 7364TIP3    H143507   0.644   3.104   1.065  2.1116  1.2470  2.9977
 7364TIP3    H243508   0.603   2.966   1.113 -0.5602  0.4038 -1.1630
 7365TIP3   OH243509   5.244   1.776  12.564  0.2276 -0.6697  0.0038
 7365TIP3    H143510   5.280   1.733  12.641  1.4831 -0.1778 -0.2905
 7365TIP3    H243511   5.173   1.831  12.598  0.7965 -0.4256  0.8116
 7366TIP3   OH243512   2.954   6.163   5.056  0.2919  0.0713 -0.2499
 7366TIP3    H143513   2.931   6.141   5.146 -1.2617 -2.5244 -1.1777
 7366TIP3    H243514   3.048   6.143   5.050  0.4938  0.6350  0.8683
 7367TIP3   OH243515   2.417   1.819  14.741 -0.1806  0.3432  0.2816
 7367TIP3    H143516   2.416   1.824  14.837  0.3623 -1.8326  0.4564
 7367TIP3    H243517   2.506   1.790  14.720 -0.8809 -1.2612 -0.6842
 7368TIP3   OH243518   2.007   1.174  13.406 -0.0242  0.3073  0.3002
 7368TIP3    H143519   1.936   1.185  13.469 -0.4102  0.3179 -0.1314
 7368TIP3    H243520   1.962   1.160  13.322  0.4015 -2.6970  0.4687
 7369TIP3   OH243521   2.257   0.592   6.001 -0.0412 -0.1471 -0.4097
 7369TIP3    H143522   2.232   0.649   5.928 -1.2328  0.3752  0.3715
 7369TIP3    H243523   2.176   0.581   6.051  1.1231  1.0452  1.8829
 7370TIP3   OH243524   0.794   2.608  11.828  0.0485 -0.5160  0.1646
 7370TIP3    H143525   0.843   2.584  11.908 -0.5807  1.0890  1.0728
 7370TIP3    H243526   0.833   2.691  11.801 -1.8559  0.5809  0.6609
 7371TIP3   OH243527   3.928   3.452  11.208 -0.4413 -0.2477 -0.0463
 7371TIP3    H143528   3.941   3.538  11.246 -1.0412 -0.7157  1.2903
 7371TIP3    H243529   4.008   3.404  11.228  0.7836  0.5586 -2.5787
 7372TIP3   OH243530   4.560   4.269  14.953  0.0128  0.3804 -0.4447
 7372TIP3    H143531   4.495   4.202  14.974  2.0239 -1.1750  1.3180
 7372TIP3    H243532   4.529   4.348  14.997  0.0285 -0.7323  1.6803
 7373TIP3   OH243533   2.056   1.025  10.768  0.5492 -1.1571 -0.6695
 7373TIP3    H143534   2.024   0.994  10.852  1.3044 -1.6121 -0.5357
 7373TIP3    H243535   2.142   1.062  10.788  1.0682 -1.9520 -1.3467
 7374TIP3   OH243536   4.923   5.192  13.863 -0.0496  0.2942 -0.5625
 7374TIP3    H143537   4.884   5.159  13.944 -0.7658 -1.6528 -1.6248
 7374TIP3    H243538   4.952   5.281  13.885 -2.7063  0.8850  1.0430
 7375TIP3   OH243539   1.832   1.323  16.147 -0.2055 -0.0428  0.6616
 7375TIP3    H143540   1.739   1.342  16.137 -0.3941 -1.2762 -0.1280
 7375TIP3    H243541   1.853   1.353  16.236 -1.6241 -0.7727  1.2715
 7376TIP3   OH243542   6.650   5.303   2.146 -0.2174 -0.0326 -0.3422
 7376TIP3    H143543   6.556   5.318   2.154 -0.0952  0.2018  0.7669
 7376TIP3    H243544   6.690   5.389   2.161  0.0936  0.5122 -3.6390
 7377TIP3   OH243545   1.818   1.701   2.338 -0.3351 -0.6341  0.4063
 7377TIP3    H143546   1.865   1.728   2.259  0.3775  1.0287  1.3654
 7377TIP3    H243547   1.886   1.688   2.404 -0.9732 -1.4002  0.9360
 7378TIP3   OH243548   5.505   1.324   1.945 -0.1976  0.5973  0.1826
 7378TIP3    H143549   5.581   1.294   1.895 -0.3360 -0.4439  0.5610
 7378TIP3    H243550   5.430   1.309   1.887 -0.2183  0.6754  0.1892
 7379TIP3   OH243551   3.506   4.013   3.397 -0.5774  0.2610 -0.3314
 7379TIP3    H143552   3.459   3.948   3.451  0.7724 -1.2520 -0.9075
 7379TIP3    H243553   3.574   4.046   3.455 -0.8561  0.6900 -0.2468
 7380TIP3   OH243554   1.196   0.194  12.796 -0.4376 -0.0928 -0.3964
 7380TIP3    H143555   1.206   0.214  12.703  0.4848  2.6779  0.2068
 7380TIP3    H243556   1.116   0.240  12.822 -0.5788 -0.6824  0.2526
 7381TIP3   OH243557   4.755   6.459  14.219 -0.0098  0.8787 -0.3100
 7381TIP3    H143558   4.730   6.484  14.130  0.5310  0.2775 -0.6375
 7381TIP3    H243559   4.709   6.377  14.235  2.5653 -0.9272 -1.3869
 7382TIP3   OH243560   2.276   2.542   6.334 -0.1289 -0.2200 -0.4892
 7382TIP3    H143561   2.285   2.471   6.397 -1.7883 -2.1218 -2.2390
 7382TIP3    H243562   2.227   2.610   6.381  1.8700  0.0541  1.3430
 7383TIP3   OH243563   0.916   2.031   5.413  0.0464  0.1106  0.5361
 7383TIP3    H143564   0.850   2.041   5.482  0.9776 -0.7209  1.5933
 7383TIP3    H243565   0.882   1.962   5.356 -0.7875  0.8877  0.0660
 7384TIP3   OH243566   2.213   5.076   4.195 -0.7193 -0.0681 -0.0491
 7384TIP3    H143567   2.244   5.062   4.285  1.7722  1.5177 -0.5727
 7384TIP3    H243568   2.197   5.170   4.190 -1.5193 -0.2455 -1.1008
 7385TIP3   OH243569   6.048   1.369  14.680  0.0308  0.0038  0.1274
 7385TIP3    H143570   6.074   1.383  14.771 -1.8402  0.8655  0.5745
 7385TIP3    H243571   6.072   1.451  14.636 -1.0554  0.4538  0.3487
 7386TIP3   OH243572   3.138   5.242   2.974  0.1292 -0.0017  0.1010
 7386TIP3    H143573   3.203   5.194   2.923 -0.6934 -1.6304  0.5448
 7386TIP3    H243574   3.189   5.309   3.020  0.9919  1.1041 -2.2585
 7387TIP3   OH243575   6.647   5.543   3.112  0.0390 -0.3581  0.6370
 7387TIP3    H143576   6.696   5.569   3.190  1.6968  0.0136 -0.4618
 7387TIP3    H243577   6.559   5.524   3.144 -0.3039  3.0465  2.1150
 7388TIP3   OH243578   5.943   4.110   5.508  0.4763 -0.2688  0.1566
 7388TIP3    H143579   5.852   4.100   5.480  0.9513 -1.4845 -1.0989
 7388TIP3    H243580   5.994   4.102   5.427  1.6956  0.7263  0.7817
 7389TIP3   OH243581   1.216   5.329  14.427  0.2181  0.2439 -0.6576
 7389TIP3    H143582   1.304   5.291  14.416  0.2043  0.5879 -2.1437
 7389TIP3    H243583   1.179   5.330  14.339 -1.6248 -0.6633  0.0467
 7390TIP3   OH243584   6.044   3.048   3.735 -0.4036  0.7157  0.2120
 7390TIP3    H143585   6.117   2.987   3.746 -1.4374 -0.5331  0.4398
 7390TIP3    H243586   6.039   3.095   3.818 -1.1042 -0.6446  0.9673
 7391TIP3   OH243587   4.387   3.091  14.899 -0.1463  0.2465  0.1648
 7391TIP3    H143588   4.341   3.112  14.980  2.6077  0.4228  1.7991
 7391TIP3    H243589   4.476   3.071  14.926  0.4432 -1.5187 -2.6674
 7392TIP3   OH243590   3.162   5.017  10.732 -0.0481 -0.4949 -0.4390
 7392TIP3    H143591   3.203   4.931  10.717  0.5422 -0.2023 -0.5150
 7392TIP3    H243592   3.114   5.035  10.651  0.3080 -0.4847 -0.6472
 7393TIP3   OH243593   3.797   0.023   0.116  0.0540  0.3183 -0.8277
 7393TIP3    H143594   3.874   0.080   0.109  0.3530  0.0849  0.4093
 7393TIP3    H243595   3.817  -0.050   0.058  1.4144 -0.4350  0.5220
 7394TIP3   OH243596   3.532   4.918  13.882  0.5409  0.1749 -0.2964
 7394TIP3    H143597   3.497   4.994  13.835 -0.4613 -0.8034 -1.1865
 7394TIP3    H243598   3.518   4.938  13.974 -1.3440  0.3386 -0.5767
 7395TIP3   OH243599   6.673   5.557   4.447  0.2559  0.5249  0.2811
 7395TIP3    H143600   6.629   5.546   4.531 -0.4310 -0.3550 -0.1853
 7395TIP3    H243601   6.759   5.594   4.470  0.2082 -0.0163  1.3936
 7396TIP3   OH243602   6.579   1.886  12.347  0.0127  0.3451 -0.0676
 7396TIP3    H143603   6.484   1.896  12.356  0.0518  1.1457 -0.4765
 7396TIP3    H243604   6.597   1.798  12.380 -1.0990 -0.5384 -1.6825
 7397TIP3   OH243605   1.229   4.808  14.685  0.1092  0.3041  0.1195
 7397TIP3    H143606   1.289   4.882  14.678  1.0719 -0.4692 -0.1239
 7397TIP3    H243607   1.244   4.757  14.605 -0.6147 -0.0931  0.2266
 7398TIP3   OH243608   0.465   3.929  12.966 -0.1075 -0.1273  0.1546
 7398TIP3    H143609   0.420   4.002  13.008 -1.5160 -0.6699 -0.3612
 7398TIP3    H243610   0.433   3.928  12.876  0.6626 -0.7702 -0.1311
 7399TIP3   OH243611   3.874   1.753  13.075  0.2831 -0.0818  0.0337
 7399TIP3    H143612   3.919   1.769  13.158  2.1629  0.6374 -1.0388
 7399TIP3    H243613   3.816   1.828  13.065 -0.4156 -0.4780  0.9500
 7400TIP3   OH243614   0.800   5.116   4.423  0.2870  0.9237  0.1228
 7400TIP3    H143615   0.729   5.159   4.472 -1.1123  1.9785 -2.6267
 7400TIP3    H243616   0.874   5.117   4.483 -0.9616  3.2531  1.7831
 7401TIP3   OH243617   0.517   6.672  14.843 -0.1606 -0.0888 -0.2053
 7401TIP3    H143618   0.529   6.766  14.829 -0.1246 -0.2638 -1.3866
 7401TIP3    H243619   0.423   6.661  14.854 -0.2362  0.0075 -0.7259
 7402TIP3   OH243620   1.245   0.811   1.876  0.4872 -0.7521 -0.5248
 7402TIP3    H143621   1.205   0.855   1.951 -0.8161 -0.7320 -1.2048
 7402TIP3    H243622   1.258   0.881   1.812  0.8247 -0.9129 -0.6323
 7403TIP3   OH243623   0.056   3.400   3.669 -0.1633  0.1899 -0.5435
 7403TIP3    H143624   0.127   3.388   3.732 -0.5849 -2.0916 -0.3813
 7403TIP3    H243625  -0.020   3.421   3.722 -0.1472  0.0471 -0.4643
 7404TIP3   OH243626   3.336   3.778   5.024  0.3916  0.6577 -0.0800
 7404TIP3    H143627   3.382   3.850   4.981  0.8151  0.7281  0.4727
 7404TIP3    H243628   3.282   3.739   4.956  2.2196 -0.2209 -1.0691
 7405TIP3   OH243629   2.082   1.151  16.460  0.6691  0.6455  0.2985
 7405TIP3    H143630   2.090   1.162  16.555  1.0783  0.1352  0.3213
 7405TIP3    H243631   1.990   1.130  16.446  0.6155  0.6857  0.5856
 7406TIP3   OH243632   3.740   4.869  13.263 -0.0621 -0.2623 -0.1497
 7406TIP3    H143633   3.774   4.947  13.219  2.7732 -0.7623  0.9847
 7406TIP3    H243634   3.791   4.797  13.227  0.1884 -1.0542  1.7210
 7407TIP3   OH243635   0.296   6.783   4.879  0.1992 -0.0026 -0.0071
 7407TIP3    H143636   0.222   6.821   4.926  0.3596 -1.0712  1.1306
 7407TIP3    H243637   0.266   6.696   4.854  1.2986 -0.7041  1.0556
 7408TIP3   OH243638   2.028   5.268  12.190 -0.1540  0.1742  0.2262
 7408TIP3    H143639   2.030   5.265  12.094  0.5647 -0.7102  0.2482
 7408TIP3    H243640   2.033   5.361  12.211  1.1109  0.3238 -0.5896
 7409TIP3   OH243641   0.748   5.836   1.561 -0.1360 -0.2566  0.1488
 7409TIP3    H143642   0.656   5.810   1.564 -0.6198  1.3970  1.3854
 7409TIP3    H243643   0.779   5.825   1.651 -0.0185  2.0348  0.4560
 7410TIP3   OH243644   3.408   1.502  14.245 -0.4633  0.3792  0.1026
 7410TIP3    H143645   3.466   1.435  14.208 -2.7650 -1.4518 -0.4072
 7410TIP3    H243646   3.443   1.518  14.333  2.3446  1.3720 -1.0668
 7411TIP3   OH243647   5.454   2.322  12.390  0.4164 -0.3043  0.7921
 7411TIP3    H143648   5.391   2.270  12.441 -0.4728 -0.1860 -0.1512
 7411TIP3    H243649   5.399   2.378  12.334  1.3232 -1.2728 -1.1583
 7412TIP3   OH243650   1.746   4.604   5.224  0.5432 -0.1171 -0.0148
 7412TIP3    H143651   1.654   4.631   5.218  1.1770  1.9823 -1.2717
 7412TIP3    H243652   1.794   4.686   5.233  2.4745 -0.9140 -2.1070
 7413TIP3   OH243653   5.661   5.717  12.665 -0.9943  0.4989  0.2426
 7413TIP3    H143654   5.680   5.793  12.610  0.1552 -0.3106 -0.5096
 7413TIP3    H243655   5.630   5.650  12.604  2.6631 -1.2681  0.0682
 7414TIP3   OH243656   4.025   5.962  12.278 -0.1555  0.4471  0.0948
 7414TIP3    H143657   4.061   6.003  12.199 -4.0302 -0.6151 -2.4928
 7414TIP3    H243658   3.989   6.034  12.328  0.5732  0.9623 -0.1091
 7415TIP3   OH243659   3.181   2.691  15.991 -0.4510  0.3914 -0.3803
 7415TIP3    H143660   3.257   2.677  16.047  0.7103  1.8025 -1.5232
 7415TIP3    H243661   3.108   2.652  16.039  0.5839  1.0161  1.8263
 7416TIP3   OH243662   3.382   6.369  12.095  0.1246 -0.2283 -0.1456
 7416TIP3    H143663   3.375   6.421  12.016  1.6550  0.9656  0.4684
 7416TIP3    H243664   3.379   6.432  12.167 -2.0124 -1.3346  0.8500
 7417TIP3   OH243665   4.056   5.759  13.609 -0.3042  0.2400 -0.1720
 7417TIP3    H143666   4.047   5.829  13.543 -1.1403  1.6870  1.3891
 7417TIP3    H243667   3.979   5.704  13.594 -1.5481  1.6456  0.7520
 7418TIP3   OH243668   5.916   0.256   2.597 -0.5445 -0.0120 -0.1662
 7418TIP3    H143669   5.983   0.195   2.566 -0.6810  0.8373 -2.3551
 7418TIP3    H243670   5.842   0.200   2.620 -0.2924 -0.7637 -1.0931
 7419TIP3   OH243671   0.242   4.087  11.298 -0.1514  0.2883  0.0394
 7419TIP3    H143672   0.296   4.024  11.346 -0.3193 -1.2927 -1.7102
 7419TIP3    H243673   0.233   4.161  11.357  0.8463 -0.9414  1.8318
 7420TIP3   OH243674   5.720   2.883  14.076 -0.1192  0.3702 -1.0963
 7420TIP3    H143675   5.730   2.911  13.985  1.8978 -0.1772 -1.1042
 7420TIP3    H243676   5.726   2.787  14.072  0.7683  0.3774 -0.3410
 7421TIP3   OH243677   6.772   3.922  13.165  0.4412  0.4779  0.1963
 7421TIP3    H143678   6.727   3.948  13.084 -0.4659  0.1630  0.5822
 7421TIP3    H243679   6.705   3.930  13.233  0.8813 -0.3138  0.7389
 7422TIP3   OH243680   3.260   4.810   2.368 -0.0795  0.5156  0.1913
 7422TIP3    H143681   3.198   4.837   2.436 -1.3520  0.1783 -0.7729
 7422TIP3    H243682   3.248   4.875   2.298  0.8041  0.5460  0.0647
 7423TIP3   OH243683   6.041   3.231  14.449 -0.4049 -0.1223 -0.2708
 7423TIP3    H143684   6.036   3.165  14.518  1.5372 -1.6099 -1.4306
 7423TIP3    H243685   5.957   3.226  14.404 -0.1968 -2.0954 -0.5296
 7424TIP3   OH243686   6.287   6.646   5.444 -0.2953  0.5291 -0.1939
 7424TIP3    H143687   6.337   6.720   5.479 -1.4492  0.9899  0.5391
 7424TIP3    H243688   6.287   6.582   5.515 -0.4953  0.4098 -0.3028
 7425TIP3   OH243689   4.340   6.189   1.450 -0.1434 -0.0694 -0.6471
 7425TIP3    H143690   4.267   6.130   1.433 -1.2385  1.2287 -0.5952
 7425TIP3    H243691   4.358   6.230   1.365 -2.6004  3.0246  0.1374
 7426TIP3   OH243692   2.493   2.813   2.336 -0.2857 -0.3611  0.4491
 7426TIP3    H143693   2.487   2.906   2.355 -1.3978 -0.4658  0.6519
 7426TIP3    H243694   2.557   2.779   2.399 -0.2873  0.1676  0.7357
 7427TIP3   OH243695   5.617   4.522   0.530 -0.2124  0.4752  0.1710
 7427TIP3    H143696   5.668   4.591   0.486  0.0282 -0.0992 -0.4755
 7427TIP3    H243697   5.530   4.529   0.491  0.0973 -0.2699 -0.6885
 7428TIP3   OH243698   6.198   5.791   3.105 -0.0400 -0.2053  0.6777
 7428TIP3    H143699   6.203   5.869   3.160 -0.0881  0.3772 -0.1206
 7428TIP3    H243700   6.167   5.722   3.163 -0.5293  0.5034  1.2731
 7429TIP3   OH243701   5.396   0.268   2.573 -0.2718 -0.0767 -1.2912
 7429TIP3    H143702   5.454   0.269   2.497 -0.0283 -2.3206 -1.1905
 7429TIP3    H243703   5.329   0.203   2.552  0.2713 -1.3721  0.7125
 7430TIP3   OH243704   0.488   1.141  13.835 -0.3043  0.5999  0.2931
 7430TIP3    H143705   0.425   1.142  13.763 -0.7629  0.0606  0.6815
 7430TIP3    H243706   0.440   1.179  13.909 -0.6190 -1.0066  0.9428
 7431TIP3   OH243707   2.421   0.749   1.992 -0.2709  0.3148 -0.2392
 7431TIP3    H143708   2.347   0.722   1.939 -0.5038 -0.2095  0.3447
 7431TIP3    H243709   2.433   0.842   1.971 -1.4171  0.5416  0.0349
 7432TIP3   OH243710   1.752   5.271  14.593 -0.2244 -0.1845 -0.3630
 7432TIP3    H143711   1.748   5.367  14.595 -1.7267 -0.2128  1.2665
 7432TIP3    H243712   1.800   5.247  14.672 -1.1684 -0.7630  0.0637
 7433TIP3   OH243713   5.829   4.060  11.640 -0.5669  0.3632 -0.3041
 7433TIP3    H143714   5.759   4.124  11.650 -1.9184 -1.2685  1.7659
 7433TIP3    H243715   5.907   4.105  11.672 -1.2742  1.2969  0.1807
 7434TIP3   OH243716   0.703   1.471   3.653 -0.2903  0.1939 -0.2668
 7434TIP3    H143717   0.638   1.465   3.722  0.3177  1.8957  0.5129
 7434TIP3    H243718   0.786   1.452   3.695 -0.0474 -0.0250 -0.8257
 7435TIP3   OH243719   0.179   3.190   3.602  0.2477 -0.0723 -0.4800
 7435TIP3    H143720   0.123   3.264   3.580  2.0271  1.1056 -1.2619
 7435TIP3    H243721   0.195   3.146   3.519  0.5007 -0.3856 -0.2678
 7436TIP3   OH243722   3.505   3.707  15.979  0.0953 -0.5799  0.4179
 7436TIP3    H143723   3.454   3.788  15.968 -0.2023 -0.6396  1.3192
 7436TIP3    H243724   3.505   3.668  15.892  0.2068  0.3655 -0.0257
 7437TIP3   OH243725   0.176   3.323  13.911  0.3405  0.2316 -0.2422
 7437TIP3    H143726   0.101   3.273  13.880 -1.1874  1.9041  0.6209
 7437TIP3    H243727   0.144   3.370  13.988  2.0488  1.6065 -0.3037
 7438TIP3   OH243728   4.632   1.475   1.516  0.0157 -0.5351  0.2768
 7438TIP3    H143729   4.605   1.567   1.524 -3.7208 -1.4195 -0.2704
 7438TIP3    H243730   4.639   1.444   1.606  1.3685  0.2251  0.4701
 7439TIP3   OH243731   2.066   4.134  12.126 -0.2345 -0.1319 -0.1500
 7439TIP3    H143732   2.091   4.044  12.146 -1.6736 -0.6859 -0.6781
 7439TIP3    H243733   2.146   4.185  12.138  0.2865 -1.2567  1.5505
 7440TIP3   OH243734   2.869   0.351  12.352 -0.0857  0.0441  0.2448
 7440TIP3    H143735   2.903   0.348  12.442  1.2153  0.9762 -0.1786
 7440TIP3    H243736   2.809   0.277  12.346 -1.0603  0.6122  2.2160
 7441TIP3   OH243737   0.757   3.042   1.731 -0.2291 -0.6065 -0.2213
 7441TIP3    H143738   0.740   3.135   1.746 -2.2793 -0.6481 -1.8426
 7441TIP3    H243739   0.845   3.040   1.694  0.1347  0.6112  0.5275
 7442TIP3   OH243740   6.376   6.118   2.180 -0.3188  0.1422 -1.1903
 7442TIP3    H143741   6.409   6.032   2.154 -0.3822 -0.7276  1.3509
 7442TIP3    H243742   6.434   6.181   2.137  1.3695 -1.2339 -0.9941
 7443TIP3   OH243743   4.853   6.219  12.009  0.6779  0.0015  0.4481
 7443TIP3    H143744   4.838   6.137  11.962  0.6386 -0.2603  0.9081
 7443TIP3    H243745   4.796   6.282  11.964 -2.4924 -1.1031  2.5317
 7444TIP3   OH243746   0.047   2.060  15.702  0.0501  0.0820 -0.2188
 7444TIP3    H143747   0.108   2.118  15.748  0.6162  0.2705 -1.1809
 7444TIP3    H243748  -0.028   2.051  15.762  0.3138  1.1412  0.2856
 7445TIP3   OH243749   0.758   5.495   5.296 -0.0064 -0.1070 -0.1580
 7445TIP3    H143750   0.708   5.553   5.355  0.2135  1.0003 -1.0289
 7445TIP3    H243751   0.693   5.434   5.262 -0.0514 -1.1210  1.6060
 7446TIP3   OH243752   2.139   0.273  13.869  0.3544  0.0039  0.6398
 7446TIP3    H143753   2.139   0.346  13.931 -0.7941  0.7864 -0.2393
 7446TIP3    H243754   2.061   0.288  13.815  0.2970 -1.6851  0.2093
 7447TIP3   OH243755   1.963   3.710  15.230  0.0447 -0.5759 -0.0717
 7447TIP3    H143756   2.031   3.777  15.221 -0.1777 -0.3686 -0.2399
 7447TIP3    H243757   1.988   3.642  15.167 -0.0421 -0.3781 -0.3251
 7448TIP3   OH243758   2.685   1.135  10.965  0.4500  0.2667 -0.0417
 7448TIP3    H143759   2.623   1.074  10.925  0.5088 -0.2470  0.6356
 7448TIP3    H243760   2.757   1.141  10.902  1.4962 -2.0857  0.8092
 7449TIP3   OH243761   2.298   4.826   5.442  0.2307  0.7100 -0.3823
 7449TIP3    H143762   2.357   4.851   5.371  1.2035 -0.3193  0.0288
 7449TIP3    H243763   2.213   4.818   5.400  0.7503  0.3126 -1.4080
 7450TIP3   OH243764   4.204   1.380  13.889  0.5197 -0.8377  0.0557
 7450TIP3    H143765   4.244   1.449  13.836  0.4192 -1.3365 -0.6890
 7450TIP3    H243766   4.195   1.419  13.976 -1.9855  1.0800 -0.9151
 7451TIP3   OH243767   3.297   6.152  16.900 -0.2794  0.1775  0.2026
 7451TIP3    H143768   3.274   6.244  16.916 -3.0074 -0.4159  0.2667
 7451TIP3    H243769   3.287   6.142  16.805  0.1276 -0.0295  0.1821
 7452TIP3   OH243770   4.502   3.705   3.810  0.3391 -0.6133 -0.4315
 7452TIP3    H143771   4.566   3.668   3.871 -1.4479 -4.0934 -0.4424
 7452TIP3    H243772   4.519   3.660   3.727 -2.1463 -1.8027 -0.3735
 7453TIP3   OH243773   1.316   6.413   5.273  0.2534 -0.1392 -0.0311
 7453TIP3    H143774   1.387   6.477   5.263 -0.3127  1.1488  2.8952
 7453TIP3    H243775   1.336   6.368   5.355 -2.3319  0.4369  1.0196
 7454TIP3   OH243776   2.806   0.269  16.369 -0.1532 -0.2040  0.3444
 7454TIP3    H143777   2.810   0.307  16.281  1.3540  0.2020  0.5770
 7454TIP3    H243778   2.896   0.272  16.401 -0.7845  0.2309  2.1656
 7455TIP3   OH243779   3.983   2.749   0.029  0.2567  0.4351 -0.8994
 7455TIP3    H143780   4.062   2.792  -0.006  0.8161  1.2427  1.2259
 7455TIP3    H243781   4.007   2.720   0.116 -1.7660  0.5787 -0.2319
 7456TIP3   OH243782   5.694   2.263   3.611 -0.3041 -0.1596 -0.4236
 7456TIP3    H143783   5.703   2.185   3.667 -0.1284  0.9418  1.1401
 7456TIP3    H243784   5.760   2.252   3.544  2.5341  0.4936  2.0596
 7457TIP3   OH243785   3.385   5.574  15.262  0.2079 -0.2522 -0.0189
 7457TIP3    H143786   3.315   5.541  15.205 -0.1074 -1.1239  0.8308
 7457TIP3    H243787   3.381   5.517  15.339 -0.6695  2.0813  1.7557
 7458TIP3   OH243788   5.722   2.999   5.895  0.4484  0.0463 -0.1508
 7458TIP3    H143789   5.748   2.917   5.936 -1.8835  0.0505  1.5643
 7458TIP3    H243790   5.651   2.974   5.835 -0.3949  0.8021  0.5077
 7459TIP3   OH243791   0.025   4.514  14.982  0.6070 -0.3988  0.5348
 7459TIP3    H143792  -0.009   4.466  14.906 -2.2310 -0.5007  1.7512
 7459TIP3    H243793   0.035   4.604  14.951 -0.3575 -0.4674 -0.0099
 7460TIP3   OH243794   6.679   4.683  13.216 -0.4377  0.0828  0.0258
 7460TIP3    H143795   6.667   4.588  13.219 -2.4671  0.3233  1.2825
 7460TIP3    H243796   6.660   4.706  13.125 -1.2848 -0.6057  0.0077
 7461TIP3   OH243797   0.579   1.223  13.019  0.0429 -0.8004 -0.5250
 7461TIP3    H143798   0.615   1.208  13.107  1.5031 -0.6837 -1.0790
 7461TIP3    H243799   0.489   1.251  13.035  0.7140  0.6593  1.0176
 7462TIP3   OH243800   6.502   2.996  11.614  0.0592  0.4711  0.0370
 7462TIP3    H143801   6.579   2.971  11.665 -1.4071  0.5506  2.4559
 7462TIP3    H243802   6.442   2.923  11.623 -0.0023  0.1442 -2.3192
 7463TIP3   OH243803   5.484   0.440  13.020 -0.0421 -0.2857 -0.4288
 7463TIP3    H143804   5.425   0.450  13.094 -1.6580  0.9245 -1.7875
 7463TIP3    H243805   5.535   0.521  13.019  1.1718 -1.0111  0.2999
 7464TIP3   OH243806   3.941   0.943   5.430  0.2603  0.2174  0.9155
 7464TIP3    H143807   3.894   1.026   5.438  3.4276  2.1650  1.1475
 7464TIP3    H243808   3.947   0.910   5.519  0.0959  0.4056  0.9963
 7465TIP3   OH243809   5.823   5.425  12.429  0.1071  0.2482 -0.4535
 7465TIP3    H143810   5.854   5.352  12.375 -1.1910 -0.4471 -0.2876
 7465TIP3    H243811   5.829   5.392  12.519 -1.0887  0.0885 -0.4178
 7466TIP3   OH243812   2.061   3.269  16.089 -0.1337 -0.3378 -0.7141
 7466TIP3    H143813   1.991   3.297  16.030 -0.7695  0.9567  0.6097
 7466TIP3    H243814   2.135   3.327  16.066 -0.5729  0.5843  0.1424
 7467TIP3   OH243815   5.266   6.757   6.083 -0.1208 -0.2839  0.0746
 7467TIP3    H143816   5.335   6.804   6.130 -0.5345 -0.3650  0.7687
 7467TIP3    H243817   5.217   6.826   6.037 -0.9963  0.0386  1.4383
 7468TIP3   OH243818   5.394   3.422  15.739  0.3812  0.5382 -0.0191
 7468TIP3    H143819   5.485   3.452  15.752  0.9479 -0.4807 -1.4060
 7468TIP3    H243820   5.369   3.459  15.654  0.2861 -0.9757 -0.6713
 7469TIP3   OH243821   5.978   1.211  14.092 -0.1177  0.4323 -0.1798
 7469TIP3    H143822   5.955   1.185  14.182 -0.7654 -1.2025 -0.7793
 7469TIP3    H243823   5.921   1.285  14.073 -2.7275 -1.5476 -0.5125
 7470TIP3   OH243824   4.567   1.131  17.148 -0.3502  0.9188  0.5543
 7470TIP3    H143825   4.507   1.123  17.222  0.3340 -0.4900  0.9889
 7470TIP3    H243826   4.516   1.174  17.080 -2.0198 -0.6611  0.7400
 7471TIP3   OH243827   2.153   5.001  13.712 -0.0184  1.1051  0.4062
 7471TIP3    H143828   2.082   5.052  13.675 -0.1415  0.5911 -0.0762
 7471TIP3    H243829   2.196   4.960  13.637  0.5910  1.1571  0.7161
 7472TIP3   OH243830   2.085   4.587  15.488 -0.1673 -0.1655  0.4827
 7472TIP3    H143831   2.155   4.590  15.554 -0.3503 -1.1305  0.7304
 7472TIP3    H243832   2.004   4.596  15.539 -0.3856 -2.1916  0.5710
 7473TIP3   OH243833   1.841   4.640   4.488  0.3143 -0.4577 -0.6132
 7473TIP3    H143834   1.896   4.596   4.424 -0.7556 -2.9581  0.0754
 7473TIP3    H243835   1.902   4.693   4.540  1.6980 -1.2742 -1.3584
 7474TIP3   OH243836   6.564   0.918   0.671  0.3200  0.5339 -0.9500
 7474TIP3    H143837   6.504   0.993   0.669 -0.6304 -0.2157 -1.0110
 7474TIP3    H243838   6.647   0.955   0.700 -0.2252  1.5574 -0.6430
 7475TIP3   OH243839   3.752   3.249  11.015  0.4385  0.0349  0.4029
 7475TIP3    H143840   3.806   3.328  11.009 -0.3488  0.4747 -3.3151
 7475TIP3    H243841   3.811   3.178  10.988  0.0840  0.0331 -0.4075
 7476TIP3   OH243842   3.901   2.185   1.762  0.4211  0.1589 -0.2776
 7476TIP3    H143843   3.880   2.134   1.840  1.3256  1.7673  1.0953
 7476TIP3    H243844   3.838   2.258   1.765 -0.8856 -0.8050 -2.2208
 7477TIP3   OH243845   4.828   5.116   5.652 -0.2679  0.5503  0.0370
 7477TIP3    H143846   4.768   5.176   5.608  0.0608  0.4122 -0.6074
 7477TIP3    H243847   4.773   5.044   5.682 -0.6437  1.0964  0.7014
 7478TIP3   OH243848   0.061   3.388   5.760  0.8352 -0.6409  0.3902
 7478TIP3    H143849   0.108   3.311   5.792  2.1720 -1.0611 -2.3037
 7478TIP3    H243850   0.129   3.445   5.724 -0.3810  0.4862 -0.2267
 7479TIP3   OH243851   5.452   2.473  13.563 -0.4805  0.5455  0.0999
 7479TIP3    H143852   5.483   2.426  13.485 -0.4519 -0.4436  0.6950
 7479TIP3    H243853   5.387   2.415  13.601 -0.6325  1.1127  0.7165
 7480TIP3   OH243854   3.508   2.700   4.446 -0.6527 -0.1837  0.0612
 7480TIP3    H143855   3.462   2.701   4.530  0.2725  0.3633  0.5672
 7480TIP3    H243856   3.438   2.713   4.381 -1.4655 -1.3157  0.6816
 7481TIP3   OH243857   4.488   5.591   2.132  0.6186  0.2893 -0.5060
 7481TIP3    H143858   4.543   5.515   2.111 -0.6696 -1.2813  1.3854
 7481TIP3    H243859   4.410   5.579   2.077 -0.0633 -0.4203  0.5720
 7482TIP3   OH243860   6.244   5.720  11.928 -0.6981 -0.3936 -0.3440
 7482TIP3    H143861   6.224   5.717  12.021  1.3093 -1.1582  0.1275
 7482TIP3    H243862   6.203   5.641  11.892  0.4802 -1.3701  0.3785
 7483TIP3   OH243863   3.222   5.987   1.896 -0.5209  0.1712  0.3859
 7483TIP3    H143864   3.203   6.018   1.984  1.1158  1.6764  0.2818
 7483TIP3    H243865   3.290   6.047   1.864  0.1048 -1.3338 -1.2898
 7484TIP3   OH243866   0.494   6.092   1.712  0.3763 -0.8897  0.2105
 7484TIP3    H143867   0.458   6.021   1.766 -0.9500  0.2302  0.8759
 7484TIP3    H243868   0.419   6.149   1.695  1.3905  0.3345 -0.3386
 7485TIP3   OH243869   0.034   2.592  16.763  0.1045  0.3058  0.1254
 7485TIP3    H143870   0.113   2.645  16.770 -0.5805  1.5643 -1.3318
 7485TIP3    H243871   0.063   2.512  16.719  1.1867 -0.7695  2.5456
 7486TIP3   OH243872   2.759   4.247  15.917 -0.5402  0.2223 -0.0291
 7486TIP3    H143873   2.705   4.283  15.987  1.0343  1.3277  0.6801
 7486TIP3    H243874   2.811   4.178  15.958 -0.3019  0.2188 -0.3229
 7487TIP3   OH243875   3.635   2.183  11.342 -0.2590  0.0558  0.6217
 7487TIP3    H143876   3.723   2.164  11.309  0.1850  0.1852  1.6927
 7487TIP3    H243877   3.604   2.256  11.288 -0.1498 -0.6638 -0.4634
 7488TIP3   OH243878   3.188   6.444  11.129  0.1374 -0.2369  0.8364
 7488TIP3    H143879   3.111   6.458  11.185  0.3655 -1.3826  1.4833
 7488TIP3    H243880   3.152   6.408  11.048  0.0580 -2.2473  1.7068
 7489TIP3   OH243881   2.138   5.907   3.699  0.3075  0.1194  0.0350
 7489TIP3    H143882   2.123   5.977   3.635  1.5568  0.8820  0.5297
 7489TIP3    H243883   2.233   5.899   3.704  0.3393  0.8842  2.5893
 7490TIP3   OH243884   4.467   5.805   5.634  0.6001 -0.0723  0.2945
 7490TIP3    H143885   4.387   5.833   5.589 -0.0074 -1.6132  0.3605
 7490TIP3    H243886   4.538   5.830   5.575  0.1039  1.3947  0.2738
 7491TIP3   OH243887   3.857   0.581   0.440  0.1790 -0.0413 -0.1688
 7491TIP3    H143888   3.847   0.552   0.349 -1.0241 -0.9936  0.2249
 7491TIP3    H243889   3.773   0.557   0.481  1.0671 -0.5634  1.4301
 7492TIP3   OH243890   2.421   4.609   6.249 -0.4860  0.4298 -0.2037
 7492TIP3    H143891   2.353   4.648   6.194  0.2064  0.6105 -0.9570
 7492TIP3    H243892   2.457   4.683   6.298 -2.2986  0.0227  1.8890
 7493TIP3   OH243893   2.496   6.781  13.108  0.1370 -0.3121 -0.8601
 7493TIP3    H143894   2.557   6.721  13.064 -0.5053 -2.5521  1.0974
 7493TIP3    H243895   2.512   6.768  13.201 -2.2986  0.0954 -0.3106
 7494TIP3   OH243896   0.774   1.569  12.038 -0.1347  1.0564 -0.6308
 7494TIP3    H143897   0.782   1.624  12.116  0.9099  1.5251 -1.0484
 7494TIP3    H243898   0.728   1.624  11.975 -0.6482  0.8138 -0.4654
 7495TIP3   OH243899   2.716   2.223   4.327  0.7537  0.2363 -0.7082
 7495TIP3    H143900   2.647   2.205   4.264 -0.3053  0.6123  0.3170
 7495TIP3    H243901   2.759   2.139   4.341 -0.6935 -0.4031  0.0290
 7496TIP3   OH243902   2.700   0.775   1.963 -0.5138 -0.0242 -0.3722
 7496TIP3    H143903   2.699   0.775   1.867 -2.2506  2.3914 -0.4383
 7496TIP3    H243904   2.610   0.757   1.988 -0.0929 -0.5653  0.8329
 7497TIP3   OH243905   1.904   3.266  11.812  0.4580  0.3959 -0.0018
 7497TIP3    H143906   1.959   3.192  11.785  1.0800  1.1301 -0.8150
 7497TIP3    H243907   1.919   3.332  11.745  0.5524  1.5747  1.1428
 7498TIP3   OH243908   3.627   0.437   0.891  0.0193 -0.0759 -0.2701
 7498TIP3    H143909   3.633   0.526   0.857  0.3975  0.4290  1.0682
 7498TIP3    H243910   3.580   0.388   0.823 -0.4026  1.1919 -0.9115
 7499TIP3   OH243911   3.286   5.467   3.826 -0.1406 -0.5448 -0.1648
 7499TIP3    H143912   3.227   5.525   3.778  0.3479 -0.2356 -0.4054
 7499TIP3    H243913   3.275   5.492   3.918  0.3179  0.1748 -0.2949
 7500TIP3   OH243914   1.186   2.143  16.213  0.5000  0.2740  0.3596
 7500TIP3    H143915   1.167   2.080  16.144  0.0717 -1.4648  1.9899
 7500TIP3    H243916   1.102   2.185  16.231  0.5800  0.6154 -0.0308
 7501TIP3   OH243917   6.231   3.822  12.272 -0.3311  0.2367  0.8605
 7501TIP3    H143918   6.321   3.855  12.277 -0.5298  0.7435  1.2634
 7501TIP3    H243919   6.182   3.879  12.331 -1.0586  0.4281  0.0913
 7502TIP3   OH243920   5.519   3.444  14.181 -0.1184 -0.1996 -0.0670
 7502TIP3    H143921   5.486   3.487  14.101 -0.2898  0.0836  0.1533
 7502TIP3    H243922   5.506   3.351  14.165  1.3213 -0.2734 -1.0379
 7503TIP3   OH243923   2.511   2.257  14.902 -0.2992  0.2375 -0.9705
 7503TIP3    H143924   2.527   2.172  14.862 -0.7623  0.2079 -1.0985
 7503TIP3    H243925   2.429   2.245  14.951 -0.2779  0.5614 -0.8552
 7504TIP3   OH243926   4.380   2.011   4.947  0.6955 -0.1979 -0.2602
 7504TIP3    H143927   4.306   2.062   4.980  0.0139 -1.7677  0.7102
 7504TIP3    H243928   4.432   1.991   5.025  0.9396 -0.9853 -0.6148
 7505TIP3   OH243929   6.687   2.811  15.899  0.0284 -0.3349 -0.2882
 7505TIP3    H143930   6.780   2.834  15.899 -0.2182  0.7509 -1.1307
 7505TIP3    H243931   6.644   2.884  15.942 -0.5204 -0.4354 -0.6539
 7506TIP3   OH243932   5.433   0.533  11.113 -0.3091  0.0151 -0.0539
 7506TIP3    H143933   5.361   0.472  11.102  0.1746 -0.2846 -1.9277
 7506TIP3    H243934   5.466   0.516  11.201 -3.8104  1.6660  1.8159
 7507TIP3   OH243935   6.627   5.121  11.562  0.1918  0.1649  0.4253
 7507TIP3    H143936   6.719   5.119  11.536  0.3985 -0.9549  1.1849
 7507TIP3    H243937   6.626   5.180  11.638  0.0181  1.3352 -0.4523
 7508TIP3   OH243938   4.206   5.411  15.586  0.0643 -0.3826  0.1368
 7508TIP3    H143939   4.241   5.325  15.608 -0.5688 -0.4476  0.9171
 7508TIP3    H243940   4.149   5.434  15.659 -1.2717 -0.1423 -0.9233
 7509TIP3   OH243941   0.201   2.282   2.455 -0.3594  0.5795 -0.0965
 7509TIP3    H143942   0.247   2.366   2.453  1.3568 -0.3446 -1.2781
 7509TIP3    H243943   0.213   2.245   2.368 -0.5933 -1.1577  0.5594
 7510TIP3   OH243944   3.441   4.652   5.541 -0.2106 -0.1631 -0.2429
 7510TIP3    H143945   3.408   4.670   5.628  1.9092  0.5687  0.4855
 7510TIP3    H243946   3.466   4.559   5.543  0.3764 -0.0058  0.1545
 7511TIP3   OH243947   3.549   0.502  16.183 -0.2234  0.4820 -0.3891
 7511TIP3    H143948   3.635   0.469  16.209  0.3794  0.1884 -2.5619
 7511TIP3    H243949   3.537   0.470  16.094 -1.3837  2.7866 -1.1376
 7512TIP3   OH243950   3.727   4.906   1.088 -0.6497  0.1973 -0.6751
 7512TIP3    H143951   3.663   4.845   1.050 -1.0317 -0.9698  1.6467
 7512TIP3    H243952   3.812   4.864   1.075 -0.8843 -0.7297  0.6563
 7513TIP3   OH243953   0.108   1.305  14.684 -0.6233  0.2094  0.2501
 7513TIP3    H143954   0.113   1.252  14.763 -1.2390 -0.2515 -0.0149
 7513TIP3    H243955   0.039   1.264  14.631 -0.4979  0.7471 -0.3468
 7514TIP3   OH243956   3.815   3.004  13.947  0.0261  0.0866 -0.6203
 7514TIP3    H143957   3.729   3.043  13.964  0.3728  0.8471 -0.5397
 7514TIP3    H243958   3.871   3.079  13.927  0.8858 -0.2956  0.2453
 7515TIP3   OH243959   0.642   1.248  15.897  0.6957  0.1848  0.3231
 7515TIP3    H143960   0.692   1.235  15.978  0.7945  1.2606  0.4506
 7515TIP3    H243961   0.620   1.341  15.897 -1.9432 -0.3394  0.6286
 7516TIP3   OH243962   6.581   0.921   2.544  0.5172  0.0477 -0.2010
 7516TIP3    H143963   6.487   0.902   2.536  0.4984  0.4773 -1.2588
 7516TIP3    H243964   6.623   0.836   2.538  0.1647 -0.2865  1.4609
 7517TIP3   OH243965   1.540   6.185   2.707  1.1512  0.0239  0.1343
 7517TIP3    H143966   1.455   6.217   2.737  0.8084 -1.0311  0.3273
 7517TIP3    H243967   1.604   6.236   2.758  0.5911 -0.8703  1.8213
 7518TIP3   OH243968   6.743   1.758  11.953 -0.1499  0.0934 -0.1632
 7518TIP3    H143969   6.835   1.734  11.961  0.3866  2.1700  0.5504
 7518TIP3    H243970   6.740   1.820  11.879 -1.3637 -1.5398 -1.5797
 7519TIP3   OH243971   3.321   1.389   1.620  0.2341 -0.1415  0.0997
 7519TIP3    H143972   3.332   1.299   1.650 -1.0292 -0.2087  0.4508
 7519TIP3    H243973   3.409   1.419   1.596  0.6711 -1.4420  0.0417
 7520TIP3   OH243974   3.968   1.943  15.070  0.0405  0.5969  0.1410
 7520TIP3    H143975   3.901   2.011  15.069 -0.2466  0.3923  2.0496
 7520TIP3    H243976   4.037   1.978  15.125  0.3586 -0.2254  0.2806
 7521TIP3   OH243977   3.421   5.678  13.827  0.2301  0.2563 -0.2889
 7521TIP3    H143978   3.390   5.768  13.837 -0.0421  0.0909  0.3980
 7521TIP3    H243979   3.353   5.635  13.775 -1.0776 -0.2632  1.7102
 7522TIP3   OH243980   3.393   4.698   2.685 -0.5659  0.1129 -0.1919
 7522TIP3    H143981   3.342   4.658   2.755 -0.5358  1.5647  0.6953
 7522TIP3    H243982   3.380   4.640   2.610 -0.1927 -1.7756  1.1143
 7523TIP3   OH243983   5.398   1.031   4.947 -0.0782  0.2187  0.1634
 7523TIP3    H143984   5.355   1.099   4.999 -3.4828 -0.2558 -1.7679
 7523TIP3    H243985   5.459   1.080   4.891 -2.2742  1.7688 -1.0108
 7524TIP3   OH243986   1.433   3.040   2.774 -0.2451 -0.6666 -0.6206
 7524TIP3    H143987   1.521   3.053   2.738  0.5587  0.1615  1.5340
 7524TIP3    H243988   1.423   2.945   2.778  1.1412 -0.8046  0.3893
 7525TIP3   OH243989   4.782   0.307  14.318 -0.2868 -0.6747 -0.3014
 7525TIP3    H143990   4.755   0.216  14.306 -0.5273 -0.6483  0.0323
 7525TIP3    H243991   4.819   0.311  14.406 -0.6803 -0.3605 -0.1418
 7526TIP3   OH243992   0.293   6.281   1.420 -0.2224 -0.3508 -0.4668
 7526TIP3    H143993   0.297   6.309   1.329  0.3708  0.0265 -0.3271
 7526TIP3    H243994   0.361   6.332   1.464  0.0251 -1.1008  0.0387
 7527TIP3   OH243995   5.384   1.187   1.725 -0.1339  0.0751  0.1689
 7527TIP3    H143996   5.294   1.189   1.692  0.4928  0.0264 -1.6479
 7527TIP3    H243997   5.439   1.204   1.648  1.4707 -1.1651  0.9615
 7528TIP3   OH243998   5.865   5.001   4.764  0.5914  0.2636 -0.4453
 7528TIP3    H143999   5.844   5.027   4.854 -0.3887 -1.1015 -0.2445
 7528TIP3    H244000   5.930   4.931   4.774 -0.0218 -0.3636 -0.7465
 7529TIP3   OH244001   3.169   0.635   3.856  0.2518 -0.3805  0.6949
 7529TIP3    H144002   3.250   0.604   3.814 -0.0943 -0.4912  0.0989
 7529TIP3    H244003   3.198   0.668   3.941  0.7936 -1.2678  0.8719
 7530TIP3   OH244004   4.536   6.244  17.181 -0.4978 -0.0891 -0.4720
 7530TIP3    H144005   4.493   6.257  17.266 -2.0041 -0.3336 -1.1667
 7530TIP3    H244006   4.591   6.168  17.194 -0.1642  0.2963  0.4873
 7531TIP3   OH244007   1.449   6.623  14.714 -0.2237 -0.0304  0.2200
 7531TIP3    H144008   1.430   6.715  14.694 -1.2744 -0.5697 -1.4732
 7531TIP3    H244009   1.492   6.626  14.799 -0.4315  2.0109  0.3161
 7532TIP3   OH244010   3.117   4.109  11.555  0.0078  0.0073  0.0936
 7532TIP3    H144011   3.202   4.105  11.599  0.8289  0.5933 -1.3803
 7532TIP3    H244012   3.080   4.021  11.566  0.3614  0.0265  1.5736
 7533TIP3   OH244013   1.040   5.887  12.227 -0.4971  0.1211 -0.1603
 7533TIP3    H144014   1.123   5.871  12.182 -0.5530  0.3539 -0.3492
 7533TIP3    H244015   1.065   5.902  12.318 -0.5998 -3.0611  0.5081
 7534TIP3   OH244016   2.397   2.139   5.071  0.1611  0.0536  0.2198
 7534TIP3    H144017   2.384   2.227   5.106 -0.0505 -0.4656  1.4978
 7534TIP3    H244018   2.350   2.140   4.987 -0.8982  0.7919  0.7902
 7535TIP3   OH244019   5.245   2.536  11.352 -0.0571 -0.0454  0.5004
 7535TIP3    H144020   5.269   2.568  11.265 -1.2882  1.4991  0.6932
 7535TIP3    H244021   5.328   2.523  11.397  0.5387  0.6041 -0.3861
 7536TIP3   OH244022   3.370   3.604   3.312  0.0861  0.0297 -0.4903
 7536TIP3    H144023   3.302   3.628   3.249  0.1134  1.1948 -0.1005
 7536TIP3    H244024   3.356   3.662   3.386  0.2951 -1.0594  0.4354
 7537TIP3   OH244025   0.138   3.404  14.243 -0.8038  0.7038 -0.1743
 7537TIP3    H144026   0.185   3.321  14.236 -0.3329  0.6846  2.1111
 7537TIP3    H244027   0.203   3.470  14.218 -0.7560  0.4479 -0.7223
 7538TIP3   OH244028   1.757   0.926  11.277 -0.1129 -0.0061 -0.3713
 7538TIP3    H144029   1.787   0.879  11.356  0.8854  1.1570 -0.0309
 7538TIP3    H244030   1.690   0.868  11.239 -0.6804 -0.5623  1.3663
 7539TIP3   OH244031   1.582   1.674   0.118  0.5713 -0.0504  0.2047
 7539TIP3    H144032   1.665   1.665   0.166  0.1596 -0.4641  0.8514
 7539TIP3    H244033   1.603   1.644   0.029 -0.0045 -5.3435  1.5115
 7540TIP3   OH244034   4.536   1.150  11.469  0.1115  0.7565  0.1922
 7540TIP3    H144035   4.490   1.071  11.441  0.4847  0.8576 -0.7247
 7540TIP3    H244036   4.472   1.198  11.521  0.1309 -0.5294  1.4708
 7541TIP3   OH244037   4.148   1.832  15.552 -0.0024 -0.0407  0.0476
 7541TIP3    H144038   4.237   1.840  15.518 -0.4921 -0.9858 -1.5681
 7541TIP3    H244039   4.097   1.796  15.479 -1.4546 -0.7105  1.3236
 7542TIP3   OH244040   5.089   0.262  14.992 -0.0888  0.0233 -0.0538
 7542TIP3    H144041   5.139   0.186  15.023  1.6771  0.9974 -0.3869
 7542TIP3    H244042   4.998   0.232  14.991  0.1778 -1.1541  2.6174
 7543TIP3   OH244043   6.059   4.586   6.103 -0.7465  0.0653 -0.1273
 7543TIP3    H144044   6.022   4.569   6.016  0.8402  0.3709 -0.8918
 7543TIP3    H244045   6.101   4.503   6.127  0.8307  0.6531 -0.7193
 7544TIP3   OH244046   5.115   5.730  15.537  0.1215 -0.5709 -0.1062
 7544TIP3    H144047   5.060   5.719  15.459 -2.3960 -0.1720  1.4924
 7544TIP3    H244048   5.149   5.819  15.530 -0.2079 -0.4828 -0.6665
 7545TIP3   OH244049   4.093   4.148   5.935 -0.6974  0.1053 -0.2112
 7545TIP3    H144050   4.128   4.191   5.857  0.2043  1.7412  1.0311
 7545TIP3    H244051   4.129   4.198   6.008 -0.6647 -2.0040  1.3095
 7546TIP3   OH244052   3.149   1.210   4.145  0.1392 -0.0473 -0.3183
 7546TIP3    H144053   3.059   1.216   4.111 -0.2238 -0.9437  0.4392
 7546TIP3    H244054   3.170   1.117   4.140  0.1219 -0.2051  1.7357
 7547TIP3   OH244055   0.524   2.769   4.898 -0.2596 -0.3259  0.1530
 7547TIP3    H144056   0.588   2.795   4.831 -0.0794 -0.5397  0.2411
 7547TIP3    H244057   0.439   2.787   4.858 -0.1497  1.2645  0.5416
 7548TIP3   OH244058   6.372   3.415  16.052  0.7995  0.8943  0.0559
 7548TIP3    H144059   6.460   3.443  16.027  1.6980 -2.2803 -0.7129
 7548TIP3    H244060   6.376   3.319  16.052 -2.4670  0.6484  0.7637
 7549TIP3   OH244061   2.426   1.511   5.611  0.5521  0.0704 -0.4198
 7549TIP3    H144062   2.430   1.530   5.518 -1.0102  1.7848 -0.1998
 7549TIP3    H244063   2.431   1.415   5.617 -1.6429 -0.2613 -2.4596
 7550TIP3   OH244064   1.638   0.481   5.875  0.6199  0.4208 -0.3203
 7550TIP3    H144065   1.654   0.437   5.959  0.2087  1.7130  0.4662
 7550TIP3    H244066   1.546   0.461   5.856  0.0050  2.0274  0.7517
 7551TIP3   OH244067   2.121   3.083   1.872 -0.2712  0.8231 -0.2298
 7551TIP3    H144068   2.204   3.113   1.836 -0.4758  1.2888 -0.3222
 7551TIP3    H244069   2.064   3.160   1.868 -0.4744  0.7203  0.5498
 7552TIP3   OH244070   0.768   3.774  15.516  0.0083 -0.0466 -0.1642
 7552TIP3    H144071   0.804   3.717  15.449 -0.5180 -0.2875 -0.2477
 7552TIP3    H244072   0.743   3.715  15.587  1.3714  0.2886  0.6290
 7553TIP3   OH244073   0.983   2.400   5.268 -0.1200  0.0723  0.0564
 7553TIP3    H144074   0.992   2.495   5.282 -2.3663  0.3505  0.0167
 7553TIP3    H244075   1.021   2.385   5.181 -1.5958  1.3481 -0.8728
 7554TIP3   OH244076   6.163   5.880  12.620  0.6022 -0.4023 -0.0157
 7554TIP3    H144077   6.142   5.803  12.568 -1.6617  0.4259 -0.4344
 7554TIP3    H244078   6.124   5.953  12.572  2.0084  0.9312  0.7708
 7555TIP3   OH244079   3.127   5.648  13.182  0.5917 -0.2692 -0.3088
 7555TIP3    H144080   3.206   5.633  13.130 -0.0509 -1.2824 -1.0279
 7555TIP3    H244081   3.056   5.615  13.128 -0.1158 -1.2496  1.1570
 7556TIP3   OH244082   2.741   4.637   4.017 -0.1245 -0.3862 -0.0170
 7556TIP3    H144083   2.758   4.719   3.971  2.0466 -0.0025  1.3366
 7556TIP3    H244084   2.776   4.651   4.105 -2.1971 -1.8460  1.1296
 7557TIP3   OH244085   5.735   5.739   0.593 -0.2096  0.4552  0.2895
 7557TIP3    H144086   5.757   5.828   0.620 -0.3395  0.9247 -1.0368
 7557TIP3    H244087   5.750   5.739   0.498  0.1962 -1.0710  0.3319
 7558TIP3   OH244088   0.141   3.796   3.331  0.4675 -0.3573  0.2852
 7558TIP3    H144089   0.154   3.875   3.280 -0.6990  0.4022  1.1266
 7558TIP3    H244090   0.117   3.827   3.418 -0.3303 -1.6337  0.5472
 7559TIP3   OH244091   3.503   4.173  11.116 -0.3074 -0.1345  0.8251
 7559TIP3    H144092   3.526   4.123  11.039 -0.0438  0.0416  0.7874
 7559TIP3    H244093   3.480   4.107  11.182 -3.3948 -0.2798 -0.2323
 7560TIP3   OH244094   4.232   6.644  12.445  0.3838 -0.0017 -0.2918
 7560TIP3    H144095   4.299   6.648  12.377 -0.1705 -0.5061 -0.8887
 7560TIP3    H244096   4.153   6.678  12.403  0.3152  0.8071  0.4706
 7561TIP3   OH244097   1.513   4.936  10.558 -0.6873 -0.4106 -0.2232
 7561TIP3    H144098   1.546   4.852  10.527 -1.3200 -0.7181 -0.0929
 7561TIP3    H244099   1.476   4.917  10.645  0.1909  0.2391  0.3129
 7562TIP3   OH244100   1.150   6.693  13.315 -0.3630  0.6358  0.1982
 7562TIP3    H144101   1.121   6.780  13.343  1.6803  1.3271  0.3725
 7562TIP3    H244102   1.149   6.641  13.395 -2.9421  0.0433 -0.1589
 7563TIP3   OH244103   3.410   5.616   5.898 -0.6942 -0.1905  0.2567
 7563TIP3    H144104   3.454   5.551   5.954 -2.4402  0.6926  2.8764
 7563TIP3    H244105   3.476   5.683   5.882  0.1289 -0.9331  0.4744
 7564TIP3   OH244106   4.856   6.421   3.645  0.0677  0.2100  0.7208
 7564TIP3    H144107   4.928   6.418   3.708 -1.4244  1.1150  2.5492
 7564TIP3    H244108   4.896   6.452   3.564  1.9598 -0.5425  1.3266
 7565TIP3   OH244109   2.319   2.105   3.107 -0.1730  0.0515  1.0534
 7565TIP3    H144110   2.307   2.109   3.012  1.2614  0.5323  0.8635
 7565TIP3    H244111   2.265   2.032   3.135 -2.5397  1.3623  0.2078
 7566TIP3   OH244112   2.684   3.097  15.386  0.3126  0.2279  0.3117
 7566TIP3    H144113   2.646   3.039  15.321 -1.5593 -0.4728  1.9229
 7566TIP3    H244114   2.651   3.184  15.363 -2.9564 -0.4220  1.9523
 7567TIP3   OH244115   6.083   0.478  11.522  0.1147 -0.0256 -0.0490
 7567TIP3    H144116   6.082   0.460  11.616  0.8054 -0.1195 -0.0557
 7567TIP3    H244117   6.162   0.434  11.489  0.2624  0.5855 -0.5477
 7568TIP3   OH244118   3.298   0.799   4.615 -0.1698 -0.0527  0.4242
 7568TIP3    H144119   3.300   0.708   4.644 -3.0028  0.1316  1.5197
 7568TIP3    H244120   3.242   0.798   4.537 -0.9556  0.8172  0.9520
 7569TIP3   OH244121   4.808   4.830  11.859  0.5702  0.2021 -0.1497
 7569TIP3    H144122   4.889   4.856  11.816  0.4506 -1.8974 -1.8075
 7569TIP3    H244123   4.743   4.894  11.828  1.3680  1.3839  0.5251
 7570TIP3   OH244124   5.053   3.223  15.257 -0.0897  0.5875  0.2367
 7570TIP3    H144125   5.022   3.292  15.316  0.4086  0.1081  1.0916
 7570TIP3    H244126   4.987   3.153  15.266  1.0554 -0.3571  1.9130
 7571TIP3   OH244127   0.594   5.016  13.590  0.6119  0.4450  0.7592
 7571TIP3    H144128   0.647   4.975  13.659  0.8162  0.0978  0.3963
 7571TIP3    H244129   0.530   5.068  13.638  1.2812  0.8731  1.2071
 7572TIP3   OH244130   4.875   0.534  14.836  0.2948  0.1460  0.7923
 7572TIP3    H144131   4.857   0.537  14.742  0.0159  0.6993  0.8552
 7572TIP3    H244132   4.946   0.597  14.848 -1.0202  1.6345  1.2183
 7573TIP3   OH244133   1.780   5.232  16.086 -0.1033  0.0909 -0.2656
 7573TIP3    H144134   1.776   5.154  16.141  1.2805 -0.2219 -0.5791
 7573TIP3    H244135   1.703   5.225  16.029 -0.0045 -1.0464 -0.2836
 7574TIP3   OH244136   5.308   5.516  12.863 -0.3506  0.4613  0.0366
 7574TIP3    H144137   5.326   5.487  12.953 -0.2964  0.4871  0.0337
 7574TIP3    H244138   5.212   5.523  12.859 -0.3985 -0.2963 -0.1459
 7575TIP3   OH244139   4.686   0.999  10.457 -0.4211 -0.6121  0.1382
 7575TIP3    H144140   4.618   1.059  10.426 -0.6390  0.1145  1.9160
 7575TIP3    H244141   4.760   1.014  10.398  0.0726  2.5612  1.3745
 7576TIP3   OH244142   4.294   3.433   0.486  0.4227  0.1478  1.2525
 7576TIP3    H144143   4.247   3.504   0.442 -0.5932 -0.6431  1.0139
 7576TIP3    H244144   4.246   3.420   0.568 -0.1584 -1.0402  0.7528
 7577TIP3   OH244145   2.611   5.629   2.673  0.3583 -0.0597 -0.1399
 7577TIP3    H144146   2.549   5.561   2.645  1.1553 -0.7804 -0.2191
 7577TIP3    H244147   2.659   5.652   2.593  0.7103 -0.0640  0.0688
 7578TIP3   OH244148   0.980   2.835   1.045  0.1691 -0.4852  0.9229
 7578TIP3    H144149   0.959   2.768   1.110 -1.1514  1.1456  2.2351
 7578TIP3    H244150   0.979   2.917   1.093  1.8816  0.5240 -0.6271
 7579TIP3   OH244151   4.396   5.728  16.521 -0.1302  0.2416  0.1061
 7579TIP3    H144152   4.437   5.761  16.601 -0.6766  1.5282 -0.1297
 7579TIP3    H244153   4.466   5.680  16.476  0.2879 -0.1650  1.1510
 7580TIP3   OH244154   1.945   3.806  11.805 -0.2227 -0.6505 -0.3793
 7580TIP3    H144155   1.936   3.789  11.711 -0.6936 -1.6809 -0.1630
 7580TIP3    H244156   1.880   3.874  11.823 -1.3353 -1.6423 -0.5101
 7581TIP3   OH244157   3.348   5.775   2.185 -0.3510 -0.1202  0.7873
 7581TIP3    H144158   3.347   5.852   2.128 -0.1284 -0.8000 -0.1767
 7581TIP3    H244159   3.272   5.723   2.157 -0.3932 -0.3356  1.2953
 7582TIP3   OH244160   2.510   4.518  14.565 -0.1944  0.0676 -0.1390
 7582TIP3    H144161   2.449   4.528  14.638 -1.0397  0.0200 -0.8078
 7582TIP3    H244162   2.462   4.463  14.502  0.0041  1.1224 -1.2532
 7583TIP3   OH244163   0.331   3.364  12.437 -0.4379 -0.2155  0.1801
 7583TIP3    H144164   0.378   3.422  12.497  1.5893 -0.4291 -1.1164
 7583TIP3    H244165   0.300   3.293  12.492  0.3244  0.1993  1.1705
 7584TIP3   OH244166   0.753   4.208  14.837 -0.1221  0.3416 -0.1154
 7584TIP3    H144167   0.805   4.137  14.800 -0.4045  0.3230 -0.4833
 7584TIP3    H244168   0.703   4.168  14.907 -0.3094  0.1670 -0.3482
 7585TIP3   OH244169   3.362   3.026  12.902  0.4035  0.2134  0.4900
 7585TIP3    H144170   3.275   3.065  12.897  0.0207 -0.7158 -0.6510
 7585TIP3    H244171   3.416   3.081  12.844  0.0023 -0.5502 -0.6528
 7586TIP3   OH244172   4.839   3.839   0.539 -0.3382 -0.3148 -0.1413
 7586TIP3    H144173   4.744   3.837   0.540 -0.3583  0.0686  1.5404
 7586TIP3    H244174   4.863   3.896   0.612  1.1803 -0.0721 -0.7807
 7587TIP3   OH244175   3.927   3.012   2.417 -0.1088  0.1323  0.9800
 7587TIP3    H144176   3.967   3.069   2.352 -0.3467 -1.9359 -1.1295
 7587TIP3    H244177   3.860   3.066   2.460  1.3835  2.1119  0.9270
 7588TIP3   OH244178   2.256   0.233  12.930 -0.6209  0.2829  0.0975
 7588TIP3    H144179   2.343   0.274  12.937 -0.7011  0.3223  1.0508
 7588TIP3    H244180   2.273   0.148  12.891 -0.0642  0.0495  0.8115
 7589TIP3   OH244181   6.607   6.494  13.928 -0.1946 -0.4299  0.4049
 7589TIP3    H144182   6.576   6.443  14.003 -1.2708 -0.3872  0.0097
 7589TIP3    H244183   6.555   6.575  13.931  0.5835  0.0828  0.2821
 7590TIP3   OH244184   0.531   0.343  14.979  0.3057 -0.4215 -0.0353
 7590TIP3    H144185   0.492   0.430  14.990 -0.5011 -0.8585  0.6992
 7590TIP3    H244186   0.539   0.309  15.068  0.3472 -1.2077 -0.3376
 7591TIP3   OH244187   0.006   1.548  12.720 -0.3107 -0.2566  0.1009
 7591TIP3    H144188   0.048   1.477  12.769 -0.6577  0.6171  1.7059
 7591TIP3    H244189  -0.084   1.550  12.753 -1.0019 -0.5788 -1.6336
 7592TIP3   OH244190   2.434   2.029  13.727 -0.1952  0.0164 -0.4934
 7592TIP3    H144191   2.520   1.998  13.699 -0.3739  0.8361 -2.0977
 7592TIP3    H244192   2.441   2.125  13.721 -1.3344  0.0782 -1.0848
 7593TIP3   OH244193   4.406   5.778   6.018 -0.5024 -0.4383 -0.1117
 7593TIP3    H144194   4.466   5.829   6.073 -0.7090  0.9678 -1.1361
 7593TIP3    H244195   4.409   5.690   6.055 -0.2744  0.3350  1.8618
 7594TIP3   OH244196   5.142   5.529   1.767 -0.9637 -0.4448 -0.1787
 7594TIP3    H144197   5.175   5.497   1.851 -0.4795 -1.5291 -0.7634
 7594TIP3    H244198   5.149   5.454   1.708 -0.0102  0.6581 -1.5464
 7595TIP3   OH244199   2.265   6.450  10.729 -0.2053 -0.0696 -0.1959
 7595TIP3    H144200   2.352   6.415  10.749 -0.1431 -0.4683 -1.1113
 7595TIP3    H244201   2.281   6.542  10.705  0.0285 -0.2424 -0.7356
 7596TIP3   OH244202   1.295   3.145  13.456 -0.5579  0.0088 -0.4350
 7596TIP3    H144203   1.349   3.176  13.529 -1.5201  1.1958 -0.2055
 7596TIP3    H244204   1.357   3.104  13.396  0.3400 -0.3915  0.7279
 7597TIP3   OH244205   2.502   1.130   2.748 -0.2809 -0.6996  0.1902
 7597TIP3    H144206   2.424   1.081   2.721 -1.8204  1.6568  0.1158
 7597TIP3    H244207   2.475   1.173   2.829  0.8809  0.3307  0.0404
 7598TIP3   OH244208   5.151   3.208  14.746  0.1458  0.0343 -0.3313
 7598TIP3    H144209   5.103   3.130  14.716 -1.3441  0.7757  0.0158
 7598TIP3    H244210   5.134   3.274  14.678  1.3274  0.1008 -0.5785
 7599TIP3   OH244211   0.999   6.537   4.957  0.0804 -0.0742 -1.0721
 7599TIP3    H144212   0.985   6.608   4.894 -1.5433 -0.4220 -1.1571
 7599TIP3    H244213   0.917   6.489   4.957  0.7673 -1.3011 -0.1820
 7600TIP3   OH244214   1.375   3.476  12.932  0.0367 -0.0977 -0.8329
 7600TIP3    H144215   1.411   3.486  12.844 -0.0308  2.2709 -0.6621
 7600TIP3    H244216   1.439   3.520  12.989 -0.3961 -0.7474  0.1785
 7601TIP3   OH244217   6.658   2.492  14.948  0.6026  0.3756  0.2486
 7601TIP3    H144218   6.568   2.460  14.945  0.6332  0.1966  0.8748
 7601TIP3    H244219   6.699   2.440  15.019  1.3025  0.1770 -0.2852
 7602TIP3   OH244220   1.131   5.966   2.659  0.2145  0.1246 -0.1639
 7602TIP3    H144221   1.219   5.943   2.628 -0.2474  0.6414 -1.9604
 7602TIP3    H244222   1.101   6.033   2.598 -1.3868  0.0433  0.4980
 7603TIP3   OH244223   0.077   1.224  11.642  0.1095  0.1732 -0.1117
 7603TIP3    H144224   0.075   1.188  11.731  0.0640  1.1810  0.3060
 7603TIP3    H244225   0.018   1.299  11.646  1.0084  0.9244 -0.6911
 7604TIP3   OH244226   6.033   0.364  15.813 -0.3347  0.4775  0.3339
 7604TIP3    H144227   5.948   0.397  15.840  0.1682  2.1072  0.0359
 7604TIP3    H244228   6.013   0.296  15.748 -1.4008  0.9266  0.1796
 7605TIP3   OH244229   4.928   0.958   1.690  0.2766  0.2419  0.1535
 7605TIP3    H144230   4.842   0.931   1.656  1.3273  0.4737 -2.9970
 7605TIP3    H244231   4.957   0.885   1.743 -0.2283 -1.5940 -1.9524
 7606TIP3   OH244232   1.556   4.075  14.047  0.1202  0.0733  0.2640
 7606TIP3    H144233   1.526   4.123  14.124 -0.6496  1.2072 -0.7026
 7606TIP3    H244234   1.475   4.050  14.001  0.5677  1.1213 -1.1780
 7607TIP3   OH244235   6.504   2.240   5.603  0.3275 -0.7043 -0.2803
 7607TIP3    H144236   6.536   2.330   5.596 -1.3483 -0.0974 -0.4433
 7607TIP3    H244237   6.510   2.220   5.696  0.9891 -0.5538 -0.2819
 7608TIP3   OH244238   1.122   4.204  12.414 -0.0450  0.0948  0.6052
 7608TIP3    H144239   1.125   4.138  12.483 -0.5499 -0.4455  0.1132
 7608TIP3    H244240   1.133   4.287  12.461 -0.7420 -0.2319  1.3868
 7609TIP3   OH244241   2.818   5.880  16.008 -0.5287  0.3927 -0.0964
 7609TIP3    H144242   2.749   5.837  16.059  1.2425 -2.1645  0.3261
 7609TIP3    H244243   2.890   5.893  16.070  1.4345 -2.2111 -1.6181
 7610TIP3   OH244244   0.415   3.086   2.052 -0.2241  0.6955  0.4790
 7610TIP3    H144245   0.488   3.035   2.017 -0.7698  0.0913  0.2076
 7610TIP3    H244246   0.404   3.055   2.141 -0.0911  0.8588  0.5539
 7611TIP3   OH244247   4.305   6.535  12.859  0.0517 -0.4505  0.2340
 7611TIP3    H144248   4.240   6.569  12.797  1.5835  2.9221  0.2604
 7611TIP3    H244249   4.388   6.572  12.830  1.3363 -1.3501  2.4804
 7612TIP3   OH244250   0.324   4.915  10.621 -0.3445  0.0555 -0.0401
 7612TIP3    H144251   0.401   4.959  10.585 -0.6481 -0.1576 -0.9927
 7612TIP3    H244252   0.270   4.895  10.544 -1.5127  0.5072  0.6327
 7613TIP3   OH244253   0.696   2.617  13.819  0.6933  0.0714 -0.0428
 7613TIP3    H144254   0.778   2.600  13.772  0.6745  0.4592 -0.2201
 7613TIP3    H244255   0.694   2.712  13.829  1.1722 -0.0659  1.6054
 7614TIP3   OH244256   4.331   5.822   3.667  0.4207 -0.1869 -0.1601
 7614TIP3    H144257   4.403   5.761   3.683 -1.5796 -2.1432  2.1276
 7614TIP3    H244258   4.276   5.777   3.603 -2.3853 -2.2419  3.3667
 7615TIP3   OH244259   0.761   1.109   0.138 -0.8438 -0.2619  0.6974
 7615TIP3    H144260   0.711   1.190   0.129 -0.7821 -0.3650 -0.8910
 7615TIP3    H244261   0.703   1.041   0.106 -0.5865 -0.7421  1.2242
 7616TIP3   OH244262   4.004   1.628   3.208  0.1386  0.6619  0.0012
 7616TIP3    H144263   4.070   1.665   3.267  0.8940  1.0273 -1.0511
 7616TIP3    H244264   3.946   1.702   3.188  0.6954  0.8983 -0.7984
 7617TIP3   OH244265   1.168   0.061  14.949  0.0162 -0.4275  0.4845
 7617TIP3    H144266   1.240   0.086  15.006 -0.0370 -1.5687  1.0769
 7617TIP3    H244267   1.140  -0.025  14.981 -1.4316 -0.1260  0.1116
 7618TIP3   OH244268   2.146   0.453   3.569 -0.0060 -0.4604 -0.1759
 7618TIP3    H144269   2.203   0.376   3.570  1.3850  0.4509 -2.2658
 7618TIP3    H244270   2.199   0.521   3.527 -1.3995  1.5044  1.0793
 7619TIP3   OH244271   1.927   3.312   0.535 -0.2791  0.7646  0.3350
 7619TIP3    H144272   1.921   3.391   0.482  1.4379  0.4851 -0.3481
 7619TIP3    H244273   2.007   3.324   0.586 -0.4808 -0.1411  0.8772
 7620TIP3   OH244274   4.632   5.980  10.962  0.0227 -0.8463  0.5818
 7620TIP3    H144275   4.617   5.942  10.876  2.4371  0.5448 -0.5532
 7620TIP3    H244276   4.683   5.914  11.009 -0.2191 -1.0894  0.5048
 7621TIP3   OH244277   3.022   3.022  13.083  0.3932 -0.4001 -0.0630
 7621TIP3    H144278   3.033   3.094  13.145 -0.1159  0.4521 -0.9334
 7621TIP3    H244279   3.052   2.945  13.130 -1.2367 -0.0175  1.7180
 7622TIP3   OH244280   4.280   5.726  13.771  0.2629 -0.1102 -0.2683
 7622TIP3    H144281   4.264   5.637  13.803  0.2144  0.5735  1.8107
 7622TIP3    H244282   4.193   5.761  13.753  0.2254 -0.2513 -0.3572
 7623TIP3   OH244283   0.923   1.563  12.557 -0.0017 -0.1074  0.2723
 7623TIP3    H144284   0.988   1.631  12.543 -0.1532  0.0452  0.3160
 7623TIP3    H244285   0.901   1.568  12.650  1.0070 -1.1259  0.5958
 7624TIP3   OH244286   1.549   1.837  12.313 -0.5634  0.1102  0.0390
 7624TIP3    H144287   1.549   1.743  12.329  1.1693  0.0246 -0.2827
 7624TIP3    H244288   1.554   1.845  12.218  0.9118  0.4892  0.1259
 7625TIP3   OH244289   2.391   3.435  11.163 -0.2265  0.0595 -0.0110
 7625TIP3    H144290   2.337   3.487  11.103  1.3339  1.6441 -0.1278
 7625TIP3    H244291   2.468   3.412  11.111  0.0121 -0.6680  0.6598
 7626TIP3   OH244292   1.133   6.534  13.524 -0.2047  0.1624 -0.1930
 7626TIP3    H144293   1.222   6.499  13.525  0.2233  1.2197  0.6729
 7626TIP3    H244294   1.115   6.556  13.615 -1.2452  0.2571 -0.4078
 7627TIP3   OH244295   0.244   0.833  16.248  0.4557 -0.0199 -0.2480
 7627TIP3    H144296   0.188   0.831  16.326  0.1550 -1.3034 -0.4724
 7627TIP3    H244297   0.201   0.896  16.190 -1.2144 -1.5276 -0.7256
 7628TIP3   OH244298   2.666   2.760  10.787 -0.3253 -0.3623  0.5869
 7628TIP3    H144299   2.733   2.728  10.727 -0.0973 -1.3999  1.3718
 7628TIP3    H244300   2.584   2.754  10.738 -0.1618 -1.3466  0.4167
 7629TIP3   OH244301   3.646   0.707   0.816 -0.3412  0.3323  0.0402
 7629TIP3    H144302   3.570   0.714   0.758 -1.6354 -0.6928  1.5384
 7629TIP3    H244303   3.643   0.787   0.869 -1.0511 -0.2289  0.8610
 7630TIP3   OH244304   0.472   0.288   3.677 -0.1702 -0.4998  0.2808
 7630TIP3    H144305   0.504   0.201   3.653 -0.3617 -0.7201  0.8118
 7630TIP3    H244306   0.481   0.339   3.597 -2.1683 -1.5887 -0.7104
 7631TIP3   OH244307   1.030   6.449  16.252  0.4530  0.4268  0.2439
 7631TIP3    H144308   1.048   6.447  16.158  1.2889  1.8624  0.3437
 7631TIP3    H244309   0.991   6.363  16.271  2.8442 -0.9895 -0.8848
 7632TIP3   OH244310   2.005   5.964  15.306 -0.2401  0.4534 -0.0452
 7632TIP3    H144311   1.976   5.943  15.217  0.6305  1.7995 -0.6794
 7632TIP3    H244312   1.957   5.903  15.362 -2.0588  0.6794 -1.2805
 7633TIP3   OH244313   2.326   0.884   1.594 -0.3800  0.5291  0.8336
 7633TIP3    H144314   2.285   0.840   1.668  0.0850  0.0695  0.8195
 7633TIP3    H244315   2.378   0.816   1.551 -1.8032  0.4064 -0.7980
 7634TIP3   OH244316   5.798   2.370  15.562  0.0417 -0.3041 -0.1904
 7634TIP3    H144317   5.762   2.282  15.567  0.9598 -0.6383  0.8376
 7634TIP3    H244318   5.843   2.373  15.478  1.2966 -1.3378  0.4200
 7635TIP3   OH244319   4.985   5.619   2.024 -0.5700 -0.3242  0.8545
 7635TIP3    H144320   5.006   5.711   2.015 -1.6031 -0.2087 -0.8715
 7635TIP3    H244321   4.997   5.583   1.936  1.0815 -2.1514  1.7389
 7636TIP3   OH244322   4.567   6.306   4.125 -0.2690  0.2494  0.3804
 7636TIP3    H144323   4.520   6.380   4.087 -0.4150  0.4034  0.8604
 7636TIP3    H244324   4.644   6.295   4.069  0.5507  1.7108  1.1811
 7637TIP3   OH244325   3.695   3.215   4.873 -0.1976 -0.0528 -0.2923
 7637TIP3    H144326   3.667   3.131   4.909  0.6623 -0.2262  0.0029
 7637TIP3    H244327   3.669   3.211   4.781 -2.6490  0.4936  0.3116
 7638TIP3   OH244328   5.090   2.572  16.207 -0.5738  0.2901 -0.6413
 7638TIP3    H144329   5.067   2.564  16.300 -0.5162  0.7955 -0.5817
 7638TIP3    H244330   5.143   2.652  16.202 -1.3366  0.7721 -1.2532
 7639TIP3   OH244331   4.998   5.451  13.945 -0.6114  0.0697 -0.0926
 7639TIP3    H144332   5.015   5.440  14.038 -0.4529  0.5667 -0.0638
 7639TIP3    H244333   4.910   5.490  13.941 -0.8173 -0.3930 -0.1694
 7640TIP3   OH244334   4.693   1.451   4.130  0.4208 -0.4610  0.0215
 7640TIP3    H144335   4.701   1.491   4.216 -0.1667  0.4133 -0.3112
 7640TIP3    H244336   4.763   1.491   4.078 -2.2031  2.9017 -1.2949
 7641TIP3   OH244337   4.689   6.772   3.042 -0.0868  0.3507 -0.7478
 7641TIP3    H144338   4.716   6.837   3.107 -0.0501  0.0279 -0.4413
 7641TIP3    H244339   4.696   6.688   3.087  1.2338 -0.0070 -1.5877
 7642TIP3   OH244340   1.598   3.498   1.715 -0.8260  0.5979  0.1025
 7642TIP3    H144341   1.596   3.413   1.760  0.8421 -0.5257 -1.7584
 7642TIP3    H244342   1.508   3.530   1.719 -1.4859 -1.2257  0.9335
 7643TIP3   OH244343   1.416   6.035   3.284 -0.0420  0.0911  0.1043
 7643TIP3    H144344   1.500   6.080   3.285 -0.6999  1.3355  0.8178
 7643TIP3    H244345   1.377   6.058   3.199 -0.6146  1.3606  0.6896
 7644TIP3   OH244346   4.401   1.493   4.627 -0.7977  0.0044 -1.0671
 7644TIP3    H144347   4.318   1.536   4.608 -0.5392  0.5419 -0.9904
 7644TIP3    H244348   4.388   1.402   4.598 -0.5494  0.6726 -3.3935
 7645TIP3   OH244349   4.725   3.886   5.280  0.5560  0.1846 -0.5872
 7645TIP3    H144350   4.640   3.855   5.311  0.3341  1.0730 -0.2679
 7645TIP3    H244351   4.760   3.938   5.353 -0.0026  2.3741 -1.7772
 7646TIP3   OH244352   0.722   4.021  15.459  0.4123 -0.1696 -0.3878
 7646TIP3    H144353   0.711   3.940  15.508  0.0387 -0.5657 -1.1138
 7646TIP3    H244354   0.761   3.994  15.376 -0.8587  0.2277 -1.1433
 7647TIP3   OH244355   4.813   3.551   5.245  0.1762  0.1111  0.3574
 7647TIP3    H144356   4.768   3.504   5.315  0.3178 -0.0995  0.3099
 7647TIP3    H244357   4.905   3.550   5.272  0.2685 -0.2097  0.0374
 7648TIP3   OH244358   3.016   6.183   2.089 -0.3510  0.0721 -0.2217
 7648TIP3    H144359   2.943   6.138   2.048  0.3850 -2.6471  1.1838
 7648TIP3    H244360   3.033   6.133   2.169  1.7154  1.8576  0.5625
 7649TIP3   OH244361   1.879   3.811   0.201 -1.0315 -0.1860  0.1571
 7649TIP3    H144362   1.854   3.898   0.231 -0.7635 -0.2551  0.5934
 7649TIP3    H244363   1.816   3.790   0.132  0.0215  1.1010 -1.2524
 7650TIP3   OH244364   1.358   4.234   2.756 -0.2457 -0.0165 -0.5186
 7650TIP3    H144365   1.438   4.267   2.716  0.3548 -1.3654 -0.4987
 7650TIP3    H244366   1.290   4.294   2.727  0.5820  0.4885 -1.4794
 7651TIP3   OH244367   1.834   1.340  12.531  0.0493  0.4679 -0.6825
 7651TIP3    H144368   1.822   1.434  12.512 -1.4501 -0.0587 -2.8561
 7651TIP3    H244369   1.754   1.300  12.497 -0.9739 -1.2989  3.3071
 7652TIP3   OH244370   4.122   4.106   0.677 -0.7905  0.2495 -0.2295
 7652TIP3    H144371   4.086   4.086   0.590  1.1396 -1.3357 -0.7707
 7652TIP3    H244372   4.205   4.149   0.659 -0.2227 -0.3628  0.7988
 7653TIP3   OH244373   1.868   4.672   4.132 -0.1270 -0.2036 -0.0905
 7653TIP3    H144374   1.913   4.588   4.127 -0.2051 -0.2981  0.7726
 7653TIP3    H244375   1.776   4.649   4.143 -0.2735 -0.0023 -0.8230
 7654TIP3   OH244376   3.354   2.016  12.151  0.3496 -0.2509  0.0659
 7654TIP3    H144377   3.360   2.103  12.190 -1.5635  0.1479 -0.4261
 7654TIP3    H244378   3.418   2.018  12.079  1.6208  0.0849  1.1643
 7655TIP3   OH244379   3.630   4.226  12.658 -0.0227 -0.1257  0.1692
 7655TIP3    H144380   3.566   4.242  12.589  0.0112 -1.2807 -0.1403
 7655TIP3    H244381   3.709   4.198  12.613  0.0853 -0.6281  0.6579
 7656TIP3   OH244382   4.316   0.288  16.310  0.4627 -0.1231  0.5182
 7656TIP3    H144383   4.355   0.223  16.252 -0.8040 -0.3903 -0.0580
 7656TIP3    H244384   4.325   0.371  16.263  1.3946  0.0322  0.9257
 7657TIP3   OH244385   1.444   3.925   2.135  0.5809 -0.2093 -0.0148
 7657TIP3    H144386   1.452   3.957   2.224 -2.4132  0.6857  0.0335
 7657TIP3    H244387   1.350   3.930   2.115  1.1373 -0.2093 -3.2733
 7658TIP3   OH244388   6.018   1.519   5.566  0.0956 -0.4312 -0.0513
 7658TIP3    H144389   6.074   1.555   5.635  1.2518 -2.3791  0.1084
 7658TIP3    H244390   5.953   1.468   5.614 -0.1961 -0.3273 -0.3409
 7659TIP3   OH244391   4.426   0.632   2.790 -0.2915  0.1265  0.1694
 7659TIP3    H144392   4.351   0.613   2.733  1.3370 -1.2788 -1.6573
 7659TIP3    H244393   4.477   0.551   2.790  1.2704  1.0549  1.3047
 7660TIP3   OH244394   1.136   3.029  12.244  0.3576  0.1460 -0.1154
 7660TIP3    H144395   1.206   3.094  12.248  1.4076 -0.9423 -0.1696
 7660TIP3    H244396   1.135   3.001  12.152  2.5100 -2.5722  0.5513
 7661TIP3   OH244397   2.945   1.964  16.634  0.0729 -0.0806 -0.0484
 7661TIP3    H144398   2.969   2.021  16.707  1.1119  1.3159 -1.4200
 7661TIP3    H244399   3.010   1.984  16.566 -0.6458 -1.5958 -1.2301
 7662TIP3   OH244400   5.240   2.271   3.465  0.1516 -0.4649 -0.2820
 7662TIP3    H144401   5.165   2.312   3.507 -1.0911 -1.8363 -1.0454
 7662TIP3    H244402   5.287   2.228   3.536  0.1133  0.2402  0.1798
 7663TIP3   OH244403   3.132   0.002  15.152  0.3189  0.2313 -0.2631
 7663TIP3    H144404   3.096   0.079  15.197 -0.0036 -0.5211  0.8022
 7663TIP3    H244405   3.083  -0.003  15.070  0.8712  1.5988 -0.7017
 7664TIP3   OH244406   2.637   5.198  15.049  0.1079  0.0165  0.1612
 7664TIP3    H144407   2.725   5.189  15.012  0.3498  0.3024  0.6608
 7664TIP3    H244408   2.650   5.239  15.135 -0.6126  1.3333 -0.3225
 7665TIP3   OH244409   2.968   0.920  16.010 -0.5191 -1.1232 -0.1984
 7665TIP3    H144410   3.012   0.886  15.932  2.1726 -1.8345  1.4748
 7665TIP3    H244411   2.946   0.842  16.061 -1.5408 -0.6375  0.1428
 7666TIP3   OH244412   1.443   2.615   5.923 -0.1561  0.4874 -0.1313
 7666TIP3    H144413   1.477   2.553   5.987 -0.6407  0.8535  0.4886
 7666TIP3    H244414   1.493   2.695   5.937  0.2223  0.3557 -0.6900
 7667TIP3   OH244415   6.285   2.931   2.412  0.4906 -0.2586 -0.8324
 7667TIP3    H144416   6.201   2.977   2.405 -0.1612 -1.0673  0.8354
 7667TIP3    H244417   6.342   2.992   2.459  0.8500  0.2924 -1.9678
 7668TIP3   OH244418   1.094   6.804   2.032  1.1267 -0.1888  0.2017
 7668TIP3    H144419   1.070   6.872   2.095 -1.0460 -0.2606 -0.4613
 7668TIP3    H244420   1.044   6.727   2.061  1.8629 -0.8669 -0.3109
 7669TIP3   OH244421   4.028   4.818  14.964 -0.0394  0.2934 -0.1615
 7669TIP3    H144422   3.958   4.850  15.022 -0.8845 -0.4076 -0.7594
 7669TIP3    H244423   4.085   4.767  15.021  0.4193  1.4697  0.4798
 7670TIP3   OH244424   5.888   5.283  17.082  0.0448 -0.2822 -0.6241
 7670TIP3    H144425   5.814   5.271  17.141  2.0418 -0.7385  1.9598
 7670TIP3    H244426   5.895   5.199  17.036  0.3087 -1.1045  0.8373
 7671TIP3   OH244427   0.410   3.460  12.696 -0.0701 -0.1343 -0.0279
 7671TIP3    H144428   0.501   3.488  12.701  0.1524 -0.4277 -1.8027
 7671TIP3    H244429   0.365   3.511  12.764  1.1866  0.9339  0.0262
 7672TIP3   OH244430   3.730   3.299   3.176  0.0358  0.3927 -0.6792
 7672TIP3    H144431   3.767   3.342   3.099  3.1380  1.5175  1.2086
 7672TIP3    H244432   3.682   3.224   3.142  0.3330  1.4595 -3.7219
 7673TIP3   OH244433   2.374   1.298  12.312 -0.3544  0.1346  0.0378
 7673TIP3    H144434   2.323   1.224  12.278 -0.8234  0.7255 -0.5680
 7673TIP3    H244435   2.363   1.367  12.246 -0.7977  1.1031  1.0994
 7674TIP3   OH244436   5.576   6.235  11.985 -0.7641  0.7049 -0.8613
 7674TIP3    H144437   5.598   6.328  11.994  0.7994  0.4107 -1.3212
 7674TIP3    H244438   5.637   6.202  11.919 -1.1104 -0.7059 -0.5150
 7675TIP3   OH244439   5.757   3.371  14.842 -0.3289 -0.3628 -0.1535
 7675TIP3    H144440   5.682   3.422  14.813  0.3549  0.6320 -0.2241
 7675TIP3    H244441   5.723   3.282  14.855 -1.2084 -0.2558 -1.5471
 7676TIP3   OH244442   4.024   4.335  13.700  0.5260  0.2285 -0.8058
 7676TIP3    H144443   4.085   4.261  13.704  1.5384  0.9068 -2.5865
 7676TIP3    H244444   4.056   4.395  13.767 -0.2936 -0.8797  0.6475
 7677TIP3   OH244445   5.827   0.937   0.390  0.1332 -0.0947 -0.2274
 7677TIP3    H144446   5.865   1.009   0.440  1.1632  0.4793 -1.7491
 7677TIP3    H244447   5.888   0.924   0.317 -1.6828 -0.3707 -1.7688
 7678TIP3   OH244448   0.704   0.667   5.638 -0.4299  0.4921  0.4954
 7678TIP3    H144449   0.757   0.588   5.629 -0.5038  0.3520  1.2182
 7678TIP3    H244450   0.718   0.696   5.728 -0.3454  1.3495  0.2219
 7679TIP3   OH244451   4.385   1.197   4.528 -0.1733  0.0815 -0.4917
 7679TIP3    H144452   4.431   1.141   4.591 -1.4513 -1.8467 -1.1816
 7679TIP3    H244453   4.454   1.228   4.469  0.4492 -1.9050 -0.8923
 7680TIP3   OH244454   5.805   4.147   4.099 -0.0427  0.4012  0.1735
 7680TIP3    H144455   5.843   4.090   4.031  1.1670  1.2789  0.0933
 7680TIP3    H244456   5.731   4.097   4.133  0.2628 -0.7093 -0.7379
 7681TIP3   OH244457   0.295   2.570   2.970 -0.1729  0.1372  0.4605
 7681TIP3    H144458   0.258   2.650   3.008  0.1676  0.7561 -0.4814
 7681TIP3    H244459   0.367   2.548   3.028 -0.1076  0.6583  0.5849
 7682TIP3   OH244460   5.894   5.733   2.485 -0.2761 -0.3583  0.2546
 7682TIP3    H144461   5.881   5.740   2.580  0.7465 -0.5803  0.4301
 7682TIP3    H244462   5.922   5.642   2.472  4.5269  0.7977  0.4701
 7683TIP3   OH244463   1.756   1.557  13.071  0.4712 -0.2063 -0.4836
 7683TIP3    H144464   1.790   1.597  12.991  0.4943 -0.3738 -0.5591
 7683TIP3    H244465   1.795   1.469  13.071 -2.0584 -1.4679 -1.9961
 7684TIP3   OH244466   5.002   3.228  12.432 -0.5025 -0.0447  0.3855
 7684TIP3    H144467   5.027   3.258  12.345 -2.2159  1.6165  0.3989
 7684TIP3    H244468   5.051   3.285  12.492 -0.6543  0.0054  0.4638
 7685TIP3   OH244469   4.341   1.988  11.470 -0.0973  0.3045 -0.4067
 7685TIP3    H144470   4.414   1.955  11.524 -0.2909  1.4997  0.6193
 7685TIP3    H244471   4.268   1.995  11.531 -0.9228 -0.3205 -1.3100
 7686TIP3   OH244472   0.022   3.951  14.182 -0.2407  0.0405 -0.0363
 7686TIP3    H144473   0.071   3.999  14.116 -2.4369  1.1733 -0.9525
 7686TIP3    H244474  -0.059   3.925  14.138 -1.8678  0.9810  2.2047
 7687TIP3   OH244475   5.976   0.585  13.937 -0.4513 -0.0493  0.1779
 7687TIP3    H144476   6.004   0.651  14.000  0.7546 -0.5663  0.2141
 7687TIP3    H244477   6.005   0.502  13.975 -2.2396 -0.6721  0.3072
 7688TIP3   OH244478   2.373   4.655  11.889  0.1772  0.4740 -0.4476
 7688TIP3    H144479   2.315   4.694  11.823 -0.3254  0.0483 -0.2656
 7688TIP3    H244480   2.364   4.710  11.966  0.6716  0.9016 -0.6881
 7689TIP3   OH244481   1.210   5.004  13.336  0.0912 -0.2646 -0.4387
 7689TIP3    H144482   1.301   4.975  13.332  0.6980  1.4288  0.1532
 7689TIP3    H244483   1.190   5.006  13.430  0.8295  3.1472 -0.2010
 7690TIP3   OH244484   5.965   0.565   0.434  0.6619 -0.6248  0.5291
 7690TIP3    H144485   6.057   0.586   0.454  0.8842 -0.8965 -0.1719
 7690TIP3    H244486   5.959   0.574   0.339  0.5387 -2.7379  0.2797
 7691TIP3   OH244487   1.838   4.153   2.269 -0.0117  0.1345 -0.3572
 7691TIP3    H144488   1.764   4.184   2.217 -0.8341  1.0161  1.2860
 7691TIP3    H244489   1.820   4.184   2.357  1.7301 -0.6810  0.3183
 7692TIP3   OH244490   2.409   3.572  17.028 -0.5286 -0.5235  0.4709
 7692TIP3    H144491   2.394   3.520  16.949 -1.2754  1.9499 -1.1369
 7692TIP3    H244492   2.497   3.546  17.057  1.1310  0.5978 -3.0048
 7693TIP3   OH244493   5.072   3.104   2.089  0.2198  0.1359 -0.0333
 7693TIP3    H144494   5.088   3.191   2.124  0.0032  0.4022 -0.5913
 7693TIP3    H244495   5.158   3.075   2.057  0.1151  0.5119 -0.6650
 7694TIP3   OH244496   5.645   0.037  12.674 -0.0433 -0.7985  0.1652
 7694TIP3    H144497   5.618  -0.054  12.682 -1.1932 -0.5974 -1.0880
 7694TIP3    H244498   5.736   0.032  12.643 -0.4463 -1.5275 -0.9454
 7695TIP3   OH244499   4.681   4.830  15.633  0.3475  0.0009  0.2286
 7695TIP3    H144500   4.689   4.876  15.717  2.9425 -0.2644  0.1959
 7695TIP3    H244501   4.666   4.898  15.569 -1.9369  0.1930  0.8635
 7696TIP3   OH244502   4.492   4.792   1.108  0.2002  0.2877 -0.0378
 7696TIP3    H144503   4.458   4.725   1.166 -0.1587 -0.3333 -0.9431
 7696TIP3    H244504   4.531   4.857   1.167 -0.7420  0.0196  0.9170
 7697TIP3   OH244505   6.172   2.044  16.895  0.0323 -0.1500 -0.0517
 7697TIP3    H144506   6.224   2.078  16.824  1.9576 -1.3087  0.7259
 7697TIP3    H244507   6.229   2.048  16.972 -1.4420 -0.3286  1.1116
 7698TIP3   OH244508   4.083   0.324   5.534 -0.0673  0.6633  0.2565
 7698TIP3    H144509   4.122   0.407   5.506 -0.5639  1.2736  1.2844
 7698TIP3    H244510   4.082   0.330   5.630  0.3680 -0.7593  0.3652
 7699TIP3   OH244511   3.697   4.842  15.614 -0.1605  0.7593 -0.2750
 7699TIP3    H144512   3.679   4.921  15.664  0.6899 -0.0189  1.3500
 7699TIP3    H244513   3.787   4.819  15.636 -0.5675 -0.9579 -0.2403
 7700TIP3   OH244514   6.486   2.758  15.032 -0.3130  0.3317 -0.2949
 7700TIP3    H144515   6.524   2.842  15.057 -0.0579 -0.0926  0.7656
 7700TIP3    H244516   6.561   2.702  15.011 -0.3804 -0.1873  0.7969
 7701TIP3   OH244517   3.977   2.359  13.728 -0.0634 -0.7078  0.0062
 7701TIP3    H144518   4.013   2.273  13.749 -0.2247 -0.8962 -0.4622
 7701TIP3    H244519   3.940   2.348  13.641  1.3206  0.2796 -0.7363
 7702TIP3   OH244520   2.252   1.887   4.097  0.6939  0.3135 -0.5547
 7702TIP3    H144521   2.200   1.965   4.118  0.1857 -0.3882  0.9425
 7702TIP3    H244522   2.240   1.874   4.003 -0.7191  0.9776 -0.4849
 7703TIP3   OH244523   3.654   2.952  12.264 -0.2944 -0.1986  0.3942
 7703TIP3    H144524   3.702   2.976  12.343 -1.9500  0.1408  1.3444
 7703TIP3    H244525   3.578   2.902  12.295 -3.1994  3.2180 -0.4548
 7704TIP3   OH244526   4.975   3.502  16.111  0.5057  0.0883 -0.4415
 7704TIP3    H144527   4.948   3.593  16.098 -2.4100 -0.7994 -1.4397
 7704TIP3    H244528   5.043   3.488  16.044  0.4238  1.3084 -0.8063
 7705TIP3   OH244529   4.190   2.886   3.862  0.1113 -0.6561  0.0191
 7705TIP3    H144530   4.253   2.894   3.790 -1.7406  1.3359 -1.5240
 7705TIP3    H244531   4.237   2.918   3.939  1.4731 -0.7602 -0.7462
 7706TIP3   OH244532   6.587   4.298   0.726  0.1120 -0.1107  0.1362
 7706TIP3    H144533   6.639   4.347   0.662  2.5461 -1.0984  1.2423
 7706TIP3    H244534   6.551   4.365   0.784 -1.1901  0.7053 -1.5155
 7707TIP3   OH244535   2.146   4.030  14.227 -0.6765  0.7351  0.0193
 7707TIP3    H144536   2.205   3.970  14.273 -0.9956  1.9976  2.2439
 7707TIP3    H244537   2.199   4.065  14.155  0.3174 -0.3484  0.1994
 7708TIP3   OH244538   4.292   1.136   1.113  0.9812  0.1347  0.0533
 7708TIP3    H144539   4.357   1.068   1.097  2.3750  1.3301  0.5044
 7708TIP3    H244540   4.311   1.204   1.048  0.5631  0.7583  0.5684
 7709TIP3   OH244541   4.310   2.750   3.559  0.2641  0.2404  0.7799
 7709TIP3    H144542   4.272   2.811   3.495 -0.2494  0.0935  0.9423
 7709TIP3    H244543   4.357   2.807   3.621  0.1029  0.4395  0.7202
 7710TIP3   OH244544   2.779   2.768   2.172  0.8255 -0.0672 -0.6328
 7710TIP3    H144545   2.706   2.818   2.135  1.3290 -0.2031 -1.8363
 7710TIP3    H244546   2.845   2.835   2.193  0.1377  0.1314  1.0687
 7711TIP3   OH244547   3.128   3.976  12.925 -0.2826  0.1956 -0.7087
 7711TIP3    H144548   3.221   3.956  12.934 -0.3762 -0.0082 -0.1566
 7711TIP3    H244549   3.123   4.071  12.935 -0.0417  0.3076 -1.5776
 7712TIP3   OH244550   4.880   5.849  12.474  0.3127 -0.0125  0.1722
 7712TIP3    H144551   4.881   5.943  12.489  0.2177 -0.0908  0.6784
 7712TIP3    H244552   4.892   5.840  12.379 -2.3130  0.6012 -0.3193
 7713TIP3   OH244553   0.942   4.733  14.414 -0.2810  0.0780  0.0559
 7713TIP3    H144554   0.968   4.824  14.422  0.9148 -0.3734  1.7235
 7713TIP3    H244555   0.868   4.724  14.473 -1.3193  0.2583 -1.1690
 7714TIP3   OH244556   6.766   0.364   5.732 -0.1072  0.6538 -0.4075
 7714TIP3    H144557   6.711   0.437   5.702  0.2782  2.0545  1.9656
 7714TIP3    H244558   6.855   0.391   5.712 -0.0433  0.2011 -0.7384
 7715TIP3   OH244559   4.248   0.540   2.619  0.4713  0.0967  0.0490
 7715TIP3    H144560   4.168   0.491   2.638 -0.6892  1.4447 -1.0759
 7715TIP3    H244561   4.294   0.487   2.554 -1.1480  0.7857 -1.7512
 7716TIP3   OH244562   5.617   4.184  16.890 -0.0650 -0.3024  0.0835
 7716TIP3    H144563   5.528   4.157  16.916 -0.3128 -0.0790 -0.5112
 7716TIP3    H244564   5.604   4.238  16.813  0.4764  1.0885  0.9305
 7717TIP3   OH244565   4.057   1.449   4.933 -0.3638  0.1638  0.5989
 7717TIP3    H144566   3.989   1.469   4.996 -0.9268  0.8031 -0.1859
 7717TIP3    H244567   4.138   1.447   4.984 -1.0621 -1.5833  1.7200
 7718TIP3   OH244568   1.629   6.233   3.472  0.3337 -0.7181  0.9753
 7718TIP3    H144569   1.703   6.282   3.507 -1.0741  2.4374 -0.1276
 7718TIP3    H244570   1.611   6.273   3.387 -1.4604 -2.6465  0.3653
 7719TIP3   OH244571   1.585   3.588  12.726 -0.0490 -0.0088  0.2124
 7719TIP3    H144572   1.661   3.626  12.771  0.2494 -0.3267 -0.0089
 7719TIP3    H244573   1.624   3.538  12.654 -0.4241 -0.7990  0.5510
 7720TIP3   OH244574   6.645   1.895   2.935 -0.0487  0.0379  0.0210
 7720TIP3    H144575   6.657   1.803   2.912  1.1646  0.3674 -0.7708
 7720TIP3    H244576   6.656   1.942   2.853 -0.4043  0.9140  0.4587
 7721TIP3   OH244577   6.389   1.919   0.923  0.3798  0.4883 -0.3120
 7721TIP3    H144578   6.390   1.855   0.994  0.8500  0.2068 -0.5648
 7721TIP3    H244579   6.418   1.870   0.846 -1.0365  0.5500 -0.9116
 7722TIP3   OH244580   4.814   2.678   1.637  0.3942 -0.6943  0.7478
 7722TIP3    H144581   4.872   2.724   1.698  1.7637 -1.4274  0.0559
 7722TIP3    H244582   4.812   2.733   1.559 -0.4425 -0.3186  1.0233
 7723TIP3   OH244583   6.489   0.970  15.435  0.3970  0.2759 -0.4801
 7723TIP3    H144584   6.479   0.946  15.343 -1.2618  0.1578 -0.2946
 7723TIP3    H244585   6.583   0.984  15.446  0.5680  0.7748 -2.2963
 7724TIP3   OH244586   4.931   0.384   4.326  0.4063  0.5657 -0.4284
 7724TIP3    H144587   4.883   0.367   4.406  2.1601 -0.6057  0.4417
 7724TIP3    H244588   4.959   0.476   4.333  2.0792  0.0039  1.2397
 7725TIP3   OH244589   0.482   4.743  16.910 -0.1172  0.2724  0.0043
 7725TIP3    H144590   0.552   4.770  16.851  0.3286 -0.3384  0.2511
 7725TIP3    H244591   0.503   4.653  16.934 -0.2366  0.5344  1.1600
 7726TIP3   OH244592   5.502   3.151  16.258  0.4059 -0.2690  0.3350
 7726TIP3    H144593   5.471   3.201  16.333 -0.1880 -0.0552 -0.0453
 7726TIP3    H244594   5.423   3.133  16.206  0.2865 -3.0819  1.2980
 7727TIP3   OH244595   5.200   3.351  12.572  0.5120 -0.2803  0.0284
 7727TIP3    H144596   5.242   3.430  12.539  0.7025 -0.5555 -0.3966
 7727TIP3    H244597   5.261   3.315  12.636  0.3994 -0.0555  0.2635
 7728TIP3   OH244598   4.753   6.095  12.222 -0.2945 -0.7628 -0.2398
 7728TIP3    H144599   4.665   6.081  12.186  0.3488 -0.5811 -1.9757
 7728TIP3    H244600   4.792   6.161  12.166 -0.1046  1.5430  2.4013
 7729TIP3   OH244601   5.174   5.925  14.592  0.7202  0.2441 -0.1983
 7729TIP3    H144602   5.231   5.942  14.666  1.0069  1.3819 -0.6595
 7729TIP3    H244603   5.155   5.831  14.597  0.3150  0.3882  1.5918
 7730TIP3   OH244604   0.270   2.707  12.985 -0.0282  0.5060  0.2024
 7730TIP3    H144605   0.291   2.728  12.894 -0.4600 -1.0894 -0.3025
 7730TIP3    H244606   0.220   2.782  13.016  0.7504  1.3941 -0.6389
 7731TIP3   OH244607   1.162   4.644   1.186 -0.2007  0.0189  0.2825
 7731TIP3    H144608   1.217   4.706   1.138  0.4668  0.4949  1.6446
 7731TIP3    H244609   1.178   4.662   1.278 -1.6280 -0.7432  0.7171
 7732TIP3   OH244610   1.905   1.979   0.836 -0.5433  1.0044 -0.2085
 7732TIP3    H144611   1.843   2.030   0.783 -1.7429  1.4417  1.5359
 7732TIP3    H244612   1.921   1.900   0.784  0.2702  2.4822 -2.3440
 7733TIP3   OH244613   4.334   4.295  10.122 -0.3210  0.2573  0.2737
 7733TIP3    H144614   4.303   4.367  10.068  0.5872  0.4108 -0.0606
 7733TIP3    H244615   4.415   4.266  10.080 -0.6554 -0.9364  0.4276
 7734TIP3   OH244616   4.394   1.335   5.534  0.2503 -0.8065 -0.1490
 7734TIP3    H144617   4.435   1.415   5.565  1.3911 -1.5083  0.2215
 7734TIP3    H244618   4.394   1.277   5.610 -0.6285 -1.1341 -0.3916
 7735TIP3   OH244619   5.739   5.147   2.457 -0.1702  0.3385  0.4898
 7735TIP3    H144620   5.645   5.163   2.448 -0.5207 -1.9668 -0.5134
 7735TIP3    H244621   5.780   5.231   2.436 -1.8755  0.5189 -2.6635
 7736TIP3   OH244622   2.637   6.080  16.195  0.1989  0.1639 -0.7445
 7736TIP3    H144623   2.592   6.031  16.127 -0.5961 -0.2011  0.0256
 7736TIP3    H244624   2.570   6.099  16.260  1.2764 -1.0690  0.8137
 7737TIP3   OH244625   1.471   5.226   1.269 -0.0950 -0.3715  0.1718
 7737TIP3    H144626   1.444   5.314   1.243 -1.9671 -1.0727 -0.4071
 7737TIP3    H244627   1.457   5.173   1.191 -2.3387 -1.8240  1.4590
 7738TIP3   OH244628   1.277   0.082   4.753 -0.1389 -0.3007 -0.4079
 7738TIP3    H144629   1.322   0.131   4.822  2.9236 -1.5941 -1.3348
 7738TIP3    H244630   1.293  -0.010   4.775 -2.1182 -0.8340 -1.0036
 7739TIP3   OH244631   3.937   0.798   0.592  0.0128 -0.0533 -0.1004
 7739TIP3    H144632   3.862   0.820   0.648 -0.2376  1.1486 -0.8676
 7739TIP3    H244633   3.906   0.726   0.538 -0.5057  0.2436 -0.2093
 7740TIP3   OH244634   1.376   3.452  12.474  0.4917  0.7966  0.4635
 7740TIP3    H144635   1.281   3.446  12.476  0.4195 -0.5052 -2.2823
 7740TIP3    H244636   1.406   3.373  12.520  0.2477  0.7967  0.6247
 7741TIP3   OH244637   1.006   0.017   2.548  0.0055 -0.2132  0.3028
 7741TIP3    H144638   0.938  -0.019   2.605 -0.9914  1.4366  0.2035
 7741TIP3    H244639   1.078  -0.045   2.556  0.0285  0.0266  3.6131
 7742TIP3   OH244640   0.238   1.359   4.088  0.2969 -0.2286  0.1672
 7742TIP3    H144641   0.213   1.292   4.152 -0.8871  1.3155  1.3941
 7742TIP3    H244642   0.331   1.374   4.105  0.5380 -1.4210 -0.0170
 7743TIP3   OH244643   5.194   3.165  15.726 -0.4847 -0.3588  0.7272
 7743TIP3    H144644   5.273   3.145  15.776  0.4208 -1.7549 -1.1152
 7743TIP3    H244645   5.227   3.189  15.639 -2.0359  0.6904  0.4034
 7744TIP3   OH244646   4.601   1.807  17.149 -0.2589  0.0516 -0.1058
 7744TIP3    H144647   4.619   1.762  17.231 -0.4389 -0.6369 -0.4317
 7744TIP3    H244648   4.612   1.740  17.082  2.2819  1.1392 -0.9038
 7745TIP3   OH244649   5.033   0.400   1.152  0.0867  0.3905 -0.5162
 7745TIP3    H144650   5.091   0.334   1.190 -0.7471 -0.5949 -0.9111
 7745TIP3    H244651   5.089   0.476   1.137  1.2677 -0.5287 -0.8837
 7746TIP3   OH244652   5.552   3.275  12.485 -0.0918 -0.3391 -0.4114
 7746TIP3    H144653   5.515   3.219  12.417  3.2854 -2.1819 -0.9173
 7746TIP3    H244654   5.576   3.355  12.440  0.2630 -0.7464 -0.9549
 7747TIP3   OH244655   6.108   3.890  10.471 -0.0167  0.1304  0.0851
 7747TIP3    H144656   6.038   3.949  10.444  1.4958  1.3472 -1.4252
 7747TIP3    H244657   6.081   3.858  10.557 -1.6671  1.7710  0.2436
 7748TIP3   OH244658   1.413   4.641  16.778 -0.3720  0.5273  0.7732
 7748TIP3    H144659   1.488   4.586  16.798 -0.3200  0.4216  0.2808
 7748TIP3    H244660   1.441   4.695  16.705 -1.2380 -0.4923 -0.3531
 7749TIP3   OH244661   6.227   2.746  11.157  0.2301  0.4524 -0.7487
 7749TIP3    H144662   6.177   2.807  11.102  0.0850 -1.1042 -2.4533
 7749TIP3    H244663   6.254   2.677  11.097  0.5985 -1.0557  1.0641
 7750TIP3   OH244664   5.269   6.009   2.935  0.7978 -0.1150 -0.4854
 7750TIP3    H144665   5.320   5.956   2.874  2.0542 -0.7800  1.0653
 7750TIP3    H244666   5.334   6.042   2.998 -0.7315 -1.6891  2.0833
 7751TIP3   OH244667   6.194   6.277   0.704 -0.4258  0.0405  0.2792
 7751TIP3    H144668   6.137   6.202   0.689 -1.3105  0.3993  1.6309
 7751TIP3    H244669   6.139   6.353   0.687 -0.0669  0.3941  0.6595
 7752TIP3   OH244670   4.956   0.570  14.348  0.5444  0.6339  0.1982
 7752TIP3    H144671   4.924   0.599  14.263 -3.3363 -2.6443  0.2530
 7752TIP3    H244672   5.013   0.495  14.328  0.3651  0.4324  0.4307
 7753TIP3   OH244673   5.176   1.751   3.004  0.1844 -0.2809  0.3993
 7753TIP3    H144674   5.208   1.715   2.922  0.3142  0.5677  0.0614
 7753TIP3    H244675   5.183   1.679   3.067  0.7657 -0.7295 -0.1649
 7754TIP3   OH244676   2.488   5.522  10.726 -0.6062  0.2439 -0.6430
 7754TIP3    H144677   2.400   5.533  10.691 -1.3853  0.4369  1.2714
 7754TIP3    H244678   2.477   5.525  10.821  1.5471  0.9500 -0.3548
 7755TIP3   OH244679   6.750   6.082  13.122 -0.1982 -0.6115 -0.6420
 7755TIP3    H144680   6.724   6.000  13.079  1.1914 -1.3525 -0.1264
 7755TIP3    H244681   6.715   6.150  13.065 -0.5345 -1.5575 -1.6112
 7756TIP3   OH244682   0.909   3.461  10.802  0.2212  0.2153 -0.7013
 7756TIP3    H144683   0.940   3.511  10.727  1.3457  0.2452 -0.2334
 7756TIP3    H244684   0.933   3.371  10.782  3.2734  0.5546  0.8886
 7757TIP3   OH244685   5.690   1.803  15.535  0.0161  0.1026 -0.4262
 7757TIP3    H144686   5.628   1.729  15.535  0.1259 -0.0489  2.0439
 7757TIP3    H244687   5.716   1.811  15.443 -3.7433  0.2833 -1.6777
 7758TIP3   OH244688   6.485   3.039   4.893 -0.2659 -0.2412  0.1938
 7758TIP3    H144689   6.533   3.027   4.974  0.6845 -0.3690 -0.3723
 7758TIP3    H244690   6.496   2.957   4.845  0.8329  0.5113 -0.9012
 7759TIP3   OH244691   0.126   1.030  12.486  0.4479  0.7920  0.4477
 7759TIP3    H144692   0.085   0.969  12.424 -0.8294  0.5903  1.4426
 7759TIP3    H244693   0.082   1.114  12.468  3.2892  1.9441 -2.0090
 7760TIP3   OH244694   0.451   3.753   6.242 -0.2120 -0.8382  0.3242
 7760TIP3    H144695   0.388   3.810   6.197  1.7969  0.0030 -1.6024
 7760TIP3    H244696   0.406   3.669   6.248 -0.9131 -0.8000 -2.6789
 7761TIP3   OH244697   4.898   4.691  15.561  0.0755  0.4375  0.1085
 7761TIP3    H144698   4.827   4.745  15.596 -0.2375 -0.6121  1.1565
 7761TIP3    H244699   4.882   4.604  15.598  2.3177  0.3364  0.9646
 7762TIP3   OH244700   6.200   3.068  15.867  0.1799  0.6753 -1.1167
 7762TIP3    H144701   6.220   2.982  15.831 -0.3230  0.5837 -1.1746
 7762TIP3    H244702   6.122   3.055  15.921  0.5277  0.9501 -0.5349
 7763TIP3   OH244703   4.119   3.958  12.800  0.5794 -0.2080 -0.4264
 7763TIP3    H144704   4.076   4.039  12.829 -0.3706 -0.2942 -1.5442
 7763TIP3    H244705   4.048   3.904  12.767  1.4964 -0.5005 -1.9736
 7764TIP3   OH244706   1.049   2.397   0.024  0.0841  0.5414  0.3718
 7764TIP3    H144707   1.098   2.350   0.091  0.0300 -0.6918 -0.4339
 7764TIP3    H244708   1.098   2.478   0.011  2.0399 -0.7275 -0.5458
 7765TIP3   OH244709   3.620   3.336  15.088  0.4156 -0.0858  0.7860
 7765TIP3    H144710   3.689   3.278  15.057  0.1168  0.1216 -0.3137
 7765TIP3    H244711   3.589   3.296  15.169 -0.4481 -2.0438 -0.4189
 7766TIP3   OH244712   1.245   2.642   3.512 -0.6749 -0.1250  0.5956
 7766TIP3    H144713   1.222   2.679   3.597  0.3240 -0.1489  0.8971
 7766TIP3    H244714   1.340   2.654   3.506 -0.8645  0.9183 -1.0195
 7767TIP3   OH244715   4.116   6.138   4.359  0.0362  1.2145 -0.4396
 7767TIP3    H144716   4.173   6.080   4.409 -0.5192  0.8905 -0.1717
 7767TIP3    H244717   4.159   6.147   4.274  0.8191  1.5079 -0.0271
 7768TIP3   OH244718   6.195   6.157   5.059  0.6506  0.0497  0.1091
 7768TIP3    H144719   6.130   6.213   5.102  0.6901  0.4322 -0.3152
 7768TIP3    H244720   6.266   6.149   5.122  1.5640  2.1409 -0.5420
 7769TIP3   OH244721   2.786   3.863  11.325 -0.6056 -0.1831  0.3828
 7769TIP3    H144722   2.850   3.836  11.260 -1.6754 -0.5735 -0.5444
 7769TIP3    H244723   2.702   3.829  11.292 -1.3299  0.5282  1.4168
 7770TIP3   OH244724   4.760   6.283  16.351  0.2501 -0.1713 -0.2091
 7770TIP3    H144725   4.675   6.312  16.320  0.5888  0.3293 -0.6871
 7770TIP3    H244726   4.743   6.198  16.392 -0.9759  1.1582  2.3119
 7771TIP3   OH244727   3.809   5.127  15.705  0.2321 -0.1330 -0.5330
 7771TIP3    H144728   3.805   5.068  15.780  1.6158  1.7179  1.1146
 7771TIP3    H244729   3.881   5.093  15.652  0.0455 -0.7630 -0.3932
 7772TIP3   OH244730   0.213   0.780  10.358 -0.1960 -0.3095  0.3965
 7772TIP3    H144731   0.266   0.839  10.304 -0.1532 -0.1099  0.6539
 7772TIP3    H244732   0.275   0.713  10.387  0.0973  0.3409  1.3185
 7773TIP3   OH244733   2.830   2.365   1.627 -0.6049 -0.2300  0.5009
 7773TIP3    H144734   2.826   2.291   1.567 -1.5159 -1.1335  1.6437
 7773TIP3    H244735   2.924   2.374   1.647 -0.3523 -0.2519 -0.6167
 7774TIP3   OH244736   1.150   2.725   3.258 -0.3747 -0.0917  0.4824
 7774TIP3    H144737   1.145   2.649   3.200  2.8225 -0.9009  1.0785
 7774TIP3    H244738   1.152   2.688   3.346 -1.5170  0.9116  0.9667
 7775TIP3   OH244739   1.617   2.439  16.485 -0.4990  0.2698 -0.5389
 7775TIP3    H144740   1.664   2.367  16.526 -1.8197  0.3041  1.1356
 7775TIP3    H244741   1.540   2.399  16.445 -0.7043  0.6136 -0.4962
 7776TIP3   OH244742   4.818   1.075  12.507  0.1701 -0.0187 -0.4849
 7776TIP3    H144743   4.746   1.032  12.553 -1.3384  1.7118 -1.1019
 7776TIP3    H244744   4.824   1.030  12.423 -0.1239 -0.2483 -0.3829
 7777TIP3   OH244745   3.567   4.650   0.064  0.0424 -0.2787 -0.4398
 7777TIP3    H144746   3.641   4.666   0.123  0.2181  0.7047 -0.9064
 7777TIP3    H244747   3.590   4.695  -0.017 -1.1343  0.2074 -0.5380
 7778TIP3   OH244748   6.777   5.621  10.668 -0.2245 -0.6134 -0.0185
 7778TIP3    H144749   6.836   5.696  10.658 -1.8235  0.6578 -0.3711
 7778TIP3    H244750   6.815   5.570  10.739  1.4485 -0.0102 -0.4428
 7779TIP3   OH244751   4.442   2.882  12.680  0.0366 -0.8520  0.2093
 7779TIP3    H144752   4.448   2.858  12.773  1.1658  2.6618  1.2366
 7779TIP3    H244753   4.495   2.962  12.673 -2.6544  0.9126 -2.7575
 7780TIP3   OH244754   5.715   0.623  11.832  0.0307 -0.1451 -0.3043
 7780TIP3    H144755   5.762   0.541  11.818 -0.7256 -0.5221 -0.6900
 7780TIP3    H244756   5.707   0.630  11.927 -0.1252 -0.6491 -0.2784
 7781TIP3   OH244757   1.316   5.470  13.916  0.5309 -0.9443 -0.1984
 7781TIP3    H144758   1.288   5.559  13.896 -0.0570 -0.6822  1.6453
 7781TIP3    H244759   1.403   5.480  13.954  0.3318 -1.1164  0.3100
 7782TIP3   OH244760   5.831   6.744  13.871 -0.6246 -0.2299 -1.1707
 7782TIP3    H144761   5.792   6.751  13.958  0.1153 -0.4794 -0.8112
 7782TIP3    H244762   5.842   6.834  13.842  0.6986 -0.0745 -0.2810
 7783TIP3   OH244763   5.142   6.165  16.809 -0.2058 -0.3817 -0.0441
 7783TIP3    H144764   5.201   6.182  16.736  1.5694  0.3960  1.4991
 7783TIP3    H244765   5.198   6.126  16.876 -1.2924  0.9685  1.7189
 7784TIP3   OH244766   2.901   4.353   4.551  0.5418  0.0852  0.1496
 7784TIP3    H144767   2.959   4.419   4.513 -0.6400  0.5454 -0.9259
 7784TIP3    H244768   2.853   4.399   4.620  1.1647 -0.1927  0.7752
 7785TIP3   OH244769   0.097   0.568  11.987  0.0308  0.3034  0.6753
 7785TIP3    H144770   0.174   0.621  12.006 -0.0897  1.5607 -1.8385
 7785TIP3    H244771   0.023   0.619  12.019 -0.0265  1.3823 -1.0471
 7786TIP3   OH244772   2.709   1.845   4.101 -0.1780  0.7451 -0.3373
 7786TIP3    H144773   2.663   1.774   4.145  0.0169 -0.0182 -1.3386
 7786TIP3    H244774   2.666   1.855   4.016 -0.2484  1.8785 -0.1901
 7787TIP3   OH244775   2.048   5.344  14.417 -0.0121 -0.1801  1.0771
 7787TIP3    H144776   2.030   5.259  14.377 -1.9522  1.3317 -1.6248
 7787TIP3    H244777   2.001   5.342  14.500  1.0406 -2.1220  1.6980
 7788TIP3   OH244778   4.815   5.291  12.132 -0.1541 -0.0348 -0.1138
 7788TIP3    H144779   4.877   5.356  12.098  0.0338 -0.1037  0.0949
 7788TIP3    H244780   4.868   5.234  12.188 -0.6670  0.7721  1.2286
 7789TIP3   OH244781   1.254   4.275  15.597  0.1630  0.2224 -0.7435
 7789TIP3    H144782   1.235   4.290  15.689  0.5170  0.4693 -0.7100
 7789TIP3    H244783   1.334   4.223  15.596 -0.3908 -0.6569 -0.8903
 7790TIP3   OH244784   1.407   2.243  16.435 -0.4972  0.0654 -0.1109
 7790TIP3    H144785   1.321   2.274  16.406  0.7867  1.6844 -2.5849
 7790TIP3    H244786   1.410   2.152  16.407 -0.8105  0.4792 -1.5694
 7791TIP3   OH244787   1.338   6.193   5.867  0.5887  0.2970 -0.0938
 7791TIP3    H144788   1.299   6.160   5.948 -1.0010  1.2052 -0.4462
 7791TIP3    H244789   1.373   6.279   5.891  0.5521  0.3541 -0.2441
 7792TIP3   OH244790   1.356   1.091  12.066 -0.1249 -0.3446 -0.4941
 7792TIP3    H144791   1.437   1.111  12.019  0.9956 -0.7230  1.1864
 7792TIP3    H244792   1.293   1.156  12.036  1.1581  0.7214 -0.9520
 7793TIP3   OH244793   3.979   4.563  12.026 -0.0166  0.1401 -0.4679
 7793TIP3    H144794   3.976   4.612  12.108 -0.6980 -1.9289  0.8252
 7793TIP3    H244795   3.914   4.605  11.970 -1.6959 -0.1677  1.1568
 7794TIP3   OH244796   2.326   1.424  12.726  0.1981 -0.1320 -0.2848
 7794TIP3    H144797   2.325   1.353  12.662 -1.8101  0.5025 -1.0194
 7794TIP3    H244798   2.394   1.398  12.788  2.7398 -0.4650 -2.9547
 7795TIP3   OH244799   6.517   3.778   1.597 -0.0749 -0.5363 -0.1341
 7795TIP3    H144800   6.451   3.789   1.529 -0.7529 -1.5652  0.3336
 7795TIP3    H244801   6.564   3.698   1.574  1.1219  0.2549 -0.5316
 7796TIP3   OH244802   1.284   2.725  15.750  0.3364  0.5358 -0.3597
 7796TIP3    H144803   1.245   2.681  15.674 -0.6979  0.4966  0.1763
 7796TIP3    H244804   1.222   2.794  15.772  1.0758  1.1218 -0.0963
 7797TIP3   OH244805   1.664   1.212  10.764  0.2987 -0.4480 -0.0632
 7797TIP3    H144806   1.710   1.207  10.680 -1.0421 -2.5710 -0.7645
 7797TIP3    H244807   1.590   1.152  10.754 -0.4296 -0.0654  2.3484
 7798TIP3   OH244808   2.709   4.292  12.739 -0.5192  0.1026  0.2446
 7798TIP3    H144809   2.730   4.208  12.698  0.1220  0.3261  0.0989
 7798TIP3    H244810   2.617   4.306  12.718 -0.6689 -0.6209  0.3761
 7799TIP3   OH244811   3.823   6.128  13.604  0.0811 -0.2821 -0.1277
 7799TIP3    H144812   3.738   6.172  13.594 -0.0378 -0.4308  0.2017
 7799TIP3    H244813   3.816   6.048  13.552 -1.1438 -1.9130  2.3323
 7800TIP3   OH244814   4.381   6.233   5.228 -0.1798  0.1860 -0.2734
 7800TIP3    H144815   4.350   6.239   5.319 -0.7731 -0.8742 -0.3842
 7800TIP3    H244816   4.301   6.244   5.176 -0.1674 -1.1342 -0.6046
 7801TIP3   OH244817   6.782   4.615  12.204 -0.2513  0.4506 -0.1003
 7801TIP3    H144818   6.855   4.562  12.173  0.8693  0.6938  1.9675
 7801TIP3    H244819   6.740   4.647  12.124  1.0359 -0.8394 -1.3501
 7802TIP3   OH244820   6.544   0.543   2.010  0.0022  0.3404 -0.8047
 7802TIP3    H144821   6.548   0.511   1.920  2.1451  1.2843 -1.1147
 7802TIP3    H244822   6.555   0.638   2.003  1.3229  0.3232  0.4680
 7803TIP3   OH244823   2.678   3.505  13.434  0.2088  0.3294 -0.1784
 7803TIP3    H144824   2.734   3.580  13.418  1.6081 -0.3826  1.0906
 7803TIP3    H244825   2.663   3.467  13.348  1.2191  0.8711 -0.6100
 7804TIP3   OH244826   4.003   6.521   4.154  0.5662  0.0045  0.0813
 7804TIP3    H144827   3.966   6.469   4.082  0.6719 -1.2186  0.8920
 7804TIP3    H244828   4.097   6.515   4.141  0.5674  0.9107 -0.4371
 7805TIP3   OH244829   2.490   4.248   2.745 -0.3360 -0.0734  0.3257
 7805TIP3    H144830   2.438   4.174   2.777  0.8183 -0.4810  1.3018
 7805TIP3    H244831   2.505   4.302   2.822  0.5988  0.0894  0.0348
 7806TIP3   OH244832   1.484   5.035  11.236 -0.2264 -0.0068  0.6740
 7806TIP3    H144833   1.545   4.962  11.228  0.0109  0.2365  0.2164
 7806TIP3    H244834   1.539   5.112  11.250 -0.4722  0.0993  1.0963
 7807TIP3   OH244835   5.532   0.100  10.056 -0.8549 -0.6775  0.5583
 7807TIP3    H144836   5.511   0.007  10.043 -0.9432 -0.8701  1.9367
 7807TIP3    H244837   5.469   0.130  10.121  0.0218  0.0022  1.1146
 7808TIP3   OH244838   1.672   4.803  12.843  0.0303 -0.1401 -0.3944
 7808TIP3    H144839   1.677   4.710  12.820  0.3735 -0.5407  1.2230
 7808TIP3    H244840   1.704   4.848  12.765 -0.4699 -1.3446 -1.3353
 7809TIP3   OH244841   5.305   6.391  16.390 -0.0958 -0.3069  0.1107
 7809TIP3    H144842   5.395   6.420  16.376 -0.3310 -0.2164 -1.4082
 7809TIP3    H244843   5.261   6.467  16.428  0.2503 -0.0329 -0.0269
 7810TIP3   OH244844   3.477   2.562   2.448 -0.7291  0.2114  0.1935
 7810TIP3    H144845   3.526   2.522   2.376 -2.8547 -0.9970 -0.6636
 7810TIP3    H244846   3.508   2.517   2.526  1.6373  1.5709  0.1417
 7811TIP3   OH244847   1.624   6.421  16.391 -0.1850 -0.0559  0.5247
 7811TIP3    H144848   1.676   6.382  16.321 -0.8721  1.9110 -1.2056
 7811TIP3    H244849   1.544   6.451  16.347 -1.0342  0.4558  2.3397
 7812TIP3   OH244850   0.918   0.415   4.295  0.2770  0.0232 -0.2167
 7812TIP3    H144851   0.886   0.435   4.383  1.5176 -1.5407  0.6363
 7812TIP3    H244852   0.937   0.322   4.296 -0.5405 -0.2306 -2.4604
 7813TIP3   OH244853   4.030   3.285  10.914  0.2031  0.1645 -0.3047
 7813TIP3    H144854   4.046   3.263  10.822  0.0431  0.2904 -0.3636
 7813TIP3    H244855   4.040   3.203  10.961 -0.7121 -0.1096 -0.5608
 7814TIP3   OH244856   5.783   3.774  16.934 -0.0511 -0.3937 -0.1687
 7814TIP3    H144857   5.779   3.683  16.905 -0.8375 -0.3125 -0.3488
 7814TIP3    H244858   5.701   3.812  16.904  0.9145  0.7832 -1.4095
 7815TIP3   OH244859   1.260   5.588   4.823  0.0416  0.0525 -0.1637
 7815TIP3    H144860   1.245   5.548   4.737 -0.4664 -0.8786  0.3520
 7815TIP3    H244861   1.334   5.540   4.859 -0.6926 -0.5674  0.5412
 7816TIP3   OH244862   4.555   5.166  12.671 -0.2398 -0.3793  0.0085
 7816TIP3    H144863   4.551   5.180  12.766 -1.5166 -0.1081 -0.0687
 7816TIP3    H244864   4.543   5.072  12.660  3.2845 -0.9952  0.2518
 7817TIP3   OH244865   4.264   2.408   4.349 -0.2251 -0.2149 -0.4030
 7817TIP3    H144866   4.286   2.484   4.295 -0.2654  0.5332  0.6030
 7817TIP3    H244867   4.349   2.371   4.374 -0.2086 -0.6492 -1.0883
 7818TIP3   OH244868   3.046   4.683  15.213  0.1441 -0.1310 -0.9185
 7818TIP3    H144869   3.087   4.664  15.129 -0.5241 -1.3364 -1.0001
 7818TIP3    H244870   3.118   4.678  15.276  0.8711  1.9481 -1.5173
 7819TIP3   OH244871   4.297   4.630  12.577 -0.2387  0.5790 -0.1275
 7819TIP3    H144872   4.300   4.578  12.497 -1.4996  2.6147 -1.5758
 7819TIP3    H244873   4.372   4.689  12.570 -0.7861  1.2729 -0.1837
 7820TIP3   OH244874   4.314   5.610  15.253  0.0233  0.3509 -0.1688
 7820TIP3    H144875   4.316   5.679  15.319 -0.3346  1.1391 -0.9589
 7820TIP3    H244876   4.402   5.573  15.253  0.4461  1.3487 -0.2842
 7821TIP3   OH244877   2.398   1.394   2.427 -0.2055 -0.4928 -0.0338
 7821TIP3    H144878   2.427   1.308   2.396 -0.9706 -0.9619  0.4788
 7821TIP3    H244879   2.468   1.424   2.485 -0.0669 -0.9278  0.0324
 7822TIP3   OH244880   0.158   6.091  11.039 -0.2723  0.0985  0.2882
 7822TIP3    H144881   0.073   6.127  11.013  0.3096  2.3588  1.2760
 7822TIP3    H244882   0.200   6.067  10.956 -1.2103  0.5586 -0.3374
 7823TIP3   OH244883   5.655   3.734  11.521  0.1281 -0.0399 -0.8390
 7823TIP3    H144884   5.632   3.662  11.579 -1.1691  1.6635  0.8547
 7823TIP3    H244885   5.579   3.746  11.465 -0.3073  0.9744 -0.0654
 7824TIP3   OH244886   1.937   4.404   4.136 -0.0504  0.4294  0.6451
 7824TIP3    H144887   1.872   4.346   4.175  1.7686 -1.3613  1.1843
 7824TIP3    H244888   1.931   4.389   4.042  0.5289 -0.8201  0.7932
 7825TIP3   OH244889   6.636   3.185   0.460 -0.6798  0.2878 -0.4667
 7825TIP3    H144890   6.563   3.125   0.476 -1.2046  0.3759 -2.3132
 7825TIP3    H244891   6.602   3.271   0.486 -0.0851 -0.0797  1.7360
 7826TIP3   OH244892   3.767   1.650   2.268  0.0556  0.5589 -0.4485
 7826TIP3    H144893   3.705   1.606   2.327 -0.4231  0.3240 -1.1157
 7826TIP3    H244894   3.728   1.641   2.181  0.4883  1.3608 -0.7390
 7827TIP3   OH244895   6.677   4.286   1.462  0.1143  0.1753 -0.1738
 7827TIP3    H144896   6.632   4.208   1.430  0.2053 -0.2590  0.7251
 7827TIP3    H244897   6.619   4.359   1.440 -1.5176 -0.4460  1.7439
 7828TIP3   OH244898   6.774   5.461   5.338 -0.2197 -0.2797 -0.2561
 7828TIP3    H144899   6.758   5.458   5.433 -1.4723  2.4032 -0.2727
 7828TIP3    H244900   6.787   5.554   5.320  0.8738 -0.8272 -2.6282
 7829TIP3   OH244901   6.282   3.328   0.709  0.1013 -0.8575 -0.0285
 7829TIP3    H144902   6.336   3.371   0.642  1.4508 -1.5030  0.5951
 7829TIP3    H244903   6.219   3.394   0.736  0.5714 -0.0748 -0.8155
 7830TIP3   OH244904   1.303   5.871  14.150  0.0115  0.2260  0.5191
 7830TIP3    H144905   1.369   5.930  14.187 -0.3659  0.2332  1.2009
 7830TIP3    H244906   1.269   5.824  14.225  0.8158 -1.4061 -0.0944
 7831TIP3   OH244907   1.788   4.053   0.444 -0.6797 -0.7455 -0.1491
 7831TIP3    H144908   1.779   4.035   0.538  4.3989 -0.2985  0.7063
 7831TIP3    H244909   1.758   4.143   0.434  1.5525  0.3618  1.8830
 7832TIP3   OH244910   6.695   1.185   3.516  0.1465 -0.2537 -0.2930
 7832TIP3    H144911   6.735   1.138   3.589  1.6858  0.5553 -0.5639
 7832TIP3    H244912   6.705   1.127   3.441  0.3261 -0.2790 -0.2491
 7833TIP3   OH244913   5.992   4.824  11.109 -0.1325  0.1862  0.4399
 7833TIP3    H144914   6.039   4.879  11.172 -1.1539  0.0443  1.3520
 7833TIP3    H244915   6.035   4.841  11.026 -0.7783  2.8600  0.5538
 7834TIP3   OH244916   3.172   4.844   5.926 -0.2677 -0.6301  0.1696
 7834TIP3    H144917   3.093   4.884   5.889  0.0669  0.2470  0.3616
 7834TIP3    H244918   3.151   4.831   6.018 -0.2272 -0.4910  0.1988
 7835TIP3   OH244919   6.393   6.634   4.324 -0.4528  0.0397 -0.1521
 7835TIP3    H144920   6.439   6.630   4.240  0.2187 -1.8442  0.2642
 7835TIP3    H244921   6.407   6.723   4.355  2.5703 -0.3025 -0.2715
 7836TIP3   OH244922   3.692   1.240  14.407 -0.1019 -0.1797  0.0197
 7836TIP3    H144923   3.665   1.321  14.450 -2.4894 -2.0067  2.2392
 7836TIP3    H244924   3.726   1.185  14.479  0.3715 -1.5751 -1.2232
 7837TIP3   OH244925   1.247   4.954   3.681 -0.2932  0.1917  0.2219
 7837TIP3    H144926   1.324   4.965   3.624 -0.6065  1.1857 -0.0160
 7837TIP3    H244927   1.186   5.021   3.652 -1.3156 -0.6601  0.3338
 7838TIP3   OH244928   2.040   4.850  14.582 -0.0147 -0.3001 -0.2928
 7838TIP3    H144929   2.046   4.944  14.600  0.2064 -0.3743  0.0316
 7838TIP3    H244930   2.088   4.809  14.654  0.2044 -0.6457 -0.6387
 7839TIP3   OH244931   2.056   4.741   0.534 -0.4889 -0.1193  0.1026
 7839TIP3    H144932   2.105   4.660   0.547  1.1495  1.0354  1.6101
 7839TIP3    H244933   1.972   4.726   0.577  1.2109  0.1905  3.9560
 7840TIP3   OH244934   4.653   4.419  11.984 -0.0467  0.2559 -0.2243
 7840TIP3    H144935   4.581   4.381  12.034  0.8589 -2.6132 -0.9341
 7840TIP3    H244936   4.724   4.430  12.047  0.1454 -0.6312 -0.2720
 7841TIP3   OH244937   4.813   1.151  12.853 -0.4185  0.1791 -0.0347
 7841TIP3    H144938   4.751   1.171  12.923  0.4034  0.3483  0.6668
 7841TIP3    H244939   4.776   1.076  12.808 -2.6099  1.9740 -1.4835
 7842TIP3   OH244940   1.684   0.479  15.644 -0.2254 -0.0284  0.0469
 7842TIP3    H144941   1.675   0.403  15.702 -0.8072  0.0142  0.0206
 7842TIP3    H244942   1.595   0.496  15.613  0.1006 -0.1488 -0.9865
 7843TIP3   OH244943   1.834   5.178   2.061 -0.0932  0.4680  0.3243
 7843TIP3    H144944   1.768   5.153   1.996  0.0927  1.2992 -0.2028
 7843TIP3    H244945   1.918   5.160   2.019  0.0482  1.9363 -0.0889
 7844TIP3   OH244946   1.014   3.716  14.060  0.0986  0.0460 -0.2684
 7844TIP3    H144947   0.940   3.743  14.115  0.2356  0.8879 -0.4870
 7844TIP3    H244948   1.062   3.653  14.114  0.6310  1.3827  0.8625
 7845TIP3   OH244949   0.960   3.234   5.707 -0.1680 -0.0202  0.1764
 7845TIP3    H144950   1.042   3.279   5.725  0.0055  0.7438 -2.1529
 7845TIP3    H244951   0.903   3.301   5.670 -1.0487 -1.0218 -0.3474
 7846TIP3   OH244952   2.581   4.521  13.441  0.4772 -0.2574  0.6977
 7846TIP3    H144953   2.530   4.595  13.409 -0.5387 -1.7811 -1.4961
 7846TIP3    H244954   2.672   4.551  13.438  0.0863  0.9242 -0.0569
 7847TIP3   OH244955   6.433   5.130  12.312 -0.2629  0.0959  0.5941
 7847TIP3    H144956   6.395   5.218  12.312  2.2479  1.2520  0.1837
 7847TIP3    H244957   6.380   5.082  12.376  0.0021  2.7161  3.0050
 7848TIP3   OH244958   2.526   3.607  11.693  0.0646  0.4354  0.1440
 7848TIP3    H144959   2.473   3.540  11.650 -0.5780  0.6671  0.5550
 7848TIP3    H244960   2.468   3.682  11.700  0.9084  1.1821 -0.6666
 7849TIP3   OH244961   1.658   2.035   2.809 -0.4379  0.0524  0.2974
 7849TIP3    H144962   1.704   2.117   2.792 -0.0638  0.3776  2.5085
 7849TIP3    H244963   1.570   2.062   2.835 -1.5322 -0.4975 -2.5121
 7850TIP3   OH244964   2.303   5.898  16.214 -0.2929 -0.0898  0.5536
 7850TIP3    H144965   2.321   5.908  16.307  2.0033 -0.0485  0.1719
 7850TIP3    H244966   2.292   5.988  16.182 -2.7186 -0.1633  1.0021
 7851TIP3   OH244967   2.170   0.225  11.384 -0.3401 -0.4286  0.1079
 7851TIP3    H144968   2.257   0.190  11.360 -0.7557 -1.1274 -0.4399
 7851TIP3    H244969   2.116   0.147  11.395 -0.9655  0.0160  0.2053
 7852TIP3   OH244970   2.917   2.887  10.330 -0.4894  0.1258  0.6224
 7852TIP3    H144971   2.982   2.956  10.342 -0.9484  0.3536  1.9637
 7852TIP3    H244972   2.959   2.808  10.364 -0.2504 -0.1231 -0.2111
 7853TIP3   OH244973   4.593   4.052  12.493  0.7047 -0.5193  0.8395
 7853TIP3    H144974   4.524   3.986  12.480  0.4375 -0.0203 -0.3489
 7853TIP3    H244975   4.643   4.051  12.411 -0.1962  1.7721  0.1808
 7854TIP3   OH244976   3.472   3.358   3.316  0.9334  0.4298 -0.3744
 7854TIP3    H144977   3.452   3.451   3.305 -0.1114  0.1963 -0.5643
 7854TIP3    H244978   3.541   3.340   3.251  1.1728  1.0741 -0.3051
 7855TIP3   OH244979   6.160   4.451   3.756 -0.2888  0.2930 -0.2712
 7855TIP3    H144980   6.101   4.388   3.798  0.1538 -1.0556 -1.5775
 7855TIP3    H244981   6.246   4.433   3.795 -0.1609  0.0752 -0.6491
 7856TIP3   OH244982   6.338   4.551   2.619 -0.6133 -0.4560  0.1231
 7856TIP3    H144983   6.317   4.636   2.658 -0.7176 -0.2732 -0.3288
 7856TIP3    H244984   6.253   4.514   2.595 -0.4560  0.3066 -1.7489
 7857TIP3   OH244985   0.038   2.495   4.807  0.5420  0.1664  0.1750
 7857TIP3    H144986   0.094   2.525   4.736  1.1297  2.6955  1.5573
 7857TIP3    H244987  -0.051   2.501   4.773  0.9177 -1.2154 -1.1418
 7858TIP3   OH244988   5.149   0.401  11.189 -0.7729  0.1882 -0.1565
 7858TIP3    H144989   5.175   0.422  11.099  1.1801 -0.4201  0.2041
 7858TIP3    H244990   5.120   0.485  11.225 -1.0018  0.5630 -1.1638
 7859TIP3   OH244991   0.258   1.444   4.474  0.5563 -0.2094 -0.2606
 7859TIP3    H144992   0.257   1.349   4.484  0.3015 -0.0934  0.9352
 7859TIP3    H244993   0.322   1.461   4.404  0.7697 -1.2360 -0.3194
 7860TIP3   OH244994   0.353   4.521   5.190  0.0609  0.1008  0.0421
 7860TIP3    H144995   0.404   4.486   5.263 -1.8000 -1.4286  0.7125
 7860TIP3    H244996   0.305   4.595   5.228  0.7644  0.7280 -0.2567
 7861TIP3   OH244997   4.046   2.342   0.305  0.0956  0.1984  0.5315
 7861TIP3    H144998   4.137   2.366   0.288  0.8596 -1.1618  2.4453
 7861TIP3    H244999   4.035   2.352   0.399 -0.9987 -1.9974  0.6958
 7862TIP3   OH245000   6.238   0.775   5.611 -0.0422 -0.1360  0.6555
 7862TIP3    H145001   6.159   0.804   5.656 -0.0918  0.3862  0.2507
 7862TIP3    H245002   6.283   0.719   5.674 -0.1622  0.4883  1.3086
 7863TIP3   OH245003   5.819   2.517   3.106  0.6817 -0.3992  0.2814
 7863TIP3    H145004   5.824   2.485   3.016  0.1635 -1.0188  0.4599
 7863TIP3    H245005   5.731   2.552   3.114  0.4023 -1.1870  0.8049
 7864TIP3   OH245006   3.052   0.669   2.811  0.0138 -0.1382  0.3776
 7864TIP3    H145007   3.007   0.602   2.863 -2.2911  1.7825  1.0218
 7864TIP3    H245008   3.091   0.728   2.876  2.4013 -0.9535 -0.1843
 7865TIP3   OH245009   6.125   0.809  12.785 -0.6514  0.9971 -0.1108
 7865TIP3    H145010   6.193   0.766  12.835  0.1173  2.0745 -0.1941
 7865TIP3    H245011   6.171   0.849  12.711 -1.3409  1.8612 -0.0890
 7866TIP3   OH245012   3.594   3.906  16.614 -0.4833 -0.0591 -0.0951
 7866TIP3    H145013   3.540   3.877  16.541  1.1197 -0.4491 -1.1754
 7866TIP3    H245014   3.599   3.830  16.672 -2.1327  0.3946  0.7013
 7867TIP3   OH245015   0.418   3.310   3.384 -0.0275 -0.5022 -0.6482
 7867TIP3    H145016   0.332   3.282   3.352 -0.5434  0.2081  0.0688
 7867TIP3    H245017   0.398   3.369   3.456  1.0906 -1.9312  0.9040
 7868TIP3   OH245018   6.201   1.015   0.547 -0.1262  0.4811  0.1620
 7868TIP3    H145019   6.112   0.982   0.562 -0.2582  1.5043  1.9435
 7868TIP3    H245020   6.207   1.092   0.603  1.9466  0.3464  0.1863
 7869TIP3   OH245021   2.656   1.406  13.468  0.1178  0.4200 -0.0074
 7869TIP3    H145022   2.736   1.441  13.428 -1.1876  1.7199 -1.6104
 7869TIP3    H245023   2.675   1.403  13.561  2.7728 -1.3169 -0.4882
 7870TIP3   OH245024   2.861   1.062  15.785  0.3128 -0.0217 -0.2674
 7870TIP3    H145025   2.883   1.016  15.866 -0.5192 -1.7825 -1.0063
 7870TIP3    H245026   2.767   1.075  15.790  0.2710 -0.0721 -0.9381
 7871TIP3   OH245027   5.445   3.818  13.582  0.4041  0.2144 -0.4978
 7871TIP3    H145028   5.535   3.815  13.617  0.7965  0.3469 -1.4641
 7871TIP3    H245029   5.437   3.736  13.534  0.9819  1.3795 -2.6988
 7872TIP3   OH245030   3.279   1.700   5.576  0.7060  0.2921  0.2662
 7872TIP3    H145031   3.287   1.642   5.652  0.3189 -1.3900 -0.9247
 7872TIP3    H245032   3.272   1.788   5.614 -0.5643 -0.5783  2.2277
 7873TIP3   OH245033   3.528   6.561   2.475  0.1939 -0.4084  0.2583
 7873TIP3    H145034   3.599   6.550   2.538  0.0038  0.6649  0.6891
 7873TIP3    H245035   3.564   6.619   2.408 -0.6040  1.1170  1.0881
 7874TIP3   OH245036   3.025   0.368   2.371  0.0296 -0.5305 -0.5995
 7874TIP3    H145037   3.120   0.368   2.358 -0.0718 -1.5475 -1.4900
 7874TIP3    H245038   3.012   0.318   2.451  0.0899 -3.6651 -2.3897
 7875TIP3   OH245039   1.443   0.076   4.421 -0.2255  0.3085  0.1700
 7875TIP3    H145040   1.428   0.041   4.509  0.7526  0.4452  0.3994
 7875TIP3    H245041   1.371   0.139   4.409 -1.5205 -1.1236  0.0694
 7876TIP3   OH245042   6.236   5.993   3.299  0.1375 -0.1845  0.6032
 7876TIP3    H145043   6.207   6.082   3.317  1.1444 -0.3601  3.6132
 7876TIP3    H245044   6.172   5.938   3.343 -0.3537 -1.0240 -1.0535
 7877TIP3   OH245045   1.297   3.616  12.013 -0.0124 -1.0420 -0.1437
 7877TIP3    H145046   1.259   3.578  12.092  0.6088  0.7560  1.0663
 7877TIP3    H245047   1.250   3.697  11.999  2.4189  0.6254  0.6756
 7878TIP3   OH245048   0.667   0.037  16.478 -0.1439  0.2420  0.4938
 7878TIP3    H145049   0.738  -0.025  16.461 -1.3932 -0.6032 -2.1171
 7878TIP3    H245050   0.615   0.037  16.398 -2.1113  2.1710  1.6582
 7879TIP3   OH245051   3.822   3.583   4.093 -0.1838 -0.3376  0.1670
 7879TIP3    H145052   3.843   3.639   4.018 -0.4608  0.1961  0.4807
 7879TIP3    H245053   3.847   3.495   4.065  2.9602  0.2947  0.6974
 7880TIP3   OH245054   5.594   6.515  14.769 -0.2631  0.4056  0.1018
 7880TIP3    H145055   5.510   6.477  14.794 -0.2248 -0.3941 -0.9378
 7880TIP3    H245056   5.579   6.609  14.769 -2.1621  0.2455 -3.2335
 7881TIP3   OH245057   6.484   6.087  13.467 -0.3172  0.3480 -0.4049
 7881TIP3    H145058   6.574   6.105  13.442 -1.3495  1.7029 -3.6037
 7881TIP3    H245059   6.463   6.003  13.425 -0.3152 -0.4822  1.1680
 7882TIP3   OH245060   4.147   1.663  13.105  0.3216  0.2460 -0.1831
 7882TIP3    H145061   4.072   1.700  13.059  0.9585  0.6642 -0.9106
 7882TIP3    H245062   4.119   1.655  13.196 -1.2998 -1.4639 -0.7825
 7883TIP3   OH245063   6.445   5.720  16.856 -0.0681  0.2589  0.2447
 7883TIP3    H145064   6.436   5.803  16.810  1.1123  0.7653  0.8809
 7883TIP3    H245065   6.474   5.745  16.944  1.0079 -0.8484  0.2258
 7884TIP3   OH245066   0.671   4.147   3.699 -0.1826 -0.0363 -0.2568
 7884TIP3    H145067   0.595   4.205   3.706 -0.9338 -0.9542 -0.6262
 7884TIP3    H245068   0.650   4.089   3.627  1.2687  0.2515 -0.9493
 7885TIP3   OH245069   2.892   4.002   2.272  0.1783 -0.2761  0.0816
 7885TIP3    H145070   2.831   4.038   2.337  1.1428 -0.9878  1.4417
 7885TIP3    H245071   2.858   3.915   2.254  1.2018 -1.0098  1.4940
 7886TIP3   OH245072   0.963   4.357  14.578  0.5074  0.1340  0.0687
 7886TIP3    H145073   0.879   4.335  14.619  1.9907 -1.5049  2.4451
 7886TIP3    H245074   0.951   4.336  14.486 -1.5553 -0.4690  0.4314
 7887TIP3   OH245075   5.790   0.141   5.894  0.4358 -0.8945 -0.2632
 7887TIP3    H145076   5.737   0.212   5.929 -3.1186 -1.8467 -3.1046
 7887TIP3    H245077   5.756   0.063   5.937  1.8083 -1.2618  0.1907
 7888TIP3   OH245078   6.729   5.635   6.140 -0.0672 -0.1086 -0.1336
 7888TIP3    H145079   6.639   5.628   6.110  0.2539 -0.5485 -1.0213
 7888TIP3    H245080   6.781   5.592   6.072  0.9596  1.3877 -0.3340
 7889TIP3   OH245081   3.295   2.630  16.555  0.0002  0.0554 -0.6214
 7889TIP3    H145082   3.305   2.715  16.599 -1.9682  0.7505 -1.3824
 7889TIP3    H245083   3.220   2.643  16.496 -1.2254 -2.5967  0.2124
 7890TIP3   OH245084   4.293   2.623   0.079 -0.5914  0.4623 -0.0696
 7890TIP3    H145085   4.285   2.544   0.025  1.6616 -0.3923  0.7096
 7890TIP3    H245086   4.236   2.605   0.154 -0.4712 -0.2211 -0.1303
 7891TIP3   OH245087   3.698   0.567   4.182 -0.0846 -0.1293  0.2430
 7891TIP3    H145088   3.639   0.631   4.222 -0.6104  0.3118 -1.1926
 7891TIP3    H245089   3.718   0.603   4.096 -0.1014 -1.7132 -0.4611
 7892TIP3   OH245090   4.670   0.017   0.545 -0.5781  0.1700 -0.1069
 7892TIP3    H145091   4.764   0.001   0.558 -0.5147 -0.8970 -1.5627
 7892TIP3    H245092   4.631  -0.001   0.630  0.4773  0.1310  0.3905
 7893TIP3   OH245093   1.885   5.307   5.821  0.5414 -0.2230 -0.3940
 7893TIP3    H145094   1.809   5.342   5.867  0.4642  1.9453 -2.0121
 7893TIP3    H245095   1.960   5.336   5.872  0.3714  0.0239 -0.2844
 7894TIP3   OH245096   3.765   5.943  15.806 -0.7907 -0.0774 -0.9846
 7894TIP3    H145097   3.771   5.856  15.846 -0.1111 -0.2730 -1.4936
 7894TIP3    H245098   3.671   5.962  15.806 -0.8608 -0.3166  0.1574
 7895TIP3   OH245099   2.750   4.456  14.762 -0.2143 -0.1546  0.1520
 7895TIP3    H145100   2.677   4.476  14.704  0.6276  0.9950 -0.5506
 7895TIP3    H245101   2.746   4.361  14.773 -0.8785 -0.2976 -1.1429
 7896TIP3   OH245102   3.197   3.637  14.756 -0.6439  0.6465 -0.3062
 7896TIP3    H145103   3.265   3.689  14.798 -0.6515  0.1482  0.3485
 7896TIP3    H245104   3.118   3.691  14.763 -0.3183  1.2189 -1.0585
 7897TIP3   OH245105   1.325   0.963  16.130  0.2237 -0.0406  0.2908
 7897TIP3    H145106   1.275   1.031  16.174 -1.3241 -1.1753  0.3394
 7897TIP3    H245107   1.358   0.908  16.200  0.9952  0.3055  0.2176
 7898TIP3   OH245108   2.907   5.969  13.342 -0.0842 -0.0287  0.0549
 7898TIP3    H145109   2.932   5.947  13.432  0.4401 -0.1871 -0.1238
 7898TIP3    H245110   2.834   5.911  13.323  0.4575 -0.7170  0.0338
 7899TIP3   OH245111   2.901   4.463   5.188  0.3976  0.3265  0.4750
 7899TIP3    H145112   2.871   4.372   5.190  2.0520 -0.2400  0.5752
 7899TIP3    H245113   2.848   4.504   5.119 -1.9790 -0.0763  1.9628
 7900TIP3   OH245114   5.075   4.276   1.467 -0.7746  0.2079 -0.9666
 7900TIP3    H145115   5.094   4.219   1.392 -0.6805 -0.0266 -0.7657
 7900TIP3    H245116   4.980   4.269   1.479 -0.7488  0.0086 -0.8753
 7901TIP3   OH245117   6.607   2.332  15.509 -0.2380 -0.1096  0.3901
 7901TIP3    H145118   6.633   2.387  15.435 -1.4722  2.9737  2.0791
 7901TIP3    H245119   6.533   2.281  15.476 -1.1475  1.6344 -0.4058
 7902TIP3   OH245120   3.260   0.645   4.221 -0.4198  0.3279  0.4950
 7902TIP3    H145121   3.287   0.560   4.255 -0.2410 -0.9935 -2.6597
 7902TIP3    H245122   3.166   0.637   4.207 -0.6409  1.1559  1.3796
 7903TIP3   OH245123   5.518   6.461   2.192  0.3066 -0.2990  0.3807
 7903TIP3    H145124   5.614   6.456   2.199  0.4485  0.1594 -0.9632
 7903TIP3    H245125   5.493   6.372   2.166  0.1739 -0.8571  2.2110
 7904TIP3   OH245126   0.936   3.202  16.856  0.0316  0.3144 -0.5466
 7904TIP3    H145127   0.988   3.224  16.933  0.2013  2.5092 -1.2050
 7904TIP3    H245128   0.983   3.130  16.815  1.3293  0.7811  0.0775
 7905TIP3   OH245129   0.190   5.419  12.817  0.4030  0.0315 -0.5592
 7905TIP3    H145130   0.113   5.462  12.855  1.6834 -0.1279  2.4653
 7905TIP3    H245131   0.164   5.327  12.810  0.2156  0.0160  0.2228
 7906TIP3   OH245132   2.737   5.700   1.508  0.5424  0.5144  0.2397
 7906TIP3    H145133   2.826   5.674   1.534  0.2780  1.2784  2.0794
 7906TIP3    H245134   2.727   5.789   1.543 -1.4239 -0.0845  1.3574
 7907TIP3   OH245135   4.079   3.951  16.035  0.3117 -0.1756  0.3154
 7907TIP3    H145136   3.990   3.936  16.069  0.2389 -0.0803  0.1689
 7907TIP3    H245137   4.068   4.018  15.968  0.1749 -1.5529 -1.1071
 7908TIP3   OH245138   1.178   1.638   0.716 -0.0315  0.1962 -0.3265
 7908TIP3    H145139   1.258   1.689   0.720  1.5394 -2.1687  0.2514
 7908TIP3    H245140   1.174   1.592   0.799 -2.4097  0.7815 -0.0472
 7909TIP3   OH245141   2.345   3.238  12.407 -0.5603  0.1021  0.5332
 7909TIP3    H145142   2.403   3.262  12.334 -0.6660  0.0136  0.4219
 7909TIP3    H245143   2.350   3.143  12.412 -0.1073  0.1453  1.0037
 7910TIP3   OH245144   0.250   3.324   1.731 -0.3621 -0.2718 -0.6255
 7910TIP3    H145145   0.237   3.411   1.692 -2.3581 -0.0326  0.4348
 7910TIP3    H245146   0.267   3.341   1.823  0.1853 -0.9888 -0.5876
 7911TIP3   OH245147   0.566   4.606  10.411  0.3493  0.4357  0.0660
 7911TIP3    H145148   0.501   4.575  10.348  1.1255  0.6631 -0.8612
 7911TIP3    H245149   0.528   4.584  10.497 -1.6339  1.8934 -0.3705
 7912TIP3   OH245150   4.004   3.316   5.143  0.0344 -0.1920 -0.3589
 7912TIP3    H145151   4.073   3.374   5.109  0.1950 -0.2295 -0.1020
 7912TIP3    H245152   3.923   3.353   5.108 -0.0334  1.2078  1.1778
 7913TIP3   OH245153   4.791   2.033  17.148  0.3795 -1.0858  0.2579
 7913TIP3    H145154   4.868   1.996  17.104 -0.7931 -0.7155 -2.3104
 7913TIP3    H245155   4.724   1.964  17.142 -0.6919  0.0300 -1.2495
 7914TIP3   OH245156   2.223   2.743   6.490  0.2352 -0.1420 -0.2752
 7914TIP3    H145157   2.178   2.827   6.483 -0.2006 -0.3349  0.1227
 7914TIP3    H245158   2.289   2.758   6.558  0.1010 -0.1474 -0.1437
 7915TIP3   OH245159   4.874   1.127  14.102  1.0156  0.2495 -0.4755
 7915TIP3    H145160   4.907   1.172  14.180  0.2389  0.4187 -0.2335
 7915TIP3    H245161   4.795   1.176  14.078  0.2735 -0.8564 -0.3312
 7916TIP3   OH245162   0.783   6.505  15.875 -0.8445  0.1647  0.0258
 7916TIP3    H145163   0.821   6.521  15.962 -1.9077  1.1121  0.3411
 7916TIP3    H245164   0.732   6.425  15.885 -0.3382 -0.1534  0.0670
 7917TIP3   OH245165   0.165   1.095   3.496 -0.2489 -0.7290  0.0876
 7917TIP3    H145166   0.233   1.160   3.515 -0.0487 -0.9083 -0.0157
 7917TIP3    H245167   0.201   1.042   3.425 -0.6270 -0.6254 -0.1901
 7918TIP3   OH245168   5.121   0.198  16.951 -0.9726  0.0363 -0.7644
 7918TIP3    H145169   5.140   0.200  16.857 -0.1421  0.4005 -0.5961
 7918TIP3    H245170   5.126   0.289  16.979  0.0484 -0.2024 -0.1293
 7919TIP3   OH245171   5.788   3.099   3.322  0.6946 -0.0833 -0.1888
 7919TIP3    H145172   5.774   3.178   3.271 -0.8571  0.0012  0.3297
 7919TIP3    H245173   5.730   3.108   3.397  0.8465 -1.5021  0.1298
 7920TIP3   OH245174   5.438   5.317  11.755 -0.3864  0.1998 -0.7225
 7920TIP3    H145175   5.374   5.378  11.793 -0.7169  0.2101 -1.2744
 7920TIP3    H245176   5.490   5.371  11.696  0.1089  0.1813 -0.3031
 7921TIP3   OH245177   2.015   0.857  16.578  0.2391  0.2742 -0.3474
 7921TIP3    H145178   2.079   0.787  16.583  0.6986  0.6580 -0.7834
 7921TIP3    H245179   2.060   0.928  16.532 -1.2962 -0.3785 -3.0800
 7922TIP3   OH245180   4.966   3.669  16.771  0.6516 -0.0689  0.0112
 7922TIP3    H145181   4.954   3.745  16.714  0.9061  1.0063  1.3413
 7922TIP3    H245182   5.011   3.605  16.716 -0.7030  0.2260 -1.5288
 7923TIP3   OH245183   3.296   6.033   2.163 -0.4938  0.5426 -0.8291
 7923TIP3    H145184   3.299   5.981   2.243 -1.1545 -1.9685 -2.3353
 7923TIP3    H245185   3.367   6.097   2.173  0.2045 -0.4863  1.2163
 7924TIP3   OH245186   3.561   4.889   4.876  0.8442 -0.2625  0.2277
 7924TIP3    H145187   3.545   4.898   4.969 -1.8647  0.4894 -0.2329
 7924TIP3    H245188   3.505   4.954   4.834  1.4686 -1.0116 -1.9674
 7925TIP3   OH245189   1.186   0.987   2.080 -0.2298 -0.7335 -0.1413
 7925TIP3    H145190   1.163   0.931   2.154  1.8462  0.0070  1.1323
 7925TIP3    H245191   1.110   1.045   2.069 -1.9584 -2.9640 -0.7824
 7926TIP3   OH245192   2.400   1.675   4.591 -0.2235 -0.0322  0.1246
 7926TIP3    H145193   2.306   1.660   4.595 -0.0263 -1.1385  1.3467
 7926TIP3    H245194   2.422   1.663   4.498 -1.1130 -0.9380  0.0107
 7927TIP3   OH245195   3.934   6.012   3.413  0.4418  0.2479  0.3812
 7927TIP3    H145196   3.860   5.975   3.461  0.2066  0.7027  0.3816
 7927TIP3    H245197   3.952   6.095   3.458 -0.9089  1.5487 -1.3363
 7928TIP3   OH245198   3.552   4.992   4.173 -0.0652  0.3983  0.6790
 7928TIP3    H145199   3.496   4.992   4.096 -0.1567 -3.1662  0.5791
 7928TIP3    H245200   3.640   5.010   4.140  0.4604 -4.0269 -0.9975
 7929TIP3   OH245201   4.259   2.876  16.751 -0.1971  0.2615 -0.1081
 7929TIP3    H145202   4.331   2.934  16.777 -1.2632  1.1262  1.0518
 7929TIP3    H245203   4.231   2.910  16.666  0.9272 -0.2514 -0.6950
 7930TIP3   OH245204   1.420   5.175  12.038  0.7721 -0.0651  0.0392
 7930TIP3    H145205   1.349   5.125  11.997  1.0176 -1.0097  0.7271
 7930TIP3    H245206   1.441   5.126  12.118  3.2434 -0.6972 -0.8945
 7931TIP3   OH245207   5.846   0.199  15.995  0.0975  0.1593  0.1342
 7931TIP3    H145208   5.889   0.205  16.080 -0.5495  0.4195  0.4509
 7931TIP3    H245209   5.822   0.289  15.973 -1.5463 -0.1080  0.6417
 7932TIP3   OH245210   2.530   4.107   0.489  0.1425 -0.0060  0.1308
 7932TIP3    H145211   2.457   4.140   0.435 -0.6261 -0.6873  0.7223
 7932TIP3    H245212   2.605   4.105   0.429  0.0848  2.1866 -0.0848
 7933TIP3   OH245213   2.251   0.333   5.776 -0.3642 -0.5625 -0.4182
 7933TIP3    H145214   2.297   0.376   5.848 -1.2298  0.2895 -0.3558
 7933TIP3    H245215   2.233   0.403   5.714 -3.0432 -0.4846  0.3226
 7934TIP3   OH245216   4.235   5.425   1.869 -0.0502 -0.0754  0.6795
 7934TIP3    H145217   4.143   5.409   1.892 -0.3265 -1.9641 -1.4155
 7934TIP3    H245218   4.237   5.517   1.842 -1.8651 -0.5037 -1.2458
 7935TIP3   OH245219   6.601   0.857   3.966 -0.5817 -0.3426  0.3333
 7935TIP3    H145220   6.681   0.811   3.940  0.3073  1.8509 -1.0902
 7935TIP3    H245221   6.536   0.831   3.901  0.5244  1.9531 -1.8592
 7936TIP3   OH245222   5.354   3.868  15.030 -0.1674 -0.0028 -0.6198
 7936TIP3    H145223   5.384   3.872  14.939 -0.9561 -0.1356 -0.8992
 7936TIP3    H245224   5.393   3.789  15.065  0.9860  0.5894 -0.5174
 7937TIP3   OH245225   4.353   6.682  15.850  0.0636 -0.4163 -0.5147
 7937TIP3    H145226   4.281   6.744  15.865  0.4091  0.0692 -0.8029
 7937TIP3    H245227   4.318   6.619  15.787 -0.0787 -0.1102 -0.7472
 7938TIP3   OH245228   4.313   3.626   2.997  0.1622 -0.3621 -0.2662
 7938TIP3    H145229   4.313   3.696   2.933  0.8295 -0.5116 -0.4382
 7938TIP3    H245230   4.323   3.546   2.946  2.5046 -0.3728  0.0965
 7939TIP3   OH245231   6.205   6.430  12.338  0.7114  0.2967 -0.8825
 7939TIP3    H145232   6.242   6.393  12.258 -1.8598 -1.0251 -1.5289
 7939TIP3    H245233   6.217   6.524  12.328  1.0793  0.1071 -2.4658
 7940TIP3   OH245234   1.364   5.198   3.955 -0.0679  0.6520  0.0981
 7940TIP3    H145235   1.340   5.123   4.010 -1.5076  0.3055 -0.9652
 7940TIP3    H245236   1.421   5.161   3.888 -0.8470  0.4747 -0.4770
 7941TIP3   OH245237   0.934   5.097  13.402  0.4027  0.0483  0.5567
 7941TIP3    H145238   0.896   5.029  13.456 -0.6125 -0.0942 -0.3077
 7941TIP3    H245239   0.977   5.050  13.330 -1.0486  0.3068 -0.5244
 7942TIP3   OH245240   2.971   1.329  12.506 -0.3881  0.4709 -0.1790
 7942TIP3    H145241   2.890   1.376  12.487 -0.6365 -0.3946 -1.3165
 7942TIP3    H245242   2.976   1.327  12.602 -1.8188  0.3504 -0.0990
 7943TIP3   OH245243   3.979   2.741   4.898  0.4937 -0.1241  0.4163
 7943TIP3    H145244   4.042   2.671   4.883  1.8925 -0.3353  5.5719
 7943TIP3    H245245   3.905   2.698   4.941 -0.1042  1.1268  0.6856
 7944TIP3   OH245246   0.129   4.525   4.295  0.1209  0.3753  0.1985
 7944TIP3    H145247   0.175   4.603   4.266 -0.7163  0.5459 -0.7100
 7944TIP3    H245248   0.041   4.555   4.318 -0.4959 -0.4004 -0.9999
 7945TIP3   OH245249   5.435   1.904   5.623  0.2344 -0.0261  0.2129
 7945TIP3    H145250   5.499   1.959   5.668 -1.4084  1.6434  0.6949
 7945TIP3    H245251   5.464   1.815   5.639  2.5665  0.6498  0.1342
 7946TIP3   OH245252   5.395   6.726   4.048  0.2678  0.2699  0.3815
 7946TIP3    H145253   5.448   6.664   4.098  0.3455  0.1505  0.1508
 7946TIP3    H245254   5.458   6.774   3.995  0.0855 -0.3747 -0.4440
 7947TIP3   OH245255   1.120   3.192  11.334 -0.3991 -0.9442  0.2867
 7947TIP3    H145256   1.119   3.226  11.245 -1.2539  0.9711  0.9618
 7947TIP3    H245257   1.064   3.115  11.331 -0.1591 -1.0809 -0.8996
 7948TIP3   OH245258   1.478   2.186   4.020  0.0715 -0.3572  0.5924
 7948TIP3    H145259   1.426   2.106   4.030 -0.4144  0.0866  1.8289
 7948TIP3    H245260   1.461   2.235   4.100  2.7468 -0.3655  1.2490
 7949TIP3   OH245261   1.729   5.166  13.465  0.7482 -0.5098  0.0696
 7949TIP3    H145262   1.758   5.223  13.536 -0.5117 -0.2633  0.4208
 7949TIP3    H245263   1.676   5.223  13.409 -1.1693 -1.4536  0.8285
 7950TIP3   OH245264   0.958   5.628   3.975 -0.0879 -0.2915  0.3973
 7950TIP3    H145265   1.019   5.696   4.004 -0.1524 -0.3098  0.5785
 7950TIP3    H245266   1.004   5.546   3.994 -0.3398 -0.3166  0.9299
 7951TIP3   OH245267   6.095   0.563  15.323 -0.3804  0.2431 -0.1369
 7951TIP3    H145268   6.178   0.601  15.354  0.7718 -0.9542 -1.5873
 7951TIP3    H245269   6.029   0.628  15.345  0.9507  1.2847  0.9852
 7952TIP3   OH245270   0.877   0.898  16.976 -0.0150  0.1679  0.6263
 7952TIP3    H145271   0.889   0.961  17.046 -1.4116  1.0067  0.1455
 7952TIP3    H245272   0.861   0.951  16.898 -0.9346 -0.7680  0.1573
 7953TIP3   OH245273   0.131   3.782  12.776 -0.2171  0.0860  0.6882
 7953TIP3    H145274   0.196   3.853  12.775 -1.0650  0.9022  1.3894
 7953TIP3    H245275   0.069   3.805  12.708  2.0268 -2.5456 -2.5471
 7954TIP3   OH245276   2.470   1.861  16.386 -0.3135  0.4013 -0.0336
 7954TIP3    H145277   2.379   1.836  16.369 -0.7435  1.2288  0.9407
 7954TIP3    H245278   2.464   1.943  16.436  0.8347 -1.0335  2.6931
 7955TIP3   OH245279   6.301   4.944   3.449 -0.1535  0.1545 -0.1553
 7955TIP3    H145280   6.274   4.922   3.360 -0.2494  1.3138 -0.4205
 7955TIP3    H245281   6.231   4.910   3.504 -0.2181 -0.3458 -0.5353
 7956TIP3   OH245282   1.966   3.321   6.073  0.2843  0.2007 -0.2533
 7956TIP3    H145283   2.037   3.271   6.114  0.6883  1.3569  0.5066
 7956TIP3    H245284   1.930   3.374   6.144  0.4336  1.6261 -1.1954
 7957TIP3   OH245285   4.068   4.797   0.375 -0.3122  0.3860 -0.1081
 7957TIP3    H145286   4.155   4.767   0.401  0.0580  0.4798 -1.1661
 7957TIP3    H245287   4.024   4.818   0.457  0.5638  0.0718  0.4613
 7958TIP3   OH245288   1.916   4.413  13.951  0.7404 -0.2812  0.0883
 7958TIP3    H145289   1.938   4.430  13.859  2.8268 -1.1438  0.3558
 7958TIP3    H245290   1.871   4.329  13.950 -0.3704  0.3058 -0.2471
 7959TIP3   OH245291   4.076   3.796   6.273  0.0315  0.6784  0.4863
 7959TIP3    H145292   4.073   3.752   6.188  2.5552 -1.0562  1.1985
 7959TIP3    H245293   3.990   3.839   6.280 -0.9812 -0.6898 -2.0800
 7960TIP3   OH245294   2.849   2.378   3.116 -0.1497 -0.0473  0.1708
 7960TIP3    H145295   2.833   2.431   3.038  0.9872  0.7665  0.4628
 7960TIP3    H245296   2.807   2.294   3.097  1.2506 -0.3548 -1.8989
 7961TIP3   OH245297   0.150   4.895   5.236 -0.4209  0.2950  0.3603
 7961TIP3    H145298   0.221   4.888   5.172 -1.1142 -0.2627 -0.3710
 7961TIP3    H245299   0.164   4.823   5.297 -1.8787 -1.5703 -1.3753
 7962TIP3   OH245300   5.541   2.224  12.080 -0.0005  0.9107  0.4727
 7962TIP3    H145301   5.536   2.132  12.054  0.0923  1.2573 -0.8741
 7962TIP3    H245302   5.573   2.223  12.170  0.8576 -0.3316  0.1669
 7963TIP3   OH245303   1.750   3.940  16.412 -0.3621 -0.2943  0.0898
 7963TIP3    H145304   1.736   3.901  16.326  0.4141 -1.1705  0.3463
 7963TIP3    H245305   1.678   3.908  16.465 -0.4025 -0.3932 -0.0263
 7964TIP3   OH245306   2.678   2.520   0.709  0.6440  0.2482 -0.2681
 7964TIP3    H145307   2.703   2.608   0.684  0.7928  0.3517  0.2382
 7964TIP3    H245308   2.737   2.497   0.780 -1.2855  0.8927  1.6697
 7965TIP3   OH245309   5.207   0.852   3.652 -0.5859  0.1978  0.3377
 7965TIP3    H145310   5.174   0.878   3.566  0.3020 -1.4443 -0.5432
 7965TIP3    H245311   5.134   0.808   3.694 -0.4653 -0.7038 -0.3701
 7966TIP3   OH245312   2.806   4.786   0.859 -0.4808 -0.0917  0.4071
 7966TIP3    H145313   2.726   4.831   0.833  0.6613  1.3105 -0.8536
 7966TIP3    H245314   2.783   4.693   0.853 -1.4738  0.2282 -1.8923
 7967TIP3   OH245315   4.465   6.009   3.503  0.1438 -0.3793 -0.2161
 7967TIP3    H145316   4.414   6.088   3.519 -1.3946 -1.4856  0.5878
 7967TIP3    H245317   4.416   5.939   3.546  1.3266 -1.8283 -1.1038
 7968TIP3   OH245318   4.641   4.478   0.933 -0.1464 -0.1061 -0.2244
 7968TIP3    H145319   4.559   4.527   0.931  0.1266  0.3850  0.2446
 7968TIP3    H245320   4.659   4.457   0.841 -0.0125  1.1231 -0.4940
 7969TIP3   OH245321   5.020   4.326  16.106 -0.3221 -0.5938  0.0560
 7969TIP3    H145322   5.001   4.375  16.026 -1.5801 -0.7910  0.2057
 7969TIP3    H245323   5.112   4.345  16.125 -0.0448 -0.4166 -1.3382
 7970TIP3   OH245324   1.469   5.232  11.010 -0.8161 -0.0137 -0.7037
 7970TIP3    H145325   1.415   5.222  10.931 -0.7561  0.3726 -0.7968
 7970TIP3    H245326   1.477   5.327  11.021  1.0433 -0.0314 -1.5186
 7971TIP3   OH245327   3.762   1.818  11.390  0.7560 -0.5517  0.3894
 7971TIP3    H145328   3.789   1.733  11.425 -2.2113 -1.7254  0.0692
 7971TIP3    H245329   3.709   1.857  11.459  1.2039  0.5808  0.1126
 7972TIP3   OH245330   3.945   1.966  14.627 -0.3175  0.3298 -0.3538
 7972TIP3    H145331   3.878   1.982  14.561  0.8503  0.9696 -1.4111
 7972TIP3    H245332   3.916   2.016  14.703 -0.9603  0.7010 -0.8391
 7973TIP3   OH245333   6.267   4.916   2.290  0.1466 -0.2893  0.0518
 7973TIP3    H145334   6.356   4.884   2.276 -0.3125 -1.7129  0.2510
 7973TIP3    H245335   6.267   4.950   2.379  0.8991  1.2510 -0.4951
 7974TIP3   OH245336   2.915   3.192   2.941 -0.2581 -0.4873 -0.2008
 7974TIP3    H145337   2.916   3.110   2.892 -0.4848 -0.9605  0.5702
 7974TIP3    H245338   3.006   3.203   2.971 -0.3346 -0.7258  0.1252
 7975TIP3   OH245339   1.258   2.189   5.557  0.1572  0.0583 -0.1125
 7975TIP3    H145340   1.244   2.149   5.471  1.3932  0.5680 -0.5796
 7975TIP3    H245341   1.191   2.257   5.563 -0.2464 -0.3054 -0.4709
 7976TIP3   OH245342   6.226   2.668  13.472  0.5894  0.0140 -0.0796
 7976TIP3    H145343   6.301   2.610  13.466 -0.3726 -1.1387 -1.6921
 7976TIP3    H245344   6.217   2.686  13.566  1.5286 -1.6176  0.3527
 7977TIP3   OH245345   4.901   4.525   0.964 -0.6839  0.0407 -0.0810
 7977TIP3    H145346   4.816   4.518   0.922 -0.1944  1.5608 -1.4260
 7977TIP3    H245347   4.903   4.614   0.999  0.4158  0.0930 -0.2398
 7978TIP3   OH245348   2.228   4.633  12.921 -0.2544  0.2056  0.4471
 7978TIP3    H145349   2.310   4.657  12.878  2.3125 -3.2701  2.8197
 7978TIP3    H245350   2.223   4.691  12.997  1.7023 -1.3025  1.8480
 7979TIP3   OH245351   6.737   4.054  14.993  0.4993 -0.2411  0.1264
 7979TIP3    H145352   6.668   4.086  15.051  0.1811 -0.5588 -0.0760
 7979TIP3    H245353   6.749   4.126  14.930  0.9301  0.1548  0.6481
 7980TIP3   OH245354   3.579   1.837   2.026 -0.4859 -0.5103 -0.6166
 7980TIP3    H145355   3.588   1.811   1.934 -1.3890 -0.8830 -0.6170
 7980TIP3    H245356   3.557   1.930   2.022 -0.9055 -0.6123 -0.8068
 7981TIP3   OH245357   6.206   0.802   3.083 -0.4901  0.9833 -0.4319
 7981TIP3    H145358   6.164   0.722   3.053  0.5491  0.6623 -1.0747
 7981TIP3    H245359   6.236   0.782   3.172 -2.7670  1.6338  0.5344
 7982TIP3   OH245360   4.483   4.696  10.439  0.4443  0.0865 -0.0881
 7982TIP3    H145361   4.539   4.747  10.498  0.9624  0.7873 -1.1453
 7982TIP3    H245362   4.500   4.604  10.462  1.1613  0.3333  0.3789
 7983TIP3   OH245363   5.593   2.790  14.452  0.2626  0.3741 -0.5138
 7983TIP3    H145364   5.600   2.860  14.388  1.5650  1.0797  0.3594
 7983TIP3    H245365   5.590   2.834  14.537 -0.3855 -0.5756 -0.0167
 7984TIP3   OH245366   3.199   0.861  14.620 -0.1656  0.6672 -0.0228
 7984TIP3    H145367   3.198   0.816  14.535  0.0449  0.8456 -0.1208
 7984TIP3    H245368   3.290   0.854  14.650 -0.7612 -1.9242  1.5436
 7985TIP3   OH245369   1.735   0.203   1.889 -0.4039  0.0526 -0.4373
 7985TIP3    H145370   1.710   0.130   1.944 -0.1244 -0.3107 -0.7885
 7985TIP3    H245371   1.787   0.164   1.819  1.9743  0.8531  0.7480
 7986TIP3   OH245372   5.230   2.954  13.589  0.2869  0.0626  0.3410
 7986TIP3    H145373   5.170   2.911  13.527  1.0762 -1.0730  0.3391
 7986TIP3    H245374   5.207   3.046  13.583  0.0740 -0.0546 -1.3802
 7987TIP3   OH245375   5.960   2.963  13.684 -0.4134 -0.3747 -0.0925
 7987TIP3    H145376   5.944   2.960  13.590  0.0905  1.3683 -0.2639
 7987TIP3    H245377   6.056   2.961  13.693 -0.3841  1.2801  0.2559
 7988TIP3   OH245378   2.184   0.722   0.960 -0.1454  0.6093  0.3671
 7988TIP3    H145379   2.279   0.727   0.964 -0.1104 -0.4291  1.4106
 7988TIP3    H245380   2.154   0.779   1.031 -0.3417  1.5587 -0.4576
 7989TIP3   OH245381   3.607   2.315  12.808  0.3116  0.6408  0.5197
 7989TIP3    H145382   3.625   2.376  12.736 -2.8933 -1.8798 -2.8350
 7989TIP3    H245383   3.659   2.237  12.786  0.0392  0.1623  1.5277
 7990TIP3   OH245384   5.849   0.968  16.315 -0.2105 -0.7735 -0.1151
 7990TIP3    H145385   5.877   1.017  16.238  0.7444 -0.0245  0.6758
 7990TIP3    H245386   5.770   1.013  16.345 -0.0992 -0.5402 -0.1712
 7991TIP3   OH245387   5.096   2.073   4.002  0.4556  0.1837  0.1242
 7991TIP3    H145388   5.032   2.077   4.073  1.8355  1.1844  1.3801
 7991TIP3    H245389   5.097   1.981   3.976 -2.3471  0.3131 -0.8115
 7992TIP3   OH245390   5.285   0.390   1.529 -0.2652  0.1289 -0.5291
 7992TIP3    H145391   5.297   0.328   1.457  0.0120  0.2958 -0.6317
 7992TIP3    H245392   5.210   0.357   1.577 -0.0389 -0.3660 -0.5042
 7993TIP3   OH245393   5.290   3.415  12.016 -0.2377  0.0014  0.4837
 7993TIP3    H145394   5.333   3.492  12.053 -3.0167  2.0554 -0.3201
 7993TIP3    H245395   5.307   3.420  11.922 -2.0111  0.7703  0.1727
 7994TIP3   OH245396   3.129   1.764  10.855  0.6937  0.8543  0.0376
 7994TIP3    H145397   3.052   1.810  10.822 -0.1692  0.6298  1.6069
 7994TIP3    H245398   3.204   1.816  10.823 -0.0393  0.7127 -2.0568
 7995TIP3   OH245399   2.570   5.257  10.823 -0.2396 -0.0791  0.4023
 7995TIP3    H145400   2.635   5.317  10.861  0.5066  0.6515 -1.8682
 7995TIP3    H245401   2.485   5.298  10.843  0.2570  1.8649 -1.1641
 7996TIP3   OH245402   3.882   5.777   2.487  0.2067 -0.0018  0.2237
 7996TIP3    H145403   3.961   5.727   2.471  0.5597  0.0417  1.7265
 7996TIP3    H245404   3.855   5.807   2.400  1.5822 -0.3749 -0.3590
 7997TIP3   OH245405   6.547   2.792   3.062 -0.9170  0.3273  1.0175
 7997TIP3    H145406   6.544   2.697   3.066  2.2968  0.0418 -0.2337
 7997TIP3    H245407   6.635   2.815   3.093 -1.3230  2.8153  0.5797
 7998TIP3   OH245408   1.769   3.599  16.848  0.4713 -0.4056 -0.6503
 7998TIP3    H145409   1.687   3.593  16.798 -0.1028  1.6798 -0.0501
 7998TIP3    H245410   1.778   3.692  16.868  1.1939 -1.0117  2.2834
 7999TIP3   OH245411   0.264   4.044   0.186  0.2695 -0.6975  0.0160
 7999TIP3    H145412   0.263   3.953   0.216  1.6509 -0.6312  0.3532
 7999TIP3    H245413   0.343   4.050   0.131  0.4092  0.3853  0.3056
 8000TIP3   OH245414   5.995   1.520   5.278  0.8751 -0.0590  0.0178
 8000TIP3    H145415   6.024   1.539   5.367  1.6361 -0.0159 -0.2288
 8000TIP3    H245416   5.903   1.495   5.287  1.0103 -0.2870  0.8404
 8001TIP3   OH245417   2.032   5.092  15.927 -0.0059 -0.2892  0.0970
 8001TIP3    H145418   1.993   5.053  16.005  1.7657  0.5407  1.4674
 8001TIP3    H245419   1.973   5.164  15.904  0.3092  0.5329  1.7212
 8002TIP3   OH245420   2.508   0.210   6.062 -0.4227  0.2996  0.0427
 8002TIP3    H145421   2.518   0.131   6.115 -1.1809  0.9313  1.1534
 8002TIP3    H245422   2.414   0.225   6.057 -0.2770  1.4661  0.3625
 8003TIP3   OH245423   1.993   4.174   3.631 -0.3485  0.0788 -0.1785
 8003TIP3    H145424   1.983   4.238   3.561 -0.0757  0.2227 -0.0906
 8003TIP3    H245425   1.927   4.108   3.613 -1.3911  0.9416  0.3516
 8004TIP3   OH245426   2.387   2.256  13.586 -0.7672 -0.1576  0.3971
 8004TIP3    H145427   2.421   2.200  13.516 -0.7109 -0.4663  0.6708
 8004TIP3    H245428   2.297   2.276  13.558 -0.5482  0.2122 -0.0557
 8005TIP3   OH245429   3.908   5.003   4.625  0.3888 -0.1129 -0.0995
 8005TIP3    H145430   3.927   4.973   4.714  0.0186 -0.3435 -0.0979
 8005TIP3    H245431   3.971   5.074   4.610  1.4457 -1.0512 -0.2060
 8006TIP3   OH245432   6.754   3.239  13.038 -0.2657 -0.3311 -0.2942
 8006TIP3    H145433   6.811   3.310  13.069  0.5589 -0.9740 -0.2908
 8006TIP3    H245434   6.743   3.257  12.944 -0.0860 -0.1736 -0.2870
 8007TIP3   OH245435   6.280   2.998   4.305  0.3293 -0.1316  0.0819
 8007TIP3    H145436   6.237   2.914   4.288  1.3388 -1.2678  2.6347
 8007TIP3    H245437   6.218   3.045   4.359  1.0132 -0.5508  1.2636
 8008TIP3   OH245438   2.658   4.971  16.082 -0.3435  0.3554  0.0111
 8008TIP3    H145439   2.687   4.962  16.173  1.3729  1.4349 -0.3883
 8008TIP3    H245440   2.681   4.888  16.040 -3.0648 -1.0090  0.9831
 8009TIP3   OH245441   0.624   0.311   3.934 -0.0966  0.2574 -0.0386
 8009TIP3    H145442   0.717   0.328   3.946  0.5995 -2.9198 -0.0384
 8009TIP3    H245443   0.602   0.356   3.853  1.6467  0.4652 -0.4392
 8010TIP3   OH245444   6.702   0.845  16.917 -0.6509 -0.3152 -0.1163
 8010TIP3    H145445   6.791   0.819  16.894 -0.6824 -1.8901  1.3298
 8010TIP3    H245446   6.677   0.908  16.850  1.5168  0.0934 -0.6034
 8011TIP3   OH245447   2.043   1.630   6.065  0.2335  0.0771  0.1302
 8011TIP3    H145448   1.981   1.572   6.109  0.3617 -0.3562 -0.2516
 8011TIP3    H245449   2.124   1.579   6.058 -0.1309 -0.3347 -1.6796
 8012TIP3   OH245450   6.146   4.849   5.082  0.0321  0.1653  0.0708
 8012TIP3    H145451   6.150   4.827   5.175 -0.2827 -0.9957 -0.1702
 8012TIP3    H245452   6.080   4.918   5.076  1.3694  1.5856  0.9169
 8013TIP3   OH245453   2.769   1.451   5.036  0.4068  0.8311 -0.4260
 8013TIP3    H145454   2.755   1.501   5.116  1.8379  0.8404 -0.1679
 8013TIP3    H245455   2.715   1.495   4.971 -1.5717  0.2360  0.7160
 8014TIP3   OH245456   2.383   1.784  12.416 -0.6926 -0.2853 -0.6568
 8014TIP3    H145457   2.298   1.785  12.373 -1.2948 -0.5757  0.5002
 8014TIP3    H245458   2.365   1.759  12.507  0.7098 -1.2184 -0.5883
 8015TIP3   OH245459   1.959   1.805  14.336 -0.2996  0.2299 -0.4251
 8015TIP3    H145460   1.965   1.815  14.241 -1.8820 -0.3524 -0.6307
 8015TIP3    H245461   2.021   1.736  14.357 -0.8879 -0.5800 -1.2547
 8016TIP3   OH245462   6.458   4.998   4.952 -0.2401  0.3943  0.1704
 8016TIP3    H145463   6.444   5.065   4.885  0.3952  0.7365  0.3706
 8016TIP3    H245464   6.436   4.916   4.908  1.7199  0.4328 -0.9926
 8017TIP3   OH245465   2.932   2.236   6.297 -0.5465 -0.4715 -0.6098
 8017TIP3    H145466   2.991   2.161   6.303 -0.0476  0.0015  0.7991
 8017TIP3    H245467   2.989   2.311   6.283 -0.8215 -0.0591  0.3628
 8018TIP3   OH245468   5.368   0.114   3.155 -0.4289 -0.4583 -0.0863
 8018TIP3    H145469   5.435   0.152   3.211  1.9256  0.5184 -3.2423
 8018TIP3    H245470   5.390   0.021   3.151 -0.2900 -0.4376  0.1997
 8019TIP3   OH245471   4.229   2.592  15.210 -0.1451  0.0782 -0.1629
 8019TIP3    H145472   4.291   2.585  15.283 -0.9067 -0.3307  0.4621
 8019TIP3    H245473   4.188   2.678  15.221 -0.4339 -0.0851  0.0291
 8020TIP3   OH245474   2.412   5.215   0.943 -0.3690  0.4870 -0.0758
 8020TIP3    H145475   2.404   5.129   0.982 -1.5032  0.6257  0.0265
 8020TIP3    H245476   2.325   5.234   0.907 -0.7881  2.4691  1.7494
 8021TIP3   OH245477   6.493   3.420   0.518  0.0351  0.1096  0.4932
 8021TIP3    H145478   6.420   3.482   0.519 -0.4570 -0.4369 -0.2494
 8021TIP3    H245479   6.565   3.469   0.477 -0.0160  0.5362  0.9026
 8022TIP3   OH245480   1.842   2.342   5.623  0.1976  0.3218  0.3350
 8022TIP3    H145481   1.911   2.297   5.672  1.0921  0.7280 -0.5087
 8022TIP3    H245482   1.764   2.334   5.678  1.1728  0.7957  1.8463
 8023TIP3   OH245483   0.448   5.058  17.123  0.1835 -0.0142  0.1088
 8023TIP3    H145484   0.422   5.077  17.213  0.5981 -1.3921  0.5502
 8023TIP3    H245485   0.379   5.002  17.089  0.2398  0.1556 -0.2916
 8024TIP3   OH245486   2.387   3.119   1.804  0.4388  0.2411  0.0250
 8024TIP3    H145487   2.434   3.202   1.801  0.2462  0.4220  1.2799
 8024TIP3    H245488   2.395   3.083   1.716  2.4350  0.5462  0.0241
 8025TIP3   OH245489   6.493   1.171  12.691  0.1096  0.2601 -0.1510
 8025TIP3    H145490   6.428   1.183  12.760 -1.3594  2.1512 -1.7399
 8025TIP3    H245491   6.576   1.192  12.733 -0.6067  0.2924  1.3129
 8026TIP3   OH245492   3.994   5.144   0.672 -0.0781 -0.2238 -0.2439
 8026TIP3    H145493   4.078   5.168   0.634 -0.0091  0.7647  0.5008
 8026TIP3    H245494   4.015   5.112   0.760 -0.5511  1.2010  0.4252
 8027TIP3   OH245495   5.523   1.526  11.141 -0.2277  0.6164  0.1675
 8027TIP3    H145496   5.546   1.484  11.224 -0.1002  0.1229 -0.1149
 8027TIP3    H245497   5.516   1.619  11.162 -0.1913  0.4920  0.7297
 8028TIP3   OH245498   1.248   0.529   4.494  0.2440  0.5247  0.1145
 8028TIP3    H145499   1.267   0.622   4.512  1.7071  0.5259 -1.2551
 8028TIP3    H245500   1.274   0.484   4.574  2.9314  0.9428 -0.4449
 8029TIP3   OH245501   1.872   6.189   3.675 -0.0497  0.7544  0.3864
 8029TIP3    H145502   1.956   6.153   3.647  1.0461  1.6958  2.2226
 8029TIP3    H245503   1.812   6.114   3.675  0.5534  0.2322 -1.7164
 8030TIP3   OH245504   5.977   6.268  15.605  0.0879 -0.3462  0.1895
 8030TIP3    H145505   6.004   6.267  15.513 -0.3202 -0.3200  0.0700
 8030TIP3    H245506   5.915   6.341  15.612  0.1716 -0.3022  0.5020
 8031TIP3   OH245507   0.968   3.959   4.962 -0.1245 -0.4369  0.1566
 8031TIP3    H145508   0.974   3.941   5.056  0.9123  1.0582  0.4076
 8031TIP3    H245509   0.876   3.945   4.941 -0.1481 -2.0444  1.1012
 8032TIP3   OH245510   1.272   6.304  14.955  0.3805  0.0225  0.5273
 8032TIP3    H145511   1.290   6.252  15.033 -1.3333 -1.6628 -0.1356
 8032TIP3    H245512   1.345   6.286  14.897  0.7773 -0.0972  1.0550
 8033TIP3   OH245513   0.468   6.442   5.409 -0.3769  0.2368 -0.5620
 8033TIP3    H145514   0.490   6.534   5.425 -0.9922  0.4067 -0.6369
 8033TIP3    H245515   0.522   6.417   5.335 -0.3134  0.5877 -0.6384
 8034TIP3   OH245516   2.159   1.920   0.952  0.7673  0.5545  0.6282
 8034TIP3    H145517   2.134   1.971   1.029 -0.3311 -1.3589  1.6149
 8034TIP3    H245518   2.102   1.951   0.882  0.6290  1.1701  1.0103
 8035TIP3   OH245519   6.687   6.014   1.757  0.1078  0.2283  0.5202
 8035TIP3    H145520   6.770   6.038   1.797  0.2022  0.6855  0.0644
 8035TIP3    H245521   6.670   5.925   1.787  0.3091  0.4648  1.3481
 8036TIP3   OH245522   2.823   3.927  13.875  0.3522 -0.2647 -0.5232
 8036TIP3    H145523   2.772   3.852  13.905 -0.2884 -0.5528 -2.2177
 8036TIP3    H245524   2.783   4.002  13.919  1.0301 -0.8637  1.2215
 8037TIP3   OH245525   1.778   0.780   1.477 -0.1420  0.3822  0.0278
 8037TIP3    H145526   1.706   0.841   1.495  0.2748  0.0663  3.3684
 8037TIP3    H245527   1.740   0.715   1.418 -1.3613  2.3258 -1.4996
 8038TIP3   OH245528   4.080   0.277  11.457  0.9083  0.0583 -0.3734
 8038TIP3    H145529   4.141   0.260  11.385  0.7265 -0.8562 -0.3228
 8038TIP3    H245530   4.011   0.331  11.418  1.2478  0.2898 -0.6656
 8039TIP3   OH245531   1.354   6.533  12.562  0.1945 -0.1333  0.2974
 8039TIP3    H145532   1.270   6.579  12.565  0.5644  0.6070 -0.3821
 8039TIP3    H245533   1.414   6.589  12.610  0.5647 -0.0795 -0.2182
 8040TIP3   OH245534   5.466   1.193   6.586 -0.0359 -0.1020 -0.4957
 8040TIP3    H145535   5.441   1.102   6.602  0.7482 -0.4619 -1.2588
 8040TIP3    H245536   5.383   1.238   6.573 -0.4056 -0.8375 -0.7717
 8041TIP3   OH245537   1.060   6.637   4.344  0.1139  0.4469 -0.2365
 8041TIP3    H145538   0.965   6.647   4.353  0.3551  1.3533  1.6158
 8041TIP3    H245539   1.088   6.716   4.297 -0.0307  0.1867 -0.7703
 8042TIP3   OH245540   4.835   2.196   4.767  0.2258  0.5541 -0.3289
 8042TIP3    H145541   4.796   2.253   4.833  1.4410  1.4153 -0.3030
 8042TIP3    H245542   4.857   2.255   4.695 -2.0346 -0.5234 -2.0177
 8043TIP3   OH245543   3.763   0.379  10.757  0.3701 -0.2272  0.0251
 8043TIP3    H145544   3.669   0.398  10.759  0.3105 -0.5625  0.8307
 8043TIP3    H245545   3.782   0.343  10.844  0.6844 -2.7853 -1.0116
 8044TIP3   OH245546   5.004   6.432   0.858 -0.7557  0.4051 -0.0742
 8044TIP3    H145547   4.936   6.424   0.791 -0.4075  0.8222 -0.4845
 8044TIP3    H245548   4.964   6.483   0.928 -0.8486  0.6950 -0.3382
 8045TIP3   OH245549   4.780   4.579  12.690 -0.2304  0.1303 -0.3006
 8045TIP3    H145550   4.755   4.658  12.737  0.1519  0.2314 -0.2633
 8045TIP3    H245551   4.840   4.534  12.749 -1.0487 -0.5817  0.0020
 8046TIP3   OH245552   3.156   4.158  15.921 -0.3502  0.1679  0.4385
 8046TIP3    H145553   3.091   4.087  15.919  1.1748 -1.2754 -1.3331
 8046TIP3    H245554   3.122   4.223  15.860  0.0524 -0.8248 -0.9063
 8047TIP3   OH245555   1.340   1.934   1.751 -0.3186 -0.2905  0.1069
 8047TIP3    H145556   1.370   1.966   1.836 -2.0077 -2.2646  1.5510
 8047TIP3    H245557   1.371   1.999   1.689  2.3523  0.4343  2.0149
 8048TIP3   OH245558   0.243   5.130   1.751  0.3949 -0.0866  0.3727
 8048TIP3    H145559   0.335   5.134   1.726  0.5786 -0.1429  1.0228
 8048TIP3    H245560   0.218   5.039   1.736  0.0819  0.1993 -1.0153
 8049TIP3   OH245561   3.909   1.258  16.836  0.2371  0.4218 -0.2222
 8049TIP3    H145562   3.831   1.210  16.861 -0.3503  0.9995 -0.8890
 8049TIP3    H245563   3.911   1.334  16.895  0.3476  0.3601 -0.1463
 8050TIP3   OH245564   2.853   2.431   0.915  0.2170 -0.3720 -0.1218
 8050TIP3    H145565   2.852   2.496   0.986  1.2277 -1.3385  0.8304
 8050TIP3    H245566   2.942   2.436   0.881 -0.2519  0.0462 -1.3116
 8051TIP3   OH245567   6.399   0.206  13.716 -0.1845 -0.2358  0.4420
 8051TIP3    H145568   6.312   0.195  13.677  1.6974 -2.0372 -3.7816
 8051TIP3    H245569   6.417   0.122  13.758  0.6581 -1.0298 -1.4325
 8052TIP3   OH245570   5.967   3.265  14.095  0.0638 -0.4698  0.2375
 8052TIP3    H145571   5.992   3.357  14.103 -0.1434 -0.1931 -1.6991
 8052TIP3    H245572   5.902   3.264  14.024  1.6255 -2.3162 -1.2871
 8053TIP3   OH245573   1.941   4.960   4.913 -0.0017  0.1071  0.0124
 8053TIP3    H145574   1.923   5.048   4.882  1.2228  0.8073  1.1529
 8053TIP3    H245575   1.878   4.947   4.985  0.5574  0.5127  0.5866
 8054TIP3   OH245576   2.649   0.317  16.657 -0.1309 -0.1497  0.4600
 8054TIP3    H145577   2.642   0.406  16.692 -1.7520 -0.4631  1.0517
 8054TIP3    H245578   2.697   0.327  16.575  0.5025  1.1352  0.9592
 8055TIP3   OH245579   3.623   2.522  14.508  0.5050  0.3462  0.7174
 8055TIP3    H145580   3.717   2.515  14.524  0.4447  1.1275  1.4209
 8055TIP3    H245581   3.611   2.611  14.475  0.1108 -0.0149 -0.1545
 8056TIP3   OH245582   6.189   6.785   1.220  0.4674 -0.4360 -0.0408
 8056TIP3    H145583   6.162   6.835   1.297 -0.0061 -1.3200  0.3840
 8056TIP3    H245584   6.139   6.703   1.226  1.8495 -1.3299 -0.2568
 8057TIP3   OH245585   1.672   6.590   3.382  0.6975 -0.3974  0.5490
 8057TIP3    H145586   1.762   6.564   3.402  0.8493  0.6092  1.2098
 8057TIP3    H245587   1.674   6.610   3.288  1.6335  1.3704  0.9001
 8058TIP3   OH245588   6.483   6.806  12.465  1.1635 -0.1482  0.3620
 8058TIP3    H145589   6.556   6.759  12.504  0.8409 -0.6798  0.3275
 8058TIP3    H245590   6.405   6.773  12.510  1.0216  1.1911  1.1648
 8059TIP3   OH245591   1.653   4.347   1.590 -0.4777  0.0270 -0.6794
 8059TIP3    H145592   1.697   4.324   1.671 -2.2496 -1.3533 -0.0468
 8059TIP3    H245593   1.645   4.265   1.542 -0.3699  0.6442 -1.8052
 8060TIP3   OH245594   6.056   3.378  13.815 -0.6196 -0.4379 -0.2930
 8060TIP3    H145595   6.079   3.385  13.723 -0.8711  1.9365 -0.2441
 8060TIP3    H245596   6.134   3.344  13.857 -0.5237 -1.6152 -1.3723
 8061TIP3   OH245597   2.792   3.450   2.072 -0.4352  0.2963  0.1902
 8061TIP3    H145598   2.824   3.361   2.090 -1.0475  0.4509  2.1810
 8061TIP3    H245599   2.853   3.483   2.006  0.4248 -1.2344  0.1571
 8062TIP3   OH245600   6.757   1.456  11.554 -0.3583 -0.4628 -0.0337
 8062TIP3    H145601   6.665   1.462  11.529 -0.3693 -0.0808  0.0895
 8062TIP3    H245602   6.799   1.528  11.507 -0.3793  0.2639  1.0188
 8063TIP3   OH245603   3.993   4.467  11.494 -0.2031 -0.2213 -0.4730
 8063TIP3    H145604   4.047   4.525  11.547 -0.0427 -1.3250  0.5974
 8063TIP3    H245605   4.037   4.382  11.497 -1.9334 -1.1330  0.3891
 8064TIP3   OH245606   6.222   6.655   4.783  0.2223  0.5686  0.2520
 8064TIP3    H145607   6.247   6.564   4.767 -0.8258  0.5088 -1.2712
 8064TIP3    H245608   6.178   6.683   4.702 -0.4498  2.0876  1.0861
 8065TIP3   OH245609   0.609   6.223   2.281 -0.4059  0.1656  0.2443
 8065TIP3    H145610   0.687   6.275   2.300 -0.6291  1.5934 -2.1946
 8065TIP3    H245611   0.639   6.155   2.221 -1.0789  1.1450 -1.2655
 8066TIP3   OH245612   4.862   5.012  14.352 -0.2157  0.3040  0.1211
 8066TIP3    H145613   4.936   5.058  14.392  0.9609 -0.8568 -0.6534
 8066TIP3    H245614   4.837   4.946  14.418 -0.0861  0.2256  0.0927
 8067TIP3   OH245615   3.679   1.201  11.515  0.1063  0.2567  0.3261
 8067TIP3    H145616   3.751   1.254  11.481 -1.5799  1.1711 -2.0956
 8067TIP3    H245617   3.701   1.111  11.491  0.2866  0.5759 -0.7469
 8068TIP3   OH245618   0.649   4.041   0.341 -0.6190  0.2332 -0.1019
 8068TIP3    H145619   0.666   3.964   0.287 -4.7598 -2.1807  1.5772
 8068TIP3    H245620   0.678   4.017   0.428 -3.6110 -0.4023  0.8419
 8069TIP3   OH245621   2.589   6.652   1.472  0.1714  0.6153 -0.0134
 8069TIP3    H145622   2.597   6.748   1.472  0.4559  0.5977  0.8496
 8069TIP3    H245623   2.663   6.622   1.524 -0.7806  0.0031  1.0145
 8070TIP3   OH245624   4.052   0.054   5.367 -0.3354 -0.0112 -0.0429
 8070TIP3    H145625   4.094   0.136   5.394  1.7809 -1.8031  2.4630
 8070TIP3    H245626   3.958   0.073   5.371  0.0861  2.0746  1.2009
 8071TIP3   OH245627   2.134   0.845   5.135  0.0292  1.0424 -0.5797
 8071TIP3    H145628   2.118   0.868   5.226 -0.3938  1.3573 -0.7295
 8071TIP3    H245629   2.064   0.890   5.086  1.3036  2.3855 -1.2545
 8072TIP3   OH245630   1.616   0.707   2.026  0.0323 -0.2859  0.1986
 8072TIP3    H145631   1.538   0.652   2.034 -1.9543  2.2588 -0.3017
 8072TIP3    H245632   1.596   0.766   1.954  0.7293  3.0422  2.5317
 8073TIP3   OH245633   3.110   3.323   1.316  0.7907  0.5623  0.2170
 8073TIP3    H145634   3.074   3.410   1.338 -0.1895  0.0057  0.8916
 8073TIP3    H245635   3.142   3.332   1.226  1.1708  1.7643  0.4526
 8074TIP3   OH245636   1.301   2.230  14.278 -0.2049  0.4030  0.1016
 8074TIP3    H145637   1.353   2.206  14.354 -0.6606 -0.2611  0.2107
 8074TIP3    H245638   1.345   2.189  14.204 -0.2761  0.2767  0.1280
 8075TIP3   OH245639   2.654   6.784   2.514  0.0483  0.4883  0.0224
 8075TIP3    H145640   2.625   6.871   2.541 -2.0713 -0.1488 -0.0661
 8075TIP3    H245641   2.719   6.801   2.445 -2.3841  2.0542 -2.0976
 8076TIP3   OH245642   2.420   2.476  12.488  0.2270 -0.3505  0.1715
 8076TIP3    H145643   2.398   2.389  12.521 -0.8735 -0.2085 -0.1611
 8076TIP3    H245644   2.426   2.465  12.393  5.1851 -1.1707  0.3135
 8077TIP3   OH245645   2.096   1.864   2.339 -0.4876  0.4407 -0.0281
 8077TIP3    H145646   2.039   1.920   2.392 -0.5179  1.0625 -0.7188
 8077TIP3    H245647   2.166   1.838   2.400 -0.9662  0.4723  0.5494
 8078TIP3   OH245648   2.109   4.728  12.428  0.6405  0.3094 -0.7777
 8078TIP3    H145649   2.172   4.779  12.479 -0.3619  0.8396 -0.0518
 8078TIP3    H245650   2.068   4.792  12.370  1.0069 -0.1013 -1.5169
 8079TIP3   OH245651   2.980   3.953  15.903  0.2750 -0.2229  0.4132
 8079TIP3    H145652   2.950   3.916  15.820 -1.5771 -1.3504  1.5048
 8079TIP3    H245653   2.990   3.877  15.960  2.6834  0.4150  0.9184
 8080TIP3   OH245654   2.837   0.471  13.838  0.5769  0.2598  0.1721
 8080TIP3    H145655   2.892   0.414  13.894  0.9148  2.6601  2.4950
 8080TIP3    H245656   2.884   0.474  13.755  2.4661 -0.0794  1.1453
 8081TIP3   OH245657   0.597   0.987  10.945 -0.1985 -0.3057  0.2657
 8081TIP3    H145658   0.523   0.955  10.894  0.0526 -0.3035 -0.1064
 8081TIP3    H245659   0.594   1.082  10.934 -0.3465 -0.2803  0.5355
 8082TIP3   OH245660   1.067   3.226   3.933 -0.2563  0.1333  0.0710
 8082TIP3    H145661   1.122   3.147   3.926 -1.8240 -0.9265 -1.1033
 8082TIP3    H245662   1.110   3.289   3.875  0.6658 -0.0726  0.5099
 8083TIP3   OH245663   5.339   4.240   2.772  0.3102 -0.0439  0.6233
 8083TIP3    H145664   5.274   4.303   2.742  0.5957 -0.6457 -1.4142
 8083TIP3    H245665   5.289   4.161   2.792  0.3139 -0.2594 -0.1924
 8084TIP3   OH245666   5.920   2.078   6.112 -0.1597 -0.2876 -0.4186
 8084TIP3    H145667   5.835   2.037   6.126 -0.4242 -0.2486 -1.7453
 8084TIP3    H245668   5.936   2.129   6.191 -1.0747 -0.8003  0.1128
 8085TIP3   OH245669   0.418   3.210   1.356 -0.1198  0.5924 -0.3358
 8085TIP3    H145670   0.504   3.233   1.390  0.9536 -2.3433 -0.8158
 8085TIP3    H245671   0.380   3.293   1.328  3.2586  1.8196 -1.7370
 8086TIP3   OH245672   5.481   6.266   3.320 -0.5077  0.2835 -0.5146
 8086TIP3    H145673   5.441   6.273   3.407  0.7496 -1.1718  0.2285
 8086TIP3    H245674   5.537   6.342   3.314 -0.9593  0.6443 -0.2501
 8087TIP3   OH245675   1.018   3.583  12.758  0.9022  0.2572 -0.3309
 8087TIP3    H145676   1.102   3.596  12.801  0.6652 -0.9558  0.5801
 8087TIP3    H245677   0.954   3.581  12.829  0.0668  1.3220 -1.0175
 8088TIP3   OH245678   5.323   2.410  16.356  0.5556  0.5054  0.5611
 8088TIP3    H145679   5.241   2.448  16.385  1.1439  1.2580  1.2590
 8088TIP3    H245680   5.319   2.416  16.260 -0.6136 -0.3665  0.5357
 8089TIP3   OH245681   6.801   3.647  15.481 -0.5188  0.3118  0.3930
 8089TIP3    H145682   6.879   3.592  15.468  0.3838  1.5474  0.3897
 8089TIP3    H245683   6.735   3.610  15.423  0.8976  0.8311 -1.6337
 8090TIP3   OH245684   4.654   4.175   4.012  0.1741 -0.3852 -0.5546
 8090TIP3    H145685   4.629   4.151   3.923 -1.0832  0.8973 -0.5779
 8090TIP3    H245686   4.738   4.220   4.002 -0.2969  0.3742 -1.1928
 8091TIP3   OH245687   0.626   2.998   2.574  0.0107 -0.5991  0.3547
 8091TIP3    H145688   0.636   3.093   2.563  2.1073 -0.7723  0.3912
 8091TIP3    H245689   0.616   2.986   2.668  0.4284 -0.4441  0.4241
 8092TIP3   OH245690   0.106   5.609   5.574  0.3503 -0.0234 -0.3914
 8092TIP3    H145691   0.174   5.557   5.533  0.0211 -0.0567 -0.9069
 8092TIP3    H245692   0.153   5.674   5.627  0.7797  0.0064 -0.8080
 8093TIP3   OH245693   0.409   0.871   3.511  0.1159  0.0584  0.0687
 8093TIP3    H145694   0.407   0.817   3.432  0.7147  1.0718 -0.6830
 8093TIP3    H245695   0.470   0.942   3.489 -1.6540  1.7897  0.4930
 8094TIP3   OH245696   6.216   6.011  10.291  0.3638 -0.0596 -0.0324
 8094TIP3    H145697   6.214   5.925  10.251 -1.6120 -0.6594  1.2080
 8094TIP3    H245698   6.171   6.000  10.375 -1.5360  2.5059 -0.5776
 8095TIP3   OH245699   4.939   1.828  14.618  0.0260  0.0184  0.0038
 8095TIP3    H145700   4.928   1.775  14.539  1.1943  0.1272 -0.2586
 8095TIP3    H245701   4.923   1.767  14.690 -3.2594  0.4043 -0.2440
 8096TIP3   OH245702   6.538   6.590  14.521 -0.4165  0.7732  0.7885
 8096TIP3    H145703   6.542   6.657  14.590 -2.2001  1.5417  0.2158
 8096TIP3    H245704   6.446   6.565  14.517 -0.5309  1.3037 -1.8227
 8097TIP3   OH245705   1.718   1.877  11.612  0.8051 -0.1352 -0.1820
 8097TIP3    H145706   1.776   1.822  11.560 -2.2603 -3.4840 -0.4913
 8097TIP3    H245707   1.758   1.879  11.699  1.7040 -1.8196 -0.5088
 8098TIP3   OH245708   0.866   2.993   4.061 -0.2089  0.4077  0.0180
 8098TIP3    H145709   0.818   3.076   4.062  1.3435  1.3668  1.6181
 8098TIP3    H245710   0.905   2.988   3.973  1.4585  2.5272  0.5475
 8099TIP3   OH245711   4.458   4.406   4.427 -0.0758 -0.0254  0.4812
 8099TIP3    H145712   4.495   4.323   4.459  0.6348 -1.0022 -2.4685
 8099TIP3    H245713   4.526   4.470   4.444  0.2385 -0.4728  0.9534
 8100TIP3   OH245714   3.936   4.803   1.731  0.1592  0.2575  0.4315
 8100TIP3    H145715   3.951   4.715   1.766  0.2764 -0.7244 -1.9119
 8100TIP3    H245716   4.023   4.843   1.732  0.6969 -0.7493 -1.1219
 8101TIP3   OH245717   0.851   5.944   4.285  0.1948  0.2047 -0.3655
 8101TIP3    H145718   0.846   5.871   4.346 -1.0248 -0.6014 -1.3611
 8101TIP3    H245719   0.917   6.002   4.321  0.9435 -1.2260  0.6403
 8102TIP3   OH245720   6.046   0.313   3.246 -0.3679  0.5603 -0.0999
 8102TIP3    H145721   5.980   0.327   3.315 -0.3123  1.0343 -0.1407
 8102TIP3    H245722   6.109   0.384   3.258 -0.1239  0.3915 -0.3694
 8103TIP3   OH245723   5.554   4.305  15.919 -0.8858 -0.3073 -0.2434
 8103TIP3    H145724   5.602   4.222  15.914 -2.3649 -1.1137 -1.9388
 8103TIP3    H245725   5.620   4.372  15.898 -0.2210 -1.2678 -1.2957
 8104TIP3   OH245726   1.014   0.553   2.961  0.2739 -0.1964  0.1331
 8104TIP3    H145727   0.945   0.528   2.899 -0.5556 -0.5404  1.1571
 8104TIP3    H245728   1.090   0.503   2.933 -0.5231 -1.5691  0.3146
 8105TIP3   OH245729   4.402   2.605   5.281  0.6719 -0.2355 -0.6189
 8105TIP3    H145730   4.380   2.639   5.195  0.4508  1.2501 -0.0139
 8105TIP3    H245731   4.382   2.511   5.277 -0.2611  0.0074 -1.8612
 8106TIP3   OH245732   6.667   5.758   1.885  0.2177 -0.2744 -0.7723
 8106TIP3    H145733   6.613   5.680   1.878 -0.1474 -0.0761 -0.2638
 8106TIP3    H245734   6.755   5.725   1.903 -0.0646 -0.5538  0.1405
 8107TIP3   OH245735   4.576   3.276   1.144 -0.2042  0.3779 -0.5017
 8107TIP3    H145736   4.488   3.314   1.137 -0.0214  1.0687  0.5505
 8107TIP3    H245737   4.630   3.350   1.172  0.3448 -0.4512  0.7035
 8108TIP3   OH245738   5.902   3.655   5.520 -0.1152 -0.2663  0.4955
 8108TIP3    H145739   5.936   3.686   5.436  1.3534 -1.0056  0.7939
 8108TIP3    H245740   5.912   3.560   5.517  0.9182 -0.2353  1.8974
 8109TIP3   OH245741   3.490   5.967  10.402 -0.0774 -0.1907 -0.0517
 8109TIP3    H145742   3.469   5.876  10.382 -1.8337  0.2766 -0.5106
 8109TIP3    H245743   3.573   5.983  10.357 -1.1874 -0.7440 -2.4593
 8110TIP3   OH245744   3.864   1.958  14.310 -0.2032 -0.4128 -0.8690
 8110TIP3    H145745   3.922   2.032  14.324 -2.6633  2.2921 -3.7320
 8110TIP3    H245746   3.795   1.969  14.376 -0.9451  0.3243 -1.7467
 8111TIP3   OH245747   0.786   2.481   6.269  0.1416  0.2931 -0.6340
 8111TIP3    H145748   0.767   2.522   6.185  0.3916  0.5265 -0.5782
 8111TIP3    H245749   0.700   2.469   6.310  0.1594  3.1060  0.4655
 8112TIP3   OH245750   3.063   2.030  12.197  0.7654  0.0909  0.3292
 8112TIP3    H145751   3.110   2.038  12.114  2.3948 -0.4632  1.1448
 8112TIP3    H245752   2.971   2.036  12.173  1.1826 -0.1736 -1.5301
 8113TIP3   OH245753   0.244   3.146  13.694 -0.3884 -0.8186  0.2984
 8113TIP3    H145754   0.269   3.236  13.671 -0.1463 -0.8814  0.3184
 8113TIP3    H245755   0.150   3.152  13.714 -0.7237 -0.8487 -1.1434
 8114TIP3   OH245756   3.465   1.473   3.727  0.2745 -0.5600 -0.1179
 8114TIP3    H145757   3.394   1.423   3.687 -0.9223  0.9522 -0.0061
 8114TIP3    H245758   3.544   1.444   3.683 -0.6311 -1.1328 -1.4121
 8115TIP3   OH245759   6.565   1.661   4.385 -0.3604 -0.1230  0.4616
 8115TIP3    H145760   6.481   1.622   4.360 -0.1181 -0.8058  0.6922
 8115TIP3    H245761   6.627   1.588   4.385  0.1762  0.3202  0.5883
 8116TIP3   OH245762   1.081   3.669   3.909 -0.4242  0.4110 -0.4311
 8116TIP3    H145763   1.031   3.744   3.875 -3.8651 -1.1858  0.6464
 8116TIP3    H245764   1.093   3.689   4.002  0.2831  0.4321 -0.5254
 8117TIP3   OH245765   4.891   3.132   4.027  0.3406  0.7625 -0.3102
 8117TIP3    H145766   4.862   3.093   3.944  0.1412 -0.1393  0.1693
 8117TIP3    H245767   4.900   3.058   4.086  1.1316  1.3265  0.2934
 8118TIP3   OH245768   5.593   0.539   0.939  0.3999 -0.0203  0.1909
 8118TIP3    H145769   5.565   0.466   0.884  0.0657 -0.9551  1.5525
 8118TIP3    H245770   5.543   0.614   0.908  0.4402 -0.4548 -0.9603
 8119TIP3   OH245771   5.904   5.857  16.852 -0.1064 -0.4411 -0.2362
 8119TIP3    H145772   5.986   5.906  16.857 -0.3617  0.0368 -0.6292
 8119TIP3    H245773   5.929   5.772  16.814  0.3551 -0.6718  0.5554
 8120TIP3   OH245774   0.077   5.275  16.343  0.1546 -0.0156  0.0331
 8120TIP3    H145775   0.032   5.214  16.284 -2.3681  1.4779  0.3114
 8120TIP3    H245776   0.156   5.299  16.296 -0.1459 -1.3908 -1.2645
 8121TIP3   OH245777   2.204   1.860   2.083 -0.1366  0.0705  0.0197
 8121TIP3    H145778   2.172   1.874   2.173  0.3251  0.6235  0.1058
 8121TIP3    H245779   2.278   1.801   2.093 -1.3552 -1.5892 -0.2263
 8122TIP3   OH245780   0.811   0.178  13.056  0.0037 -0.3457 -0.3031
 8122TIP3    H145781   0.740   0.185  13.119  0.8783  0.0616  0.6661
 8122TIP3    H245782   0.847   0.090  13.069 -1.4802 -1.2746 -2.0992
 8123TIP3   OH245783   1.754   6.567   5.955 -0.0778  0.3611  0.1330
 8123TIP3    H145784   1.670   6.548   5.997  0.3455 -0.8429  0.4685
 8123TIP3    H245785   1.813   6.589   6.026  0.4219 -0.8647  0.1282
 8124TIP3   OH245786   5.016   5.873  12.977 -0.7157  0.6029 -0.2320
 8124TIP3    H145787   5.050   5.960  12.997  2.8913 -0.0241 -2.6898
 8124TIP3    H245788   5.038   5.859  12.884  0.4712 -3.4982  0.4545
 8125TIP3   OH245789   1.967   2.225   1.561 -0.2008  0.1659  0.1274
 8125TIP3    H145790   1.939   2.287   1.628 -0.9711 -0.2572  0.2061
 8125TIP3    H245791   1.966   2.140   1.604  1.8919  0.1981  0.3320
 8126TIP3   OH245792   0.897   1.438  14.381  0.3989 -0.0723  0.5482
 8126TIP3    H145793   0.932   1.381  14.312 -0.2862  2.6982 -2.3493
 8126TIP3    H245794   0.972   1.488  14.411  0.6047 -0.9360  1.5269
 8127TIP3   OH245795   2.048   2.391  14.419 -0.7780  0.3787  0.1334
 8127TIP3    H145796   2.038   2.388  14.514  2.1976  0.4442  0.5219
 8127TIP3    H245797   2.028   2.302  14.390  0.2123 -0.1787  1.0849
 8128TIP3   OH245798   4.776   0.717  11.221  0.4890  0.0132 -0.0605
 8128TIP3    H145799   4.749   0.738  11.132  0.5694  0.5608  0.0434
 8128TIP3    H245800   4.713   0.763  11.277  0.8641  0.2497  0.1693
 8129TIP3   OH245801   4.644   2.956   5.990  0.1470 -0.4647 -1.0686
 8129TIP3    H145802   4.685   2.870   6.001 -1.0182 -1.0243 -0.9983
 8129TIP3    H245803   4.695   2.998   5.921  0.7074 -1.2255 -1.1336
 8130TIP3   OH245804   2.987   2.296  14.702 -0.3419 -0.1820 -0.5238
 8130TIP3    H145805   2.996   2.202  14.689 -1.7511 -0.5252  0.7784
 8130TIP3    H245806   2.950   2.329  14.620  0.2717 -0.7234 -1.0267
 8131TIP3   OH245807   2.655   1.836  12.579 -0.4896  0.0828  0.3591
 8131TIP3    H145808   2.568   1.829  12.540 -0.7031  0.6999  0.6961
 8131TIP3    H245809   2.649   1.913  12.636  0.3181  0.2188  0.2769
 8132TIP3   OH245810   2.116   1.761  11.689 -0.1321  0.0412  0.0027
 8132TIP3    H145811   2.173   1.829  11.651 -2.7563  1.6376 -1.4175
 8132TIP3    H245812   2.124   1.687  11.628  0.6811  0.0911  0.0340
 8133TIP3   OH245813   1.366   6.332   1.823 -0.1660 -0.5670 -0.0626
 8133TIP3    H145814   1.301   6.326   1.753 -0.5186 -0.5934  0.2595
 8133TIP3    H245815   1.439   6.279   1.793 -1.4020 -2.9142  0.7503
 8134TIP3   OH245816   6.182   2.997   1.841 -0.1383  0.2997  0.2889
 8134TIP3    H145817   6.224   2.937   1.779 -1.6949  0.6611 -1.2096
 8134TIP3    H245818   6.224   2.979   1.925  1.7649 -0.5115 -0.7837
 8135TIP3   OH245819   6.290   6.313  11.283 -0.3946  0.2558  0.0157
 8135TIP3    H145820   6.381   6.302  11.312  0.2915 -0.3578 -2.1800
 8135TIP3    H245821   6.246   6.357  11.356  1.5289  0.0854  1.3358
 8136TIP3   OH245822   3.095   6.094  16.014 -0.5654  0.2170 -0.1404
 8136TIP3    H145823   3.109   6.062  16.103  0.9750 -1.2573 -0.8509
 8136TIP3    H245824   3.018   6.150  16.020 -0.3314  0.3744  2.1594
 8137TIP3   OH245825   5.272   5.279  12.018 -0.2822  0.2043 -0.2208
 8137TIP3    H145826   5.291   5.369  11.991  1.3386 -0.0373  0.0251
 8137TIP3    H245827   5.248   5.286  12.110 -0.5698  0.4323 -0.3126
 8138TIP3   OH245828   0.228   1.308   1.186  0.2513 -0.0494 -0.2149
 8138TIP3    H145829   0.318   1.331   1.164  0.1139  0.8210  0.0905
 8138TIP3    H245830   0.226   1.212   1.181  1.4369 -0.1483  0.7123
 8139TIP3   OH245831   1.753   2.545   0.413 -0.3705  0.2663  0.4865
 8139TIP3    H145832   1.834   2.529   0.460  0.3147  0.8957 -0.4497
 8139TIP3    H245833   1.761   2.634   0.381 -0.0591 -0.6507 -2.2352
 8140TIP3   OH245834   5.056   2.039  14.134 -0.1263 -0.4636 -0.1228
 8140TIP3    H145835   4.964   2.015  14.147 -0.0736 -0.8095 -0.3605
 8140TIP3    H245836   5.081   2.083  14.215 -0.1586 -1.4558  0.4449
 8141TIP3   OH245837   5.823   6.145  16.667  0.5770 -0.2200  0.1083
 8141TIP3    H145838   5.778   6.069  16.629  0.0367  0.5661 -0.8611
 8141TIP3    H245839   5.813   6.214  16.602 -0.4350  1.2186  1.7008
 8142TIP3   OH245840   5.262   1.480   0.331  0.4833  0.0147 -0.1978
 8142TIP3    H145841   5.221   1.521   0.255  1.1067 -1.1323 -1.1833
 8142TIP3    H245842   5.344   1.443   0.298  1.2391  0.3134  1.2442
 8143TIP3   OH245843   0.796   0.616   2.786 -0.8126 -0.1593  1.0729
 8143TIP3    H145844   0.727   0.552   2.802  0.3367 -1.7808 -0.1919
 8143TIP3    H245845   0.788   0.637   2.692 -0.6858  1.0103  1.2997
 8144TIP3   OH245846   0.731   3.916   6.206 -0.1381 -0.1797 -0.1243
 8144TIP3    H145847   0.794   3.854   6.171 -0.5722 -1.3753  1.1576
 8144TIP3    H245848   0.713   3.976   6.133  2.5305  0.2694 -0.4894
 8145TIP3   OH245849   5.097   4.654   3.978  0.1220  0.2145 -0.1858
 8145TIP3    H145850   5.041   4.583   4.008  0.9852  0.0262  1.0428
 8145TIP3    H245851   5.039   4.712   3.928 -0.4806 -1.6543 -1.7777
 8146TIP3   OH245852   3.031   0.422  14.365 -0.6048  0.2886 -0.0045
 8146TIP3    H145853   3.023   0.475  14.444 -0.1350  1.3850 -0.6624
 8146TIP3    H245854   3.030   0.486  14.293 -1.1755 -0.6954 -0.8939
 8147TIP3   OH245855   0.768   6.282  16.158 -0.2166  0.2030  0.6078
 8147TIP3    H145856   0.832   6.216  16.186  0.7126  0.8336  0.0505
 8147TIP3    H245857   0.715   6.238  16.092  0.1609 -0.0930  0.4974
 8148TIP3   OH245858   5.730   1.398   5.580  0.5821 -0.2095 -0.1980
 8148TIP3    H145859   5.785   1.365   5.652 -0.0935  2.3776  1.6308
 8148TIP3    H245860   5.642   1.369   5.603  0.3937  0.4552 -0.0750
 8149TIP3   OH245861   4.164   5.094   0.158 -0.3096  0.1103  0.3391
 8149TIP3    H145862   4.256   5.110   0.140 -0.1724 -0.1321  0.7921
 8149TIP3    H245863   4.145   5.010   0.116 -0.1323 -0.1867  0.8314
 8150TIP3   OH245864   3.331   3.272  14.781  0.0097  0.0784  0.6428
 8150TIP3    H145865   3.346   3.343  14.843 -1.6049 -0.4171  1.6589
 8150TIP3    H245866   3.309   3.316  14.699 -1.2611  0.7689  1.3357
 8151TIP3   OH245867   4.372   0.055   3.157  0.5855 -0.5514  0.1376
 8151TIP3    H145868   4.428   0.113   3.104  1.2908  1.3414  2.7708
 8151TIP3    H245869   4.403  -0.033   3.136  1.5386  0.1566 -1.7507
 8152TIP3   OH245870   0.770   1.635  11.392  0.2506  0.6740 -0.3527
 8152TIP3    H145871   0.852   1.585  11.390 -0.1701 -0.0388 -0.0967
 8152TIP3    H245872   0.704   1.573  11.423 -0.2721  1.4139  0.0542
 8153TIP3   OH245873   4.484   3.550  12.025 -0.0039 -0.9183 -0.0922
 8153TIP3    H145874   4.528   3.467  12.040  1.1635 -0.4765 -0.9173
 8153TIP3    H245875   4.536   3.592  11.956 -0.5563  0.5002  0.3331
 8154TIP3   OH245876   6.241   2.041  14.630  0.1984 -0.0441  0.1702
 8154TIP3    H145877   6.276   1.952  14.633  0.3673  0.0151 -0.0226
 8154TIP3    H245878   6.249   2.067  14.538 -0.8900 -0.2393  0.0003
 8155TIP3   OH245879   1.198   5.727   5.682  0.0968 -0.0240  0.3493
 8155TIP3    H145880   1.268   5.716   5.746 -0.9788 -1.7344  1.3130
 8155TIP3    H245881   1.128   5.671   5.714 -0.7365 -0.4168 -1.9847
 8156TIP3   OH245882   3.688   4.887  12.564 -0.0586  0.4336 -0.6000
 8156TIP3    H145883   3.611   4.843  12.528  1.3523 -3.0238  0.1358
 8156TIP3    H245884   3.760   4.859  12.507  1.2874 -0.2723  1.3456
 8157TIP3   OH245885   3.274   4.295  11.005 -0.3685 -0.2199 -0.1034
 8157TIP3    H145886   3.278   4.286  10.909 -0.9289 -0.5278 -0.1009
 8157TIP3    H245887   3.354   4.253  11.036  0.8045  1.5853 -0.5410
 8158TIP3   OH245888   4.495   1.518  16.091 -0.2948  0.4442 -0.0678
 8158TIP3    H145889   4.441   1.458  16.143 -0.7702  0.5411 -0.4445
 8158TIP3    H245890   4.564   1.462  16.055 -0.3392  0.2533  0.1398
 8159TIP3   OH245891   6.187   6.807   0.241 -0.1057 -0.1487 -0.3671
 8159TIP3    H145892   6.259   6.814   0.303 -0.9160  0.1032  0.5730
 8159TIP3    H245893   6.152   6.719   0.255 -2.1575  0.8794  1.7221
 8160TIP3   OH245894   2.311   4.017   0.809  0.1383  0.6087 -0.2118
 8160TIP3    H145895   2.262   4.099   0.806 -0.4290  0.3351  0.7528
 8160TIP3    H245896   2.280   3.967   0.733 -0.1790  0.9288 -0.2932
 8161TIP3   OH245897   6.108   6.348   1.798 -0.1498  0.0959 -0.3673
 8161TIP3    H145898   6.084   6.298   1.876 -2.5673  0.7311 -0.6345
 8161TIP3    H245899   6.185   6.398   1.825  0.3478 -1.2611  0.9137
 8162TIP3   OH245900   1.734   0.059  10.983  0.0664  0.4165 -0.3401
 8162TIP3    H145901   1.658   0.048  11.039 -0.2731  1.8274 -0.4813
 8162TIP3    H245902   1.730  -0.014  10.922 -1.5310  0.7938 -0.7305
 8163TIP3   OH245903   1.173   5.427   4.610  0.5667 -0.4311 -0.0018
 8163TIP3    H145904   1.106   5.442   4.544  0.1689  0.8689  0.6652
 8163TIP3    H245905   1.169   5.333   4.628 -1.0733 -0.3779  0.0142
 8164TIP3   OH245906   5.036   2.237   2.552 -0.0680  0.3733  0.3308
 8164TIP3    H145907   5.115   2.187   2.569 -0.1041  0.1502 -0.1533
 8164TIP3    H245908   4.985   2.230   2.633  0.8487  1.3674  1.0286
 8165TIP3   OH245909   5.737   2.983  13.823 -0.1454 -0.0312 -0.3943
 8165TIP3    H145910   5.681   2.982  13.745  0.6008  1.3543 -0.9822
 8165TIP3    H245911   5.826   2.969  13.788  0.1426  0.1430  0.2583
 8166TIP3   OH245912   3.981   4.000   2.019  0.6812 -0.1568 -0.4081
 8166TIP3    H145913   3.934   3.963   1.945  0.2124  0.6680 -0.5407
 8166TIP3    H245914   3.928   3.977   2.096  0.5027  0.0510 -0.4676
 8167TIP3   OH245915   1.222   3.713  16.277 -0.4308  0.1026 -0.4063
 8167TIP3    H145916   1.150   3.759  16.321 -0.5286  1.8884 -2.2701
 8167TIP3    H245917   1.252   3.775  16.210  2.7802 -0.6365  0.1860
 8168TIP3   OH245918   3.893   4.326   2.119 -0.0251 -0.2917 -0.0965
 8168TIP3    H145919   3.938   4.403   2.153 -0.4523  0.2431 -0.7298
 8168TIP3    H245920   3.963   4.272   2.081  0.1788  0.1819 -0.3965
 8169TIP3   OH245921   2.795   5.325  14.636  0.1109  0.1629  0.4169
 8169TIP3    H145922   2.781   5.231  14.629 -0.7728  0.2524  0.8868
 8169TIP3    H245923   2.761   5.360  14.554  2.8857 -0.1446 -0.9945
 8170TIP3   OH245924   5.140   2.626   5.754  0.1929  0.0620  0.2932
 8170TIP3    H145925   5.117   2.717   5.776 -3.6899 -0.5929 -0.4062
 8170TIP3    H245926   5.108   2.575   5.828 -1.3411 -1.0226 -1.0468
 8171TIP3   OH245927   1.123   0.800  16.261 -0.1658  0.3009  0.1014
 8171TIP3    H145928   1.041   0.801  16.309  0.0506  1.6549  0.4688
 8171TIP3    H245929   1.191   0.800  16.328  0.1400  2.2333 -0.1644
 8172TIP3   OH245930   3.214   1.031   2.629  0.2301  0.3482 -0.0890
 8172TIP3    H145931   3.146   0.994   2.573  1.0212  0.5264 -1.2069
 8172TIP3    H245932   3.276   0.959   2.640  0.7146  0.6886 -0.5236
 8173TIP3   OH245933   4.818   1.707   5.175 -0.3973 -0.6155  0.1859
 8173TIP3    H145934   4.903   1.690   5.216  0.6471  0.5661 -1.3786
 8173TIP3    H245935   4.783   1.781   5.223  0.1241 -0.1985 -0.0634
 8174TIP3   OH245936   3.421   5.428  10.998  0.4373  0.4271 -0.4414
 8174TIP3    H145937   3.408   5.334  11.014 -0.0005  0.5144 -0.2568
 8174TIP3    H245938   3.379   5.444  10.913  2.4359  0.0367 -1.5633
 8175TIP3   OH245939   4.792   2.702   3.374  0.0187  0.1571 -0.1644
 8175TIP3    H145940   4.768   2.626   3.427 -1.2665  1.3445  1.0492
 8175TIP3    H245941   4.878   2.728   3.406  0.6857 -1.0284 -0.9178
 8176TIP3   OH245942   4.299   3.838   1.062 -1.3617  0.7107  0.0773
 8176TIP3    H145943   4.310   3.922   1.108  0.3304  1.2886 -1.2598
 8176TIP3    H245944   4.305   3.860   0.970  0.0268 -0.9668 -0.2951
 8177TIP3   OH245945   5.748   5.378   1.441 -0.2937  0.1103  0.2989
 8177TIP3    H145946   5.813   5.446   1.424 -2.2650  1.7754 -0.8988
 8177TIP3    H245947   5.756   5.318   1.367 -0.4881  0.5771 -0.0952
 8178TIP3   OH245948   5.901   1.137   3.409  0.0212 -0.2647  0.0334
 8178TIP3    H145949   5.886   1.229   3.433  0.3047  0.4754 -2.3437
 8178TIP3    H245950   5.825   1.114   3.355  0.8393 -0.7880 -0.9391
 8179TIP3   OH245951   6.085   3.085   0.186  0.0510 -0.0845  0.2567
 8179TIP3    H145952   6.093   3.057   0.277  0.2063 -3.1583 -0.6164
 8179TIP3    H245953   5.997   3.059   0.159  0.8246 -1.4409 -1.1202
 8180TIP3   OH245954   1.226   5.995   0.003  0.1121  0.2091 -0.2221
 8180TIP3    H145955   1.167   5.923  -0.019  0.7608 -0.4296  0.1018
 8180TIP3    H245956   1.285   6.002  -0.072 -0.4912  0.9887 -0.6397
 8181TIP3   OH245957   3.169   6.149  10.808 -0.0802  0.5865  0.2115
 8181TIP3    H145958   3.090   6.100  10.828  0.2707 -0.0085  0.1370
 8181TIP3    H245959   3.225   6.088  10.761  0.6639  0.8227  0.7635
 8182TIP3   OH245960   5.346   4.830  14.448  0.2570  0.0436 -0.4357
 8182TIP3    H145961   5.250   4.827  14.453  0.2963 -0.3815  0.1375
 8182TIP3    H245962   5.370   4.751  14.399  0.4048 -0.8972  1.0694
 8183TIP3   OH245963   2.147   6.230  10.859 -0.0460 -0.7606 -0.2604
 8183TIP3    H145964   2.196   6.308  10.834 -0.8642  0.6889  2.2849
 8183TIP3    H245965   2.212   6.160  10.862  0.9605  0.1081 -1.3323
 8184TIP3   OH245966   1.330   6.026  13.695 -0.1744 -0.0970 -0.3878
 8184TIP3    H145967   1.319   6.074  13.613 -1.6827  0.0350 -0.1485
 8184TIP3    H245968   1.241   6.001  13.720  0.5135 -3.2193 -0.5799
 8185TIP3   OH245969   0.831   5.869  14.229  0.0664 -0.7302 -0.2630
 8185TIP3    H145970   0.774   5.895  14.302 -1.5295 -0.8573 -1.4119
 8185TIP3    H245971   0.906   5.929  14.234 -0.2537 -0.4215  1.1783
 8186TIP3   OH245972   4.872   0.106  14.988  0.1803 -0.4117 -0.4172
 8186TIP3    H145973   4.849   0.130  15.077  1.0173  2.8918 -0.9733
 8186TIP3    H245974   4.788   0.092  14.944 -0.2671 -0.9351  0.5708
 8187TIP3   OH245975   1.913   3.510   0.884  0.1216  0.8028 -0.5038
 8187TIP3    H145976   1.980   3.474   0.825 -0.5544  1.1543 -1.5193
 8187TIP3    H245977   1.953   3.588   0.921  0.5719  0.5616 -0.4788
 8188TIP3   OH245978   2.258   4.341   4.478 -0.4162 -0.0524  0.6551
 8188TIP3    H145979   2.233   4.428   4.447 -0.3003 -0.2961 -0.1725
 8188TIP3    H245980   2.284   4.294   4.398  3.2984  0.3525  1.4272
 8189TIP3   OH245981   5.387   3.153  12.708  0.1027 -0.3114  0.2671
 8189TIP3    H145982   5.433   3.126  12.629 -0.3390 -0.0063 -0.1016
 8189TIP3    H245983   5.453   3.201  12.759  0.6135 -1.2090  0.4725
 8190TIP3   OH245984   0.009   2.191  13.489 -0.3478 -0.2726 -0.2741
 8190TIP3    H145985   0.045   2.116  13.536  1.8144  0.6460 -0.3561
 8190TIP3    H245986  -0.021   2.251  13.557 -1.0361 -0.6864 -0.1954
 8191TIP3   OH245987   5.965   1.929  10.576  0.2648 -0.0775 -0.3560
 8191TIP3    H145988   5.911   1.903  10.501 -0.0945  2.3129 -1.0154
 8191TIP3    H245989   6.054   1.907  10.550 -0.1215 -1.9663 -0.2161
 8192TIP3   OH245990   5.767   4.530  11.454  0.6155 -0.1114 -0.0657
 8192TIP3    H145991   5.673   4.546  11.458  0.8337  1.6776 -1.2209
 8192TIP3    H245992   5.774   4.436  11.438 -1.0013 -0.1147 -0.9464
 8193TIP3   OH245993   0.721   3.186  11.457  0.4669  0.0527 -0.3009
 8193TIP3    H145994   0.653   3.141  11.508 -0.3254  2.0804  0.5571
 8193TIP3    H245995   0.725   3.273  11.495  1.4423  0.9526 -2.3135
 8194TIP3   OH245996   3.397   5.239  10.595 -0.0411  0.1331  0.0182
 8194TIP3    H145997   3.308   5.249  10.559 -0.0806  0.4369  0.1945
 8194TIP3    H245998   3.449   5.209  10.521 -0.6351 -1.7695  0.3220
 8195TIP3   OH245999   2.862   4.136   2.818  0.0890 -0.0565 -0.2804
 8195TIP3    H146000   2.869   4.195   2.893  1.5633 -0.4066 -0.1246
 8195TIP3    H246001   2.817   4.059   2.853  1.1556 -0.3988  0.3707
 8196TIP3   OH246002   3.239   6.221  12.270 -0.7389  0.5934  0.2354
 8196TIP3    H146003   3.153   6.248  12.237 -1.1304  2.2609  2.3471
 8196TIP3    H246004   3.302   6.274  12.220 -1.0278  0.3111 -0.4326
 8197TIP3   OH246005   2.079   2.378  14.024 -0.1160 -0.5336  0.4444
 8197TIP3    H146006   2.043   2.459  13.988 -0.1645 -0.7317  0.0493
 8197TIP3    H246007   2.160   2.405  14.066  0.3392 -0.4195 -0.4818
 8198TIP3   OH246008   2.786   6.468  13.802 -0.0067  0.1013 -0.2123
 8198TIP3    H146009   2.812   6.402  13.738  0.9072 -1.8557  1.9931
 8198TIP3    H246010   2.736   6.532  13.752  0.6247 -1.2938 -2.8316
 8199TIP3   OH246011   2.516   5.713   3.070  0.4650  0.0075  0.4564
 8199TIP3    H146012   2.567   5.793   3.084 -0.4718  0.9726 -1.2124
 8199TIP3    H246013   2.512   5.704   2.974  1.6604 -2.8260  0.5769
 8200TIP3   OH246014   5.096   6.639   1.775 -0.6056 -0.2782  0.2563
 8200TIP3    H146015   5.124   6.550   1.794 -1.8120 -1.5363 -3.0406
 8200TIP3    H246016   5.175   6.692   1.782  0.2105 -1.6212  1.9209
 8201TIP3   OH246017   3.382   6.578   3.739 -0.1787  0.0754  0.3999
 8201TIP3    H146018   3.450   6.639   3.710 -1.2843  1.2020  0.0775
 8201TIP3    H246019   3.417   6.491   3.718  0.8956  0.6572 -0.3194
 8202TIP3   OH246020   3.993   1.205  13.884  0.2378  0.1480 -0.2122
 8202TIP3    H146021   4.025   1.294  13.897 -1.3992  0.6609  0.6955
 8202TIP3    H246022   4.047   1.151  13.941  0.3473  0.7750  0.2849
 8203TIP3   OH246023   5.607   3.927   2.518 -0.0008  0.1778  0.0268
 8203TIP3    H146024   5.621   4.019   2.499 -0.3214  0.1041 -0.6044
 8203TIP3    H246025   5.690   3.897   2.556 -0.2217  0.9438  1.1372
 8204TIP3   OH246026   1.750   0.709  16.044  0.1010  0.2592  0.0399
 8204TIP3    H146027   1.757   0.661  15.962  0.8694 -0.3928  0.4684
 8204TIP3    H246028   1.803   0.659  16.106 -0.3052  0.8399  0.8892
 8205TIP3   OH246029   5.192   2.223  15.775 -0.4311  0.1758  0.1865
 8205TIP3    H146030   5.271   2.221  15.829 -0.1094 -0.4702 -0.2997
 8205TIP3    H246031   5.186   2.314  15.745  0.5741  0.0483 -0.4195
 8206TIP3   OH246032   6.596   3.954   2.568 -0.6485  0.7875 -0.6240
 8206TIP3    H146033   6.654   3.900   2.622 -2.7588 -0.1619  0.8172
 8206TIP3    H246034   6.623   4.044   2.585  0.2911  0.3756  0.1141
 8207TIP3   OH246035   2.883   5.190   2.432 -0.5077  0.4688  1.0091
 8207TIP3    H146036   2.846   5.275   2.410  0.0226  0.7500  1.1914
 8207TIP3    H246037   2.948   5.209   2.500  1.1734  0.2303 -0.4709
 8208TIP3   OH246038   2.420   0.470  12.485 -0.2543 -0.4775 -0.4115
 8208TIP3    H146039   2.400   0.383  12.452 -1.7305  0.3768 -1.8691
 8208TIP3    H246040   2.343   0.523  12.465  0.5987  1.1907  0.4320
 8209TIP3   OH246041   6.111   6.739   4.998  0.3443 -0.0938  0.6533
 8209TIP3    H146042   6.188   6.737   5.054  0.6406  2.1830  0.4411
 8209TIP3    H246043   6.142   6.714   4.911  1.2402  2.1624  0.2469
 8210TIP3   OH246044   2.096   3.245   3.516 -0.5987  0.6201  0.5179
 8210TIP3    H146045   2.140   3.278   3.594 -0.5735 -0.3844  0.9374
 8210TIP3    H246046   2.086   3.322   3.460  0.6971  1.0693  0.8828
 8211TIP3   OH246047   4.453   2.555  15.373 -0.0006 -0.2143  0.1612
 8211TIP3    H146048   4.485   2.473  15.335 -1.4938 -1.4284  1.3616
 8211TIP3    H246049   4.446   2.536  15.467  1.0341  1.8011  0.7080
 8212TIP3   OH246050   3.668   3.707   4.891 -0.2682 -0.0625 -0.5390
 8212TIP3    H146051   3.600   3.643   4.911  0.8536 -1.3575 -0.7802
 8212TIP3    H246052   3.710   3.673   4.812  1.0824  0.3900 -0.0296
 8213TIP3   OH246053   3.323   3.407   4.567 -0.1759  0.5560 -0.6090
 8213TIP3    H146054   3.321   3.313   4.553 -1.5037  0.6831 -1.4124
 8213TIP3    H246055   3.404   3.436   4.526 -0.7337  0.0059 -2.1752
 8214TIP3   OH246056   3.679   2.954   4.958  0.1043 -0.2568 -0.3014
 8214TIP3    H146057   3.706   2.910   4.878  2.7984 -1.2656  1.0417
 8214TIP3    H246058   3.583   2.948   4.957  0.1164 -1.1805 -2.8877
 8215TIP3   OH246059   3.806   3.526  14.945 -0.2533 -0.6472 -0.2441
 8215TIP3    H146060   3.768   3.439  14.960 -0.2173 -0.4752  0.9144
 8215TIP3    H246061   3.785   3.575  15.024 -1.4257  0.8291 -1.4210
 8216TIP3   OH246062   5.958   5.916  11.136  0.2243 -0.0385  0.3159
 8216TIP3    H146063   6.034   5.890  11.083  0.5719  0.3425  0.6234
 8216TIP3    H246064   5.950   6.011  11.122  1.0525  0.2876  1.8725
 8217TIP3   OH246065   1.024   3.260   2.768  0.3251  0.3289 -0.8146
 8217TIP3    H146066   0.981   3.346   2.761 -0.2625 -0.1041 -3.1649
 8217TIP3    H246067   1.004   3.231   2.857 -2.0018  1.3377 -0.9349
 8218TIP3   OH246068   2.480   3.703  14.961  0.0052 -0.5655 -0.6363
 8218TIP3    H146069   2.512   3.615  14.937 -0.1632 -0.4013 -1.4758
 8218TIP3    H246070   2.545   3.763  14.924  0.5920 -0.3506  0.6814
 8219TIP3   OH246071   4.708   2.184   2.971  0.0839 -0.7588 -0.5454
 8219TIP3    H146072   4.725   2.256   3.031 -2.6421  1.0600 -1.7046
 8219TIP3    H246073   4.776   2.190   2.904  1.5813 -1.1619  0.8907
 8220TIP3   OH246074   2.955   1.940  16.112  0.0131  0.3607  0.9518
 8220TIP3    H146075   2.986   2.001  16.045 -0.0497 -2.1666 -1.5083
 8220TIP3    H246076   3.036   1.904  16.150  0.0488  0.1311  0.6554
 8221TIP3   OH246077   0.381   1.689  15.709 -0.4196  0.1578  0.1706
 8221TIP3    H146078   0.303   1.717  15.757 -1.7549  0.2947 -1.9727
 8221TIP3    H246079   0.390   1.753  15.639  1.5800  0.0645  0.2797
 8222TIP3   OH246080   1.033   2.893   2.002  0.2606 -0.1613  0.0630
 8222TIP3    H146081   0.992   2.922   2.083  2.1445  1.2441  0.5839
 8222TIP3    H246082   0.961   2.857   1.950 -1.3875  1.0081  1.4247
 8223TIP3   OH246083   3.473   6.756  15.555  0.0311 -0.1714  0.2180
 8223TIP3    H146084   3.461   6.670  15.516  1.3513 -0.4371  0.3637
 8223TIP3    H246085   3.391   6.773  15.602 -0.9487 -0.5383 -1.3110
 8224TIP3   OH246086   5.069   5.453  11.159  0.1043 -0.0188 -0.0851
 8224TIP3    H146087   5.160   5.481  11.167  0.1098  0.0610 -0.3925
 8224TIP3    H246088   5.066   5.367  11.202 -0.1985  0.9866  2.0526
 8225TIP3   OH246089   5.218   6.602  11.700  0.0777 -0.1434 -0.2849
 8225TIP3    H146090   5.126   6.617  11.675  0.3817  0.6001 -1.0380
 8225TIP3    H246091   5.231   6.657  11.777 -0.3925 -1.0937  0.4953
 8226TIP3   OH246092   5.862   4.794  15.654 -0.0520  0.4159  0.6095
 8226TIP3    H146093   5.944   4.828  15.690 -0.0247  1.5046 -0.4277
 8226TIP3    H246094   5.795   4.852  15.690 -0.1376  0.8271 -0.1968
 8227TIP3   OH246095   6.417   3.219  10.665 -0.0897 -0.4013  0.1411
 8227TIP3    H146096   6.379   3.230  10.578 -0.7653 -0.8084  0.3767
 8227TIP3    H246097   6.404   3.303  10.708  1.3604  0.2059 -0.5662
 8228TIP3   OH246098   4.046   0.390   1.948  0.1819  0.2915  0.3960
 8228TIP3    H146099   4.084   0.477   1.935  0.2410  0.1212 -0.6406
 8228TIP3    H246100   4.121   0.331   1.947  0.1393  0.2229  1.0880
 8229TIP3   OH246101   4.984   1.014  11.292  0.5112  0.5303  0.1046
 8229TIP3    H146102   4.928   0.979  11.223 -0.1628  1.5411  0.1154
 8229TIP3    H246103   5.004   1.103  11.264  0.8683  0.6923  0.8379
 8230TIP3   OH246104   4.977   6.198   4.244  0.2069  0.0105 -0.1729
 8230TIP3    H146105   5.061   6.230   4.277 -0.9808  1.0466  2.0635
 8230TIP3    H246106   4.911   6.249   4.292 -1.7588 -2.6840  0.2364
 8231TIP3   OH246107   4.936   1.271  10.963  0.5339  0.4400  0.2860
 8231TIP3    H146108   4.932   1.307  10.874  1.7021  2.2628  0.8983
 8231TIP3    H246109   4.872   1.201  10.964 -0.1883  1.0096 -1.7252
 8232TIP3   OH246110   6.179   6.571  14.824 -0.2542  0.5412 -0.1140
 8232TIP3    H146111   6.094   6.616  14.822 -0.3201  0.4753  0.6775
 8232TIP3    H246112   6.195   6.545  14.734 -1.1137  0.4938 -0.2627
 8233TIP3   OH246113   3.865   0.711  13.309 -0.0940 -0.2428 -0.0901
 8233TIP3    H146114   3.832   0.800  13.316  1.8406  0.6657 -1.7501
 8233TIP3    H246115   3.809   0.669  13.244 -0.9502 -0.2461  0.6304
 8234TIP3   OH246116   0.861   4.898   5.522  0.1748 -0.2534 -0.0995
 8234TIP3    H146117   0.798   4.932   5.584  0.7378  1.2165 -0.3058
 8234TIP3    H246118   0.833   4.933   5.437 -1.0219 -2.8277 -0.8668
 8235TIP3   OH246119   1.928   3.547  11.053  0.1452  0.5896  0.0695
 8235TIP3    H146120   1.894   3.476  11.000 -0.4480  1.3376 -0.5659
 8235TIP3    H246121   1.877   3.543  11.134  1.2935 -0.7769  0.7796
 8236TIP3   OH246122   1.045   1.461   3.327 -0.0669 -0.4825  0.4936
 8236TIP3    H146123   0.986   1.470   3.252 -1.3313 -1.1671  1.3827
 8236TIP3    H246124   1.092   1.545   3.330 -1.8515  0.5671  0.4805
 8237TIP3   OH246125   3.138   0.721   5.151 -0.4297  0.1964 -0.1806
 8237TIP3    H146126   3.201   0.655   5.121 -0.7675 -0.0915 -0.2619
 8237TIP3    H246127   3.114   0.769   5.072 -0.6720 -0.0062 -0.2326
 8238TIP3   OH246128   0.918   0.916  12.253  0.0514  0.3076 -0.2502
 8238TIP3    H146129   0.994   0.873  12.292  0.1938  0.0110 -0.8307
 8238TIP3    H246130   0.901   0.992  12.309  2.6318  2.1277 -1.7078
 8239TIP3   OH246131   1.232   5.812  13.896  0.1427 -0.0928  0.8306
 8239TIP3    H146132   1.264   5.841  13.982  0.5438 -0.9211  0.9694
 8239TIP3    H246133   1.297   5.844  13.834  1.4536 -1.9664  1.1303
 8240TIP3   OH246134   6.165   0.171  15.994  0.2453  0.0435 -0.0744
 8240TIP3    H146135   6.121   0.233  15.936 -2.5506 -1.9010 -0.2390
 8240TIP3    H246136   6.122   0.181  16.079  0.9537 -0.4806  0.3670
 8241TIP3   OH246137   1.632   2.349  11.039 -0.5130 -0.6740 -0.0218
 8241TIP3    H146138   1.681   2.333  10.959 -1.2748  1.3738 -0.9748
 8241TIP3    H246139   1.571   2.275  11.045 -0.1521 -1.0728 -1.0922
 8242TIP3   OH246140   3.586   5.077   5.212  0.1826 -0.3010  0.8052
 8242TIP3    H146141   3.615   5.147   5.154  1.1891 -0.4002  1.1666
 8242TIP3    H246142   3.643   5.085   5.289 -0.8729 -0.4043  1.6202
 8243TIP3   OH246143   1.711   5.320   2.944 -0.3713  0.0572 -0.4065
 8243TIP3    H146144   1.749   5.296   2.859 -0.9083  0.9233 -0.9129
 8243TIP3    H246145   1.631   5.367   2.921  0.1610  1.4995  0.5304
 8244TIP3   OH246146   2.813   5.536   3.786  0.2569  0.1709  0.4138
 8244TIP3    H146147   2.829   5.526   3.693  1.0281  1.7934  0.3398
 8244TIP3    H246148   2.718   5.549   3.793  0.2570  0.5126 -0.1936
 8245TIP3   OH246149   1.514   0.520   4.178  0.2254 -0.3610 -0.1099
 8245TIP3    H146150   1.560   0.577   4.240  0.7210 -2.2404  1.3199
 8245TIP3    H246151   1.573   0.516   4.102  0.4520  0.5406  0.0046
 8246TIP3   OH246152   1.873   0.930   4.116 -0.0913 -0.5458  0.1075
 8246TIP3    H146153   1.869   0.847   4.165 -2.7151 -1.3431 -1.2744
 8246TIP3    H246154   1.931   0.985   4.168  1.5754 -3.1416  1.2184
 8247TIP3   OH246155   1.307   5.715   0.462 -0.1352 -0.0082 -0.8467
 8247TIP3    H146156   1.292   5.773   0.387 -1.4188 -0.3124 -0.8531
 8247TIP3    H246157   1.224   5.669   0.473  0.7652 -1.6303 -0.6393
 8248TIP3   OH246158   1.885   5.159   2.502 -0.0540 -0.1400  0.4629
 8248TIP3    H146159   1.972   5.138   2.467 -0.2489 -0.5645  0.2196
 8248TIP3    H246160   1.867   5.087   2.564 -1.2231 -1.3724 -1.2340
 8249TIP3   OH246161   2.891   0.354   0.683 -0.6503  0.3999  0.4043
 8249TIP3    H146162   2.852   0.314   0.605 -0.5119  0.6387  0.2116
 8249TIP3    H246163   2.826   0.418   0.712 -0.5955  0.4819  0.3448
 8250TIP3   OH246164   5.976   1.677   0.508 -0.2294  0.1241  0.3513
 8250TIP3    H146165   5.901   1.671   0.568 -0.3607  0.2593  0.2027
 8250TIP3    H246166   5.996   1.586   0.486 -1.3829  0.1222 -0.8749
 8251TIP3   OH246167   3.212   4.325  16.756  0.2521 -0.0472  0.2055
 8251TIP3    H146168   3.166   4.257  16.804  0.6293 -0.4286  0.0329
 8251TIP3    H246169   3.296   4.335  16.801 -0.2711  1.1621  0.9663
 8252TIP3   OH246170   4.375   6.682  14.072  0.4360  0.0563 -0.7476
 8252TIP3    H146171   4.352   6.626  14.146  0.5009  1.3000  0.2350
 8252TIP3    H246172   4.396   6.621  14.001 -2.1395 -1.1672 -0.5577
 8253TIP3   OH246173   3.912   4.689  15.997  0.1592 -1.1008 -0.1554
 8253TIP3    H146174   3.834   4.650  16.036 -1.6678  0.5905 -1.8907
 8253TIP3    H246175   3.943   4.752  16.062 -1.7530  0.3771 -0.6116
 8254TIP3   OH246176   4.106   4.262   5.629  0.0489  0.2968 -0.0048
 8254TIP3    H146177   4.178   4.207   5.598 -1.0373 -0.0091 -2.1430
 8254TIP3    H246178   4.120   4.346   5.584 -1.3322 -0.0179 -1.0676
 8255TIP3   OH246179   6.388   2.337  15.012 -0.5060 -0.3314 -0.0193
 8255TIP3    H146180   6.316   2.310  14.954 -0.1552 -0.6836 -0.2918
 8255TIP3    H246181   6.351   2.408  15.064 -1.0922 -0.5855 -0.0793
 8256TIP3   OH246182   0.597   6.305  15.614 -0.5306 -0.4636 -0.1947
 8256TIP3    H146183   0.533   6.363  15.573 -1.2110  0.0312  1.4842
 8256TIP3    H246184   0.594   6.327  15.707  2.6222  0.0531 -0.1178
 8257TIP3   OH246185   4.854   6.203   0.730 -0.0006 -0.1539 -0.2456
 8257TIP3    H146186   4.932   6.150   0.710  0.4248  0.2403  0.3256
 8257TIP3    H246187   4.868   6.285   0.683  0.4819  0.3516  0.7413
 8258TIP3   OH246188   2.681   5.958  14.384 -1.0202  0.4482  0.4397
 8258TIP3    H146189   2.624   5.911  14.444 -1.4324  0.5721  0.1479
 8258TIP3    H246190   2.766   5.959  14.428 -0.8362 -1.1118  0.1969
 8259TIP3   OH246191   3.205   5.004  14.509  0.0143  0.3752 -0.3609
 8259TIP3    H146192   3.123   4.956  14.508 -0.5352  1.2564 -2.4269
 8259TIP3    H246193   3.220   5.024  14.602 -1.4433 -0.8429  0.1782
 8260TIP3   OH246194   1.971   6.638  13.267 -0.1593  0.1871 -0.3858
 8260TIP3    H146195   2.049   6.606  13.223 -0.6485 -1.4458 -0.1238
 8260TIP3    H246196   1.949   6.719  13.221 -0.8164 -1.5543 -3.3802
 8261TIP3   OH246197   6.210   1.623  16.936 -0.7693  0.3590 -0.3003
 8261TIP3    H146198   6.271   1.687  16.898  0.4159  0.0353  0.9779
 8261TIP3    H246199   6.202   1.555  16.869 -0.3816  0.8074 -0.8188
 8262TIP3   OH246200   2.187   0.180  13.203  0.4993 -0.4423  0.2385
 8262TIP3    H146201   2.168   0.269  13.174  0.6749  0.0348  1.5195
 8262TIP3    H246202   2.199   0.130  13.122 -0.0015  0.6040 -0.4966
 8263TIP3   OH246203   3.917   5.196  16.638  0.5086 -0.7943 -0.2490
 8263TIP3    H146204   3.895   5.115  16.684 -0.0127 -0.5193 -0.0021
 8263TIP3    H246205   3.980   5.240  16.695  1.7060 -1.5539 -0.9286
 8264TIP3   OH246206   0.394   4.236   1.554  0.1707  0.2258 -0.1808
 8264TIP3    H146207   0.477   4.250   1.601 -2.0898  0.7584  4.2253
 8264TIP3    H246208   0.392   4.305   1.488  2.9484  0.5487 -0.0662
 8265TIP3   OH246209   4.115   0.836  13.987 -0.6344 -0.4240  0.3783
 8265TIP3    H146210   4.094   0.798  13.902 -1.3979 -1.5864  1.0580
 8265TIP3    H246211   4.194   0.791  14.015  0.8592  1.4506 -0.6049
 8266TIP3   OH246212   0.110   5.784  13.146 -0.7237 -0.2382  0.1274
 8266TIP3    H146213   0.100   5.720  13.215 -1.3794  1.0937  1.3298
 8266TIP3    H246214   0.026   5.782  13.100 -0.9700  0.1646  0.5489
 8267TIP3   OH246215   3.112   1.921  11.938 -0.7435 -0.1107 -0.3136
 8267TIP3    H146216   3.062   1.841  11.954  0.2635 -0.5650  0.7397
 8267TIP3    H246217   3.190   1.892  11.892 -1.3825  0.5836 -1.8861
 8268TIP3   OH246218   6.144   3.192  14.794  0.1748  0.2142 -0.3511
 8268TIP3    H146219   6.082   3.254  14.833 -0.2939 -0.2486 -0.3405
 8268TIP3    H246220   6.088   3.123  14.759  0.7228 -0.6279  0.3931
 8269TIP3   OH246221   5.728   5.866  13.754 -0.0978 -0.5761 -0.3194
 8269TIP3    H146222   5.802   5.835  13.703  0.3054 -1.1818  0.6029
 8269TIP3    H246223   5.656   5.808  13.729  0.2923 -1.3713  0.3319
 8270TIP3   OH246224   4.355   2.506   3.695  0.2467  0.0053  0.3501
 8270TIP3    H146225   4.274   2.482   3.740 -0.4624  1.9791  0.2506
 8270TIP3    H246226   4.326   2.560   3.622  1.4415 -2.3633 -2.0021
 8271TIP3   OH246227   0.360   1.946  11.644 -0.1716  0.1836  0.3648
 8271TIP3    H146228   0.413   1.931  11.566 -2.0634 -0.1624 -0.9192
 8271TIP3    H246229   0.303   2.020  11.621 -0.7229  0.1184  1.4275
 8272TIP3   OH246230   4.306   3.553  16.270 -0.6300  0.0745 -0.1069
 8272TIP3    H146231   4.368   3.490  16.233  0.8446  1.1617  0.4493
 8272TIP3    H246232   4.295   3.525  16.361 -1.1855 -0.2704 -0.2729
 8273TIP3   OH246233   1.043   4.807   0.378  0.2116 -0.3933 -0.1006
 8273TIP3    H146234   1.041   4.901   0.397 -0.1400 -0.4943  0.3836
 8273TIP3    H246235   1.038   4.765   0.464 -1.0980 -0.8634 -0.3815
 8274TIP3   OH246236   3.508   2.302   1.360 -0.5680 -0.0453  0.3308
 8274TIP3    H146237   3.459   2.365   1.308  1.3128  0.2848 -1.1636
 8274TIP3    H246238   3.453   2.223   1.361 -1.6090  0.6538 -0.3140
 8275TIP3   OH246239   2.012   2.127   2.640  0.1117  0.1172 -0.1984
 8275TIP3    H146240   2.067   2.195   2.600 -1.7428  0.5413 -2.2296
 8275TIP3    H246241   1.998   2.158   2.730  1.5321  0.9918 -0.2371
 8276TIP3   OH246242   4.686   5.869   6.371 -0.2992 -0.1337  0.2059
 8276TIP3    H146243   4.680   5.798   6.307 -0.1653  1.3388 -1.5226
 8276TIP3    H246244   4.779   5.891   6.373 -0.6202  1.6256 -1.2391
 8277TIP3   OH246245   0.028   6.273  12.762  0.0266  0.1075 -0.0571
 8277TIP3    H146246  -0.055   6.311  12.790 -0.5051  0.1775 -1.6192
 8277TIP3    H246247   0.003   6.208  12.696  1.1616 -0.5338  0.1211
 8278TIP3   OH246248   3.035   0.084   3.317  1.4423  0.0225 -0.3320
 8278TIP3    H146249   3.027   0.025   3.392 -0.4681  0.9168  0.2137
 8278TIP3    H246250   2.987   0.041   3.247 -1.8091  1.7525  0.6568
 8279TIP3   OH246251   5.284   1.942   5.860  0.0463 -0.3905 -0.0675
 8279TIP3    H146252   5.330   2.002   5.920 -0.0153 -1.2610  0.8767
 8279TIP3    H246253   5.338   1.943   5.781  0.4957  0.2805  0.2277
 8280TIP3   OH246254   5.456   2.115  12.746 -0.2095  0.1791  0.9206
 8280TIP3    H146255   5.531   2.059  12.764 -0.6295 -0.8037 -0.2833
 8280TIP3    H246256   5.482   2.202  12.779  1.7304  0.0246 -0.1123
 8281TIP3   OH246257   6.296   1.469  10.421 -0.0140  0.3416  0.2876
 8281TIP3    H146258   6.388   1.458  10.395 -0.4956  0.9847 -1.8923
 8281TIP3    H246259   6.253   1.388  10.395 -0.5966  1.1763 -1.5155
 8282TIP3   OH246260   3.480   3.366   6.338  0.0187  0.1497  0.1443
 8282TIP3    H146261   3.442   3.437   6.286 -0.8265  0.1472  0.7457
 8282TIP3    H246262   3.572   3.364   6.311  0.0253  1.3788  0.0054
 8283TIP3   OH246263   4.333   2.291  15.195 -0.2967  0.6873  0.3175
 8283TIP3    H146264   4.414   2.249  15.223 -0.2301  0.2217 -0.5392
 8283TIP3    H246265   4.277   2.290  15.273 -0.5328 -1.5648  0.2043
 8284TIP3   OH246266   5.539   2.389  11.324 -0.4501  0.5023 -0.0714
 8284TIP3    H146267   5.587   2.472  11.323 -0.3637  0.4565  0.2440
 8284TIP3    H246268   5.545   2.357  11.234 -1.0293  1.1532 -0.3492
 8285TIP3   OH246269   3.635   0.295  11.785 -0.0448 -0.0762 -0.4779
 8285TIP3    H146270   3.608   0.355  11.716  0.1255 -0.8159 -1.2047
 8285TIP3    H246271   3.620   0.208  11.748  1.1848 -0.4943 -0.0355
 8286TIP3   OH246272   0.263   4.659  11.881  0.5612  0.1212  0.4420
 8286TIP3    H146273   0.269   4.563  11.874  4.4550  0.1166  1.7483
 8286TIP3    H246274   0.244   4.687  11.791 -1.9214 -1.8297  0.2366
 8287TIP3   OH246275   6.562   2.879  14.702  0.5939 -0.0307 -0.1345
 8287TIP3    H146276   6.541   2.972  14.694  1.3960  0.0782 -1.1032
 8287TIP3    H246277   6.651   2.878  14.737  0.3497 -0.4538  0.4979
 8288TIP3   OH246278   5.861   3.645   3.570 -0.1632 -0.0650  0.2013
 8288TIP3    H146279   5.896   3.595   3.495  0.6064  1.1396 -0.2752
 8288TIP3    H246280   5.791   3.698   3.532 -0.6176 -0.3703  0.6021
 8289TIP3   OH246281   5.486   4.706  12.957 -0.3393 -0.2466  0.6558
 8289TIP3    H146282   5.564   4.691  12.903 -2.1522 -1.8004 -1.7870
 8289TIP3    H246283   5.472   4.801  12.953  0.7366 -0.0955  0.1007
 8290TIP3   OH246284   5.212   3.407   3.762 -0.5921  0.1143 -0.1088
 8290TIP3    H146285   5.277   3.453   3.710 -0.8875 -0.5317 -1.0778
 8290TIP3    H246286   5.212   3.318   3.727 -1.6698 -0.0087  0.1717
 8291TIP3   OH246287   5.655   0.890  11.902 -0.2623 -0.6613 -0.1081
 8291TIP3    H146288   5.727   0.945  11.872  0.6869 -1.2780  0.9957
 8291TIP3    H246289   5.677   0.802  11.870 -0.9382 -0.7217 -0.4399
 8292TIP3   OH246290   3.795   5.971   1.097  0.4780 -0.0121 -0.4234
 8292TIP3    H146291   3.866   5.908   1.108  0.5472 -0.1163 -1.3526
 8292TIP3    H246292   3.821   6.046   1.150  0.2442 -0.8749  0.9401
 8293TIP3   OH246293   4.268   0.368   5.084  0.5543 -0.3282 -0.3889
 8293TIP3    H146294   4.187   0.364   5.135 -0.2229 -0.6022 -1.5942
 8293TIP3    H246295   4.265   0.455   5.042  0.1536 -0.8791 -1.5529
 8294TIP3   OH246296   2.589   2.114   5.319  0.2516  0.1230 -0.5946
 8294TIP3    H146297   2.545   2.051   5.262  0.1485 -1.5717  1.2719
 8294TIP3    H246298   2.520   2.144   5.379  0.9875 -0.3989  0.5363
 8295TIP3   OH246299   0.714   6.218   4.278  0.0957 -0.5302  0.1140
 8295TIP3    H146300   0.802   6.186   4.296  0.2559  0.1759  0.5939
 8295TIP3    H246301   0.725   6.310   4.257 -0.4126 -0.6819 -0.8772
 8296TIP3   OH246302   6.588   0.035  13.410 -0.1886 -0.5254  0.5380
 8296TIP3    H146303   6.560   0.098  13.343  0.8994 -0.8603 -0.2555
 8296TIP3    H246304   6.540  -0.045  13.389  1.5429 -1.2364 -1.0948
 8297TIP3   OH246305   2.887   3.099  11.818 -0.1957 -0.8572  0.6671
 8297TIP3    H146306   2.949   3.169  11.835 -0.2067 -1.0482  1.5127
 8297TIP3    H246307   2.938   3.031  11.773 -0.3303 -0.0603 -0.7574
 8298TIP3   OH246308   5.115   0.388  10.197 -0.3103 -0.3015 -0.6810
 8298TIP3    H146309   5.194   0.431  10.164  0.2026 -0.0425  0.8480
 8298TIP3    H246310   5.147   0.310  10.243 -0.7831  0.5797  1.2384
 8299TIP3   OH246311   5.411   6.012  14.154  0.0131 -0.0237 -0.0924
 8299TIP3    H146312   5.326   6.052  14.169  0.4231  1.1619 -0.7733
 8299TIP3    H246313   5.392   5.920  14.137 -0.8102 -0.5560  3.1556
 8300TIP3   OH246314   3.251   0.764   0.936 -0.0676 -0.8839  0.1576
 8300TIP3    H146315   3.206   0.690   0.894 -2.0169  0.9833 -1.2104
 8300TIP3    H246316   3.189   0.796   1.001  0.2906  0.2432 -0.0476
 8301TIP3   OH246317   1.883   3.949  14.201 -0.4019  0.4179 -0.2909
 8301TIP3    H146318   1.834   4.007  14.260  0.2505  0.5090  0.1625
 8301TIP3    H246319   1.972   3.983  14.202  0.3156 -1.3727  1.0038
 8302TIP3   OH246320   5.956   3.382   2.260 -0.0746 -0.0764  0.5073
 8302TIP3    H146321   5.978   3.356   2.349 -1.3543 -0.0050  0.8763
 8302TIP3    H246322   5.936   3.300   2.215 -0.0541 -0.0628  0.4732
 8303TIP3   OH246323   1.189   4.839  15.801 -0.1136  0.3663  0.4627
 8303TIP3    H146324   1.174   4.903  15.731  1.0084 -0.6169 -0.7267
 8303TIP3    H246325   1.105   4.794  15.811  0.2792 -1.0848 -1.9614
 8304TIP3   OH246326   4.562   0.528  14.436  0.4325 -0.6357 -0.4353
 8304TIP3    H146327   4.520   0.555  14.354 -1.9214 -0.2277  0.8253
 8304TIP3    H246328   4.521   0.583  14.503  1.3966 -1.8285  1.1923
 8305TIP3   OH246329   2.298   1.819  11.208  0.2564  0.3812  0.0181
 8305TIP3    H146330   2.262   1.907  11.218  0.5216  0.5530 -0.4921
 8305TIP3    H246331   2.230   1.770  11.162 -0.2661  0.0595  1.1044
 8306TIP3   OH246332   1.797   4.695   0.627  0.0806 -0.5542  0.2068
 8306TIP3    H146333   1.806   4.600   0.629 -1.6594 -0.8731 -2.2394
 8306TIP3    H246334   1.754   4.717   0.710  0.4005 -1.8798  0.7507
 8307TIP3   OH246335   3.720   2.428   2.645  0.4761 -0.0736 -0.1015
 8307TIP3    H146336   3.706   2.339   2.614 -0.8968 -0.4830  1.5364
 8307TIP3    H246337   3.799   2.422   2.699  0.4998 -0.2529 -0.1556
 8308TIP3   OH246338   1.851   0.383   0.122  0.2023  0.3875  0.0261
 8308TIP3    H146339   1.908   0.343   0.188  0.3685 -1.0100 -0.9280
 8308TIP3    H246340   1.901   0.457   0.089  1.1787 -0.3862 -0.2715
 8309TIP3   OH246341   4.453   3.576   4.735 -0.0772  0.2302 -0.1916
 8309TIP3    H146342   4.512   3.520   4.785  2.3808  2.8765  0.1398
 8309TIP3    H246343   4.471   3.553   4.644 -0.6498 -0.9281 -0.0271
 8310TIP3   OH246344   2.700   2.007   2.178  0.6579 -0.2101 -0.1515
 8310TIP3    H146345   2.700   1.912   2.189  0.5929  0.0275  2.7345
 8310TIP3    H246346   2.792   2.029   2.165  1.3938 -0.4344  3.5110
 8311TIP3   OH246347   4.551   1.344   2.605 -0.4314 -0.4702 -0.0175
 8311TIP3    H146348   4.640   1.310   2.606  0.3002  1.3231  0.2424
 8311TIP3    H246349   4.506   1.296   2.674 -0.3244 -2.9334 -1.5600
 8312TIP3   OH246350   5.603   0.466   5.740 -0.0600  0.2557  0.3248
 8312TIP3    H146351   5.548   0.511   5.677  0.0844  0.0562  0.0566
 8312TIP3    H246352   5.656   0.535   5.780 -0.9042  0.5295  0.9951
 8313TIP3   OH246353   3.515   5.262  14.433 -0.4491 -0.7372 -0.2453
 8313TIP3    H146354   3.573   5.205  14.483 -0.8240 -0.0244  1.0518
 8313TIP3    H246355   3.490   5.331  14.495 -1.2082 -0.0102 -1.3243
 8314TIP3   OH246356   2.432   0.960   0.111 -0.4198 -0.3012 -0.1807
 8314TIP3    H146357   2.342   0.971   0.080 -0.1302 -1.6778 -1.6089
 8314TIP3    H246358   2.441   1.024   0.182 -3.1167 -1.3940  1.2994
 8315TIP3   OH246359   1.979   2.120  14.157 -0.7571  0.0319  0.4758
 8315TIP3    H146360   1.966   2.195  14.099 -2.6005 -0.2119  0.4888
 8315TIP3    H246361   1.943   2.046  14.109 -1.5217 -0.3232  1.5457
 8316TIP3   OH246362   3.330   2.971   0.264 -0.1571 -0.3845 -0.6575
 8316TIP3    H146363   3.347   2.880   0.239  0.1513 -0.4940 -0.0699
 8316TIP3    H246364   3.417   3.007   0.285 -0.1977  0.2389 -1.5033
 8317TIP3   OH246365   1.421   3.058   1.601 -0.8137 -0.3443 -0.1333
 8317TIP3    H146366   1.377   3.111   1.668  0.2691 -0.0380  0.3427
 8317TIP3    H246367   1.401   3.103   1.519 -0.4085  0.4732  0.2028
 8318TIP3   OH246368   2.533   5.670  11.202 -0.2394  0.1349 -0.1077
 8318TIP3    H146369   2.455   5.722  11.223 -0.4552  0.2369 -1.1397
 8318TIP3    H246370   2.573   5.653  11.287 -1.0303  0.6402  0.3821
 8319TIP3   OH246371   4.012   3.094   1.812 -0.6283  0.2742  0.4395
 8319TIP3    H146372   3.958   3.016   1.819 -0.2303 -0.4211 -2.8131
 8319TIP3    H246373   3.955   3.160   1.773 -0.2722  0.8750  0.9096
 8320TIP3   OH246374   0.565   0.331  14.373 -0.1642 -0.3345 -0.4123
 8320TIP3    H146375   0.557   0.405  14.433 -2.1648 -0.5961 -0.2932
 8320TIP3    H246376   0.550   0.254  14.426 -2.3024 -0.5517 -1.2533
 8321TIP3   OH246377   4.801   4.261   1.453 -0.0992  0.3082 -0.2351
 8321TIP3    H146378   4.782   4.306   1.371 -0.1203 -0.0585 -0.4343
 8321TIP3    H246379   4.719   4.216   1.475  0.0042  0.1463 -0.1784
 8322TIP3   OH246380   5.787   2.116   5.473 -0.3482 -0.1310 -0.1307
 8322TIP3    H146381   5.845   2.191   5.482 -1.0148  0.3183  0.5049
 8322TIP3    H246382   5.843   2.040   5.492 -0.1079  0.3416  1.0960
 8323TIP3   OH246383   4.736   0.543   1.186  0.5321  0.1500  0.1633
 8323TIP3    H146384   4.813   0.488   1.174  0.2705 -0.5396  1.4464
 8323TIP3    H246385   4.763   0.630   1.155  1.8583 -0.0417  0.7286
 8324TIP3   OH246386   1.716   2.272  14.734  0.4377 -0.1639  0.1370
 8324TIP3    H146387   1.718   2.332  14.659 -2.6481  0.6402  0.5556
 8324TIP3    H246388   1.771   2.315  14.800  3.2856 -0.9366 -1.5555
 8325TIP3   OH246389   5.045   4.881   9.941 -0.1893  0.1837  0.0133
 8325TIP3    H146390   5.120   4.930   9.974  0.4428 -0.5279 -0.3451
 8325TIP3    H246391   4.975   4.898  10.004 -0.0079  1.6033 -0.1416
 8326TIP3   OH246392   3.395   2.301  14.812  0.6153  0.0003  0.1217
 8326TIP3    H146393   3.352   2.379  14.847  0.9202  0.2447 -0.0368
 8326TIP3    H246394   3.473   2.290  14.867 -0.1528 -1.0177  1.0347
 8327TIP3   OH246395   2.339   2.738   2.904 -0.1234  0.4606  0.0414
 8327TIP3    H146396   2.323   2.653   2.947 -1.6065  0.0874 -1.1536
 8327TIP3    H246397   2.430   2.733   2.875 -0.0913 -0.5995  0.2570
 8328TIP3   OH246398   2.154   1.801  16.042  0.3160  0.1377 -0.6164
 8328TIP3    H146399   2.142   1.708  16.024  2.9576 -0.1903 -1.1646
 8328TIP3    H246400   2.165   1.806  16.137 -0.0437 -0.0762 -0.5626
 8329TIP3   OH246401   1.384   4.274   6.409 -0.3795  0.1422  0.3925
 8329TIP3    H146402   1.304   4.264   6.356 -0.6801  0.8254  0.7098
 8329TIP3    H246403   1.445   4.321   6.352 -0.4129  0.1503  0.3632
 8330TIP3   OH246404   3.783   3.012  13.347 -0.3966 -0.2720  0.4542
 8330TIP3    H146405   3.799   2.920  13.325  0.9824  0.5761 -2.5133
 8330TIP3    H246406   3.688   3.019  13.354 -0.7860 -1.3743 -2.4494
 8331TIP3   OH246407   3.043   1.109   0.951  0.2127 -0.0366  0.3776
 8331TIP3    H146408   3.083   1.027   0.981  0.0211 -0.9985 -1.8268
 8331TIP3    H246409   3.118   1.161   0.921  0.1652 -0.3209 -0.2593
 8332TIP3   OH246410   2.218   2.804  14.302  0.1419  0.1727 -0.8818
 8332TIP3    H146411   2.271   2.806  14.382 -2.3896  0.4268  0.8961
 8332TIP3    H246412   2.139   2.853  14.324 -0.5515  0.4700 -3.6568
 8333TIP3   OH246413   4.467   4.475  16.566  0.1806 -0.1468  0.6267
 8333TIP3    H146414   4.480   4.474  16.661  1.0372  0.3552  0.5243
 8333TIP3    H246415   4.534   4.415  16.532  0.4473  0.3387  0.2823
 8334TIP3   OH246416   1.342   1.981  16.374  0.3397 -0.2248  0.2810
 8334TIP3    H146417   1.312   1.898  16.410 -1.4922  0.4420  0.4123
 8334TIP3    H246418   1.305   1.983  16.286 -0.1204  0.6847  0.4847
 8335TIP3   OH246419   6.760   3.116   0.225  0.1113  0.6247  0.3462
 8335TIP3    H146420   6.854   3.132   0.227  0.3814 -0.6047 -0.9957
 8335TIP3    H246421   6.731   3.129   0.315  1.5891  0.8186  0.8121
 8336TIP3   OH246422   1.162   5.766  14.348 -0.4720 -0.3572  0.3843
 8336TIP3    H146423   1.099   5.696  14.363 -1.1232  0.2821  0.7404
 8336TIP3    H246424   1.134   5.836  14.408 -1.3398  1.1539 -1.6441
 8337TIP3   OH246425   1.761   4.792  11.493 -0.1070  0.2940 -0.1127
 8337TIP3    H146426   1.703   4.732  11.540 -0.9217  0.3793 -0.9824
 8337TIP3    H246427   1.748   4.876  11.537 -0.3343  0.2254 -0.0456
 8338TIP3   OH246428   5.472   3.184   2.673  0.9041 -0.2045  0.1068
 8338TIP3    H146429   5.496   3.165   2.763  2.5250  1.5840  0.1207
 8338TIP3    H246430   5.539   3.140   2.621  1.2077  0.5092 -0.1139
 8339TIP3   OH246431   5.475   0.456  14.061  0.6478 -0.3128  0.8257
 8339TIP3    H146432   5.534   0.393  14.103  1.3774 -0.2682 -0.1191
 8339TIP3    H246433   5.407   0.402  14.021  0.7616 -0.4438  0.8080
 8340TIP3   OH246434   3.826   4.002   4.237  0.0234  0.4588 -0.1363
 8340TIP3    H146435   3.876   3.970   4.162 -0.1302  1.2839 -0.6093
 8340TIP3    H246436   3.838   4.097   4.235 -1.6464  0.7002 -0.3556
 8341TIP3   OH246437   6.040   3.690  15.332  0.1117  0.2037 -0.1676
 8341TIP3    H146438   6.044   3.600  15.366 -1.3005 -0.0922 -0.6845
 8341TIP3    H246439   6.047   3.679  15.237  0.0742  0.6449 -0.2217
 8342TIP3   OH246440   3.953   2.746   2.298  0.6149  0.4502  0.3683
 8342TIP3    H146441   3.962   2.840   2.318 -1.4434  0.8312 -0.2560
 8342TIP3    H246442   3.863   2.737   2.267 -0.0055 -2.1293  2.5610
 8343TIP3   OH246443   4.584   0.760  13.958 -0.1918  0.2646  0.0062
 8343TIP3    H146444   4.643   0.785  13.887 -0.2769  0.5143  0.0208
 8343TIP3    H246445   4.627   0.792  14.038  0.8700 -1.7216  0.2927
 8344TIP3   OH246446   6.083   0.872   1.477  0.1249 -0.4375  0.0143
 8344TIP3    H146447   6.134   0.872   1.558 -1.3149  1.1253  0.9788
 8344TIP3    H246448   6.143   0.905   1.411  1.4676 -2.1811  0.2986
 8345TIP3   OH246449   4.777   5.625   3.095  0.3295 -0.1401 -0.1426
 8345TIP3    H146450   4.690   5.598   3.127  0.1951  0.7114  0.2292
 8345TIP3    H246451   4.783   5.587   3.008 -0.7768  0.5115 -0.5173
 8346TIP3   OH246452   1.283   4.973   0.612 -0.2868  0.1393  0.1262
 8346TIP3    H146453   1.351   5.032   0.644 -2.1942  2.0551  0.8537
 8346TIP3    H246454   1.281   4.902   0.676 -0.9654  1.6134  1.8129
 8347TIP3   OH246455   6.389   5.176   2.073  0.4524 -0.4790 -0.3098
 8347TIP3    H146456   6.368   5.155   2.163  0.6046 -0.2858 -0.2288
 8347TIP3    H246457   6.462   5.118   2.051 -1.0553 -2.1971 -1.0526
 8348TIP3   OH246458   5.608   5.338   0.001  0.3318 -0.6421  0.1607
 8348TIP3    H146459   5.545   5.274   0.035  0.0817 -0.1735  0.6153
 8348TIP3    H246460   5.578   5.421   0.038  0.7044 -0.2792 -0.3455
 8349TIP3   OH246461   3.662   5.782  11.236 -0.3659  0.4588 -0.0055
 8349TIP3    H146462   3.674   5.763  11.329 -0.3545 -0.1460 -0.1291
 8349TIP3    H246463   3.711   5.863  11.222 -0.1308  0.4018  0.4535
 8350TIP3   OH246464   0.363   2.531   1.457  0.1673  0.2641 -0.2608
 8350TIP3    H146465   0.454   2.544   1.483  0.8811 -2.8906 -0.7122
 8350TIP3    H246466   0.365   2.538   1.361 -0.2325  0.9278 -0.2251
 8351TIP3   OH246467   4.810   0.557  14.565  0.4313 -0.2349  0.3354
 8351TIP3    H146468   4.726   0.559  14.520  0.2709  1.7604  0.6744
 8351TIP3    H246469   4.874   0.570  14.495  0.3461  0.2015  0.3404
 8352TIP3   OH246470   3.814   5.105  13.152 -0.0618  0.5614 -0.1477
 8352TIP3    H146471   3.800   5.170  13.083  0.7796  0.1465 -0.7260
 8352TIP3    H246472   3.774   5.143  13.229 -0.9465  1.0760 -0.8448
 8353TIP3   OH246473   6.156   1.991  12.572  0.3238  0.3142 -0.3480
 8353TIP3    H146474   6.116   2.028  12.493 -0.3219  0.1384 -0.1138
 8353TIP3    H246475   6.090   2.005  12.640  0.0067 -1.3763 -0.2737
 8354TIP3   OH246476   4.197   5.098  10.915  0.6432  0.4283  0.3421
 8354TIP3    H146477   4.272   5.152  10.892  0.1586  0.9426 -0.0563
 8354TIP3    H246478   4.125   5.159  10.927  0.7079  0.1199  2.6688
 8355TIP3   OH246479   1.446   3.994   0.675 -0.5435  0.4252  0.2716
 8355TIP3    H146480   1.467   4.051   0.601 -1.7849  0.7770  0.1680
 8355TIP3    H246481   1.467   4.046   0.752 -1.7980  1.1145  0.1805
 8356TIP3   OH246482   1.569   2.546   2.642  0.5947  0.2154  0.8926
 8356TIP3    H146483   1.571   2.630   2.689  1.0496  0.8392 -0.2025
 8356TIP3    H246484   1.622   2.561   2.564 -1.1024 -0.4033 -0.4542
 8357TIP3   OH246485   5.019   5.658   4.386  0.2798 -0.4368 -0.2040
 8357TIP3    H146486   5.040   5.751   4.371  0.2526 -0.4313 -0.2072
 8357TIP3    H246487   5.002   5.623   4.298 -0.1516 -0.3384 -0.1603
 8358TIP3   OH246488   5.841   3.770   4.426 -0.9858  0.2457 -0.0242
 8358TIP3    H146489   5.766   3.737   4.475  0.4427  1.5781  3.3921
 8358TIP3    H246490   5.877   3.839   4.482  1.1214  1.6104 -2.8579
 8359TIP3   OH246491   1.459   5.837  12.680  0.7694  0.4034 -0.0297
 8359TIP3    H146492   1.443   5.794  12.596  2.2692 -1.0664  0.3713
 8359TIP3    H246493   1.453   5.766  12.744  0.6661  1.3116  0.9826
 8360TIP3   OH246494   4.548   4.691   6.057 -0.8978  0.2208 -0.1584
 8360TIP3    H146495   4.536   4.599   6.082 -0.9446  0.0325 -0.8708
 8360TIP3    H246496   4.635   4.694   6.018 -0.2400  0.7920  1.2863
 8361TIP3   OH246497   4.732   0.674   5.578  0.4306  0.1962 -0.4303
 8361TIP3    H146498   4.826   0.689   5.572  0.2604  1.6306  0.1747
 8361TIP3    H246499   4.694   0.737   5.517 -0.1401 -0.5016 -0.8110
 8362TIP3   OH246500   1.246   2.032   3.418  0.5531  0.3546 -0.1447
 8362TIP3    H146501   1.308   2.096   3.454 -1.0434  2.4507 -0.9633
 8362TIP3    H246502   1.289   1.998   3.340  0.5794  2.0525 -0.9073
 8363TIP3   OH246503   4.459   2.288  14.115 -0.3044  0.3722  0.0130
 8363TIP3    H146504   4.455   2.241  14.199 -0.8086  0.5130  0.0734
 8363TIP3    H246505   4.367   2.293  14.087  0.0264 -1.6446 -1.6528
 8364TIP3   OH246506   2.236   3.487  12.869 -0.7469  0.2701 -0.0292
 8364TIP3    H146507   2.168   3.462  12.933 -3.7654  1.8377 -2.3535
 8364TIP3    H246508   2.214   3.438  12.790  2.6288 -1.2719 -0.1895
 8365TIP3   OH246509   6.499   2.921   3.847 -0.0808  0.1463  0.0185
 8365TIP3    H146510   6.511   3.008   3.885 -1.1549  1.1037 -1.6836
 8365TIP3    H246511   6.553   2.923   3.767 -1.1973 -0.2185 -0.7694
 8366TIP3   OH246512   5.330   2.159   3.710  0.3313  0.2962 -0.0985
 8366TIP3    H146513   5.355   2.068   3.730 -1.0597 -0.2295 -0.6212
 8366TIP3    H246514   5.332   2.203   3.795  1.1207 -0.1840  0.1517
 8367TIP3   OH246515   0.382   6.786  14.174 -0.0403  0.0186  0.5241
 8367TIP3    H146516   0.444   6.744  14.114 -1.9976  1.2484 -2.6498
 8367TIP3    H246517   0.310   6.724  14.181 -0.8794  0.8405 -0.4294
 8368TIP3   OH246518   0.013   4.869   5.747 -0.0883  0.1251 -0.1561
 8368TIP3    H146519   0.096   4.910   5.772  0.4392 -0.6901 -0.5326
 8368TIP3    H246520   0.009   4.878   5.652  0.1729 -0.9357 -0.2742
 8369TIP3   OH246521   2.044   1.815   5.256  0.1864 -0.1335  0.4579
 8369TIP3    H146522   2.098   1.882   5.213  2.5460 -0.3373  2.8228
 8369TIP3    H246523   2.006   1.861   5.331  2.7867 -1.5568  2.8046
 8370TIP3   OH246524   2.556   5.887   3.972  0.2900  0.1533  0.7616
 8370TIP3    H146525   2.526   5.907   4.061 -0.5106 -0.5941  0.6729
 8370TIP3    H246526   2.616   5.814   3.983  2.3481  1.7840  0.9620
 8371TIP3   OH246527   0.067   6.308   5.529  0.3201 -0.6726  0.2222
 8371TIP3    H146528   0.020   6.377   5.575  0.2827 -0.3379 -0.3041
 8371TIP3    H246529   0.155   6.309   5.566  0.7180  0.5674 -0.6876
 8372TIP3   OH246530   2.406   0.623   0.777 -0.2204  0.8629 -0.4149
 8372TIP3    H146531   2.413   0.539   0.731  0.4664  0.8083 -0.2212
 8372TIP3    H246532   2.486   0.670   0.754 -0.0651  1.0018  0.3831
 8373TIP3   OH246533   1.301   2.350   0.728  0.1464  0.2203 -0.4299
 8373TIP3    H146534   1.386   2.309   0.747 -0.2526 -0.2135  0.4550
 8373TIP3    H246535   1.237   2.280   0.738 -0.3826  0.6742 -0.5522
 8374TIP3   OH246536   6.037   0.296  17.181 -0.1610 -1.3208 -0.1178
 8374TIP3    H146537   5.995   0.285  17.096 -0.1297 -0.5812 -0.2298
 8374TIP3    H246538   6.123   0.255  17.170  0.3026 -0.2131 -0.8123
 8375TIP3   OH246539   1.230   5.090  16.162 -0.4754  0.2869 -0.4073
 8375TIP3    H146540   1.284   5.029  16.113  1.5262  0.4692  1.4301
 8375TIP3    H246541   1.220   5.166  16.105 -0.0009 -0.3310 -1.3210
 8376TIP3   OH246542   1.761   5.196   6.247 -0.1437  0.0504 -0.3077
 8376TIP3    H146543   1.689   5.149   6.207  0.5755  0.3574 -2.0440
 8376TIP3    H246544   1.753   5.286   6.214  0.1324  0.4702  0.7201
 8377TIP3   OH246545   0.889   2.304  11.333 -0.2729 -0.1613 -0.2954
 8377TIP3    H146546   0.815   2.275  11.387 -1.3484  0.4423 -1.4077
 8377TIP3    H246547   0.852   2.316  11.246  1.1714  0.0567 -0.8999
 8378TIP3   OH246548   2.645   6.073   1.090  0.0028  0.1296  0.5758
 8378TIP3    H146549   2.657   5.994   1.038 -1.7285 -1.1983  2.0650
 8378TIP3    H246550   2.579   6.124   1.043  0.0360 -0.0239  0.3660
 8379TIP3   OH246551   6.476   1.881   5.268 -0.2840 -0.1853 -0.5570
 8379TIP3    H146552   6.491   1.789   5.244  0.1523 -0.2033 -0.2284
 8379TIP3    H246553   6.553   1.904   5.321 -0.3712  0.3830 -0.6801
 8380TIP3   OH246554   0.147   3.321   3.346  0.5071 -0.0514 -0.8689
 8380TIP3    H146555   0.138   3.276   3.262 -1.5433 -2.3045  0.4200
 8380TIP3    H246556   0.067   3.372   3.354  0.7308  0.2184 -0.3115
 8381TIP3   OH246557   0.666   2.899  15.894 -0.0512  0.1643  0.1463
 8381TIP3    H146558   0.695   2.963  15.959  0.5913 -0.3859  0.4157
 8381TIP3    H246559   0.683   2.814  15.934 -1.7262 -0.2005  0.1614
 8382TIP3   OH246560   1.790   1.349  11.561 -0.2553 -0.3917 -0.1950
 8382TIP3    H146561   1.818   1.435  11.530 -1.9400  0.3196  0.1548
 8382TIP3    H246562   1.773   1.299  11.481  0.0133 -0.1651 -0.3970
 8383TIP3   OH246563   5.116   0.785  14.402  0.2097  0.3192 -0.0209
 8383TIP3    H146564   5.048   0.724  14.374  0.1052 -0.2949  1.5050
 8383TIP3    H246565   5.164   0.739  14.470  1.3781  1.2185 -0.2017
 8384TIP3   OH246566   3.983   0.174  14.438 -0.2104 -0.1606 -0.5506
 8384TIP3    H146567   3.989   0.259  14.482 -1.6960  0.0123 -0.6341
 8384TIP3    H246568   4.069   0.135  14.450  0.1841  0.9298  0.3706
 8385TIP3   OH246569   6.742   1.979  16.133 -0.6178  0.1584 -0.0846
 8385TIP3    H146570   6.789   1.925  16.196 -0.4176 -0.2071 -0.5444
 8385TIP3    H246571   6.744   2.067  16.172 -0.3379 -0.0248  0.3289
 8386TIP3   OH246572   1.338   1.744  16.230 -0.0358 -0.0878  0.3736
 8386TIP3    H146573   1.383   1.705  16.305  0.9936  1.6771  0.7069
 8386TIP3    H246574   1.299   1.669  16.184  2.9152 -1.7045  0.2603
 8387TIP3   OH246575   4.334   4.320   4.944 -0.3276  0.1783 -0.1820
 8387TIP3    H146576   4.277   4.262   4.994  0.3351 -0.3600 -0.0256
 8387TIP3    H246577   4.301   4.408   4.962  0.1117  0.0300  1.5267
 8388TIP3   OH246578   1.313   1.662   5.188 -0.0883 -0.2725 -0.4331
 8388TIP3    H146579   1.355   1.695   5.108  0.0926  1.3121  0.2867
 8388TIP3    H246580   1.377   1.602   5.226  0.2266 -0.2776 -0.9647
 8389TIP3   OH246581   4.961   3.753  16.027 -0.2764 -0.1795 -0.1401
 8389TIP3    H146582   5.015   3.831  16.039 -0.7112 -0.1810  2.2347
 8389TIP3    H246583   4.894   3.780  15.963 -0.4842  1.4507  0.7134
 8390TIP3   OH246584   0.855   1.062  10.666 -0.2197 -0.2855  0.0693
 8390TIP3    H146585   0.803   1.122  10.718 -2.0175  0.1997 -2.1370
 8390TIP3    H246586   0.893   1.116  10.596  0.5757 -1.2105 -0.2468
 8391TIP3   OH246587   0.610   1.682   5.517  0.2282 -0.2216 -0.1494
 8391TIP3    H146588   0.516   1.696   5.521 -0.2861 -3.0383 -0.2482
 8391TIP3    H246589   0.641   1.694   5.607  0.0856  2.1725 -0.3693
 8392TIP3   OH246590   4.611   5.438   1.932 -0.3139  0.5058 -0.1987
 8392TIP3    H146591   4.700   5.436   1.898  0.6677 -0.3998  2.2018
 8392TIP3    H246592   4.594   5.349   1.961 -1.6766  0.8623  0.1571
 8393TIP3   OH246593   1.405   0.632  17.145  0.4731 -0.4432 -0.6614
 8393TIP3    H146594   1.418   0.609  17.237  0.5471 -0.0913 -0.5861
 8393TIP3    H246595   1.351   0.560  17.110 -0.5391  0.0148 -0.0577
 8394TIP3   OH246596   1.907   6.421   1.828 -0.0545  0.3279 -0.0911
 8394TIP3    H146597   1.980   6.411   1.766 -0.3385  0.4995 -0.4585
 8394TIP3    H246598   1.830   6.432   1.772 -0.6184 -1.4696  0.2743
 8395TIP3   OH246599   4.975   1.604  13.288 -0.0961 -0.5676  0.3000
 8395TIP3    H146600   4.911   1.575  13.353 -0.2988 -0.6282  0.0752
 8395TIP3    H246601   4.929   1.596  13.204  0.9175 -2.6948 -0.0937
 8396TIP3   OH246602   1.206   0.185  15.952 -0.4157  0.1946  0.0122
 8396TIP3    H146603   1.262   0.221  15.883 -0.7984 -0.7055 -0.7922
 8396TIP3    H246604   1.122   0.229  15.939  0.1250  1.7081  1.3567
 8397TIP3   OH246605   2.523   3.050  12.973  0.1446 -0.1978  0.0208
 8397TIP3    H146606   2.608   3.085  12.947  0.2703  0.8906  1.7306
 8397TIP3    H246607   2.465   3.072  12.901  1.2609 -0.8374 -1.1148
 8398TIP3   OH246608   1.763   3.477  11.514 -0.2758 -0.8608 -0.5131
 8398TIP3    H146609   1.706   3.495  11.588 -0.1232 -1.4628 -0.2384
 8398TIP3    H246610   1.706   3.479  11.438 -0.4342 -0.2391 -0.3801
 8399TIP3   OH246611   5.728   0.499   0.178  0.1925  0.2984 -0.0546
 8399TIP3    H146612   5.636   0.480   0.157  0.1314 -1.5575  1.6005
 8399TIP3    H246613   5.777   0.447   0.114  0.0195 -1.3784  1.0941
 8400TIP3   OH246614   3.703   3.563  15.527  0.4085 -0.2723  0.4982
 8400TIP3    H146615   3.626   3.580  15.473  1.5414  1.8828 -0.5854
 8400TIP3    H246616   3.755   3.501  15.476 -0.1889 -1.0558  0.8296
 8401TIP3   OH246617   6.616   2.119  11.791  0.6080  0.3197  0.6191
 8401TIP3    H146618   6.631   2.144  11.700 -0.3687 -0.8989  0.0871
 8401TIP3    H246619   6.701   2.090  11.823  0.9509  0.7272  0.0882
 8402TIP3   OH246620   0.389   2.774  16.087  0.2184 -0.3231 -0.2132
 8402TIP3    H146621   0.294   2.773  16.086  0.1945 -2.5383 -0.3526
 8402TIP3    H246622   0.412   2.806  16.175 -0.7665 -3.3663  1.2905
 8403TIP3   OH246623   2.449   6.798   4.499 -0.2107 -0.4433  1.0459
 8403TIP3    H146624   2.391   6.823   4.427  0.1875  1.0101  1.1964
 8403TIP3    H246625   2.485   6.714   4.473 -1.3462 -0.7355  0.3288
 8404TIP3   OH246626   5.611   4.535  14.260 -0.2032  0.5574 -0.0212
 8404TIP3    H146627   5.635   4.523  14.352  0.2414  0.2741 -0.1744
 8404TIP3    H246628   5.692   4.562  14.218  0.2037 -1.6974 -0.8012
 8405TIP3   OH246629   6.123   5.684  14.973  0.6610  0.4371 -0.0329
 8405TIP3    H146630   6.198   5.625  14.984  0.5266  0.2332 -0.1966
 8405TIP3    H246631   6.094   5.668  14.883 -0.3410 -0.3807  0.4236
 8406TIP3   OH246632   1.006   1.592   1.456 -0.4045 -0.1828 -0.0676
 8406TIP3    H146633   0.919   1.619   1.428 -0.6170  0.6134  1.2488
 8406TIP3    H246634   1.064   1.663   1.428 -0.4015 -0.0448  0.2856
 8407TIP3   OH246635   0.506   2.900   2.322 -0.2272 -0.1283 -0.8534
 8407TIP3    H146636   0.463   2.868   2.401  0.7309 -0.5079 -0.4643
 8407TIP3    H246637   0.591   2.932   2.352  0.2158 -0.4155 -1.7482
 8408TIP3   OH246638   1.714   6.071   6.176 -0.2299 -0.6630  0.2660
 8408TIP3    H146639   1.788   6.011   6.171  0.9367  0.8418 -3.3492
 8408TIP3    H246640   1.638   6.017   6.156  0.5410 -1.3804 -0.8634
 8409TIP3   OH246641   4.020   1.715  15.317 -0.2614 -0.3121  0.1451
 8409TIP3    H146642   3.951   1.663  15.358  0.7428 -1.7243  0.1116
 8409TIP3    H246643   3.976   1.759  15.244 -1.5324  0.3385  1.2468
 8410TIP3   OH246644   3.756   4.203  13.663 -0.0444 -0.1219 -0.3254
 8410TIP3    H146645   3.805   4.132  13.702 -0.2146 -0.3810 -0.5795
 8410TIP3    H246646   3.665   4.172  13.659  0.0876 -0.4187 -1.6266
 8411TIP3   OH246647   6.219   3.513   1.161  0.6526  0.3217  0.6885
 8411TIP3    H146648   6.204   3.441   1.099  2.3886 -1.6840  2.4553
 8411TIP3    H246649   6.270   3.577   1.111 -1.1245  0.5248 -0.9894
 8412TIP3   OH246650   4.992   3.519   3.890 -1.1037 -0.4855  0.8161
 8412TIP3    H146651   5.009   3.514   3.985  1.6082  0.0065  0.4546
 8412TIP3    H246652   5.060   3.465   3.851  0.3180  2.3474 -0.9842
 8413TIP3   OH246653   6.512   4.253  13.652  0.9696 -0.2998  0.2607
 8413TIP3    H146654   6.531   4.255  13.558 -1.9515  2.8125 -0.4238
 8413TIP3    H246655   6.589   4.294  13.693  1.6963 -0.4926 -0.8690
 8414TIP3   OH246656   1.480   5.899  11.004  0.7964  0.0373 -0.7767
 8414TIP3    H146657   1.436   5.954  10.940  0.4843  0.8875  0.1384
 8414TIP3    H246658   1.449   5.810  10.987 -1.7794  0.6721  0.2240
 8415TIP3   OH246659   0.413   5.232  12.162 -0.1017 -0.2621 -0.3704
 8415TIP3    H146660   0.504   5.205  12.170 -0.3919 -0.7681  1.9305
 8415TIP3    H246661   0.413   5.324  12.188 -0.5606 -0.9864  2.5428
 8416TIP3   OH246662   5.894   0.783  13.738  0.0071  1.0093  0.5270
 8416TIP3    H146663   5.884   0.875  13.761 -1.7896  0.8843  0.3935
 8416TIP3    H246664   5.861   0.735  13.815 -1.0216  0.5322 -0.1834
 8417TIP3   OH246665   2.705   4.511   4.674 -0.0394  0.5097  0.0492
 8417TIP3    H146666   2.718   4.597   4.634  1.8123 -0.1522 -0.8957
 8417TIP3    H246667   2.610   4.498   4.674 -0.2374  1.4284 -2.2985
 8418TIP3   OH246668   1.136   1.259  15.272 -0.2323  0.2019 -0.5435
 8418TIP3    H146669   1.080   1.276  15.196  0.6195 -1.0105 -1.4870
 8418TIP3    H246670   1.085   1.198  15.326  0.0569 -0.7275 -1.2892
 8419TIP3   OH246671   1.137   2.685  15.510  0.0130 -0.0354 -0.3098
 8419TIP3    H146672   1.079   2.616  15.543  1.2460 -1.2244 -0.5469
 8419TIP3    H246673   1.160   2.657  15.422  0.4623  0.7513 -0.4512
 8420TIP3   OH246674   1.997   5.229  13.986 -0.8704  0.2148 -0.1329
 8420TIP3    H146675   2.091   5.214  14.000 -0.3773  0.8479 -2.3923
 8420TIP3    H246676   1.966   5.151  13.940 -0.6967  1.3227 -2.2321
 8421TIP3   OH246677   3.981   5.193  13.461 -0.4218  0.2093  0.6807
 8421TIP3    H146678   3.951   5.129  13.525  1.4236  1.3413  2.8231
 8421TIP3    H246679   3.952   5.277  13.495 -0.6944  0.7337 -0.7906
 8422TIP3   OH246680   6.389   0.220  16.971  0.3843  0.6112 -0.1110
 8422TIP3    H146681   6.351   0.182  16.892  1.6746 -0.7376 -0.1211
 8422TIP3    H246682   6.327   0.198  17.040 -0.2215  0.8621 -0.5702
 8423TIP3   OH246683   2.172   6.711   3.288  0.1488  0.4085  0.1066
 8423TIP3    H146684   2.257   6.669   3.298 -0.3275 -0.3519  1.1728
 8423TIP3    H246685   2.165   6.769   3.365  0.1843  1.3618 -0.5850
 8424TIP3   OH246686   2.367   4.706  15.070  0.5760  0.2910  0.0241
 8424TIP3    H146687   2.375   4.801  15.063  0.9371  0.3054  0.6243
 8424TIP3    H246688   2.451   4.676  15.104  0.5279 -0.2642 -0.3270
 8425TIP3   OH246689   0.217   2.041  16.652  0.6610 -0.0338  0.2166
 8425TIP3    H146690   0.158   1.965  16.645 -0.1792  0.5795  0.4710
 8425TIP3    H246691   0.225   2.057  16.746 -0.4929  1.1735  0.1453
 8426TIP3   OH246692   1.717   0.562   3.955  0.1874  0.7376 -0.3568
 8426TIP3    H146693   1.721   0.499   3.884 -0.1484  1.7723 -1.3374
 8426TIP3    H246694   1.672   0.638   3.917  0.9139  1.7145  0.6550
 8427TIP3   OH246695   3.741   6.747  15.561  0.5962 -0.2441  0.7294
 8427TIP3    H146696   3.646   6.735  15.562  0.7809 -2.0347  0.3069
 8427TIP3    H246697   3.761   6.773  15.471  0.2900  2.9140  1.4402
 8428TIP3   OH246698   5.563   3.251  14.566  0.0302  0.4880 -0.0353
 8428TIP3    H146699   5.501   3.186  14.532 -0.0971  0.1749  0.7767
 8428TIP3    H246700   5.613   3.278  14.489 -0.4105 -0.0295 -0.5173
 8429TIP3   OH246701   5.871   2.498   2.810 -0.7900 -0.6926  0.3617
 8429TIP3    H146702   5.802   2.479   2.747  0.4181 -1.6880 -0.7323
 8429TIP3    H246703   5.930   2.422   2.805  2.0784  1.4053 -1.1531
 8430TIP3   OH246704   4.460   2.916  15.911 -0.2984  0.1101  0.1283
 8430TIP3    H146705   4.426   2.997  15.950 -2.8178 -0.7041 -0.2403
 8430TIP3    H246706   4.479   2.859  15.986  2.4562  1.2737  0.4614
 8431TIP3   OH246707   4.963   6.679   2.860 -0.2011  0.0758 -0.0272
 8431TIP3    H146708   4.903   6.615   2.897 -2.6806  1.8184 -0.7283
 8431TIP3    H246709   5.045   6.667   2.908 -0.7393 -3.0984  0.3015
 8432TIP3   OH246710   5.838   3.889  11.407 -0.4269 -0.6020 -0.3746
 8432TIP3    H146711   5.858   3.952  11.476 -0.6911 -0.4361 -0.4482
 8432TIP3    H246712   5.776   3.828  11.448 -0.2544 -0.7532 -0.3355
 8433TIP3   OH246713   1.762   3.378   5.874  0.0829 -0.3683 -0.1014
 8433TIP3    H146714   1.848   3.348   5.904  0.2022  1.0489  1.0456
 8433TIP3    H246715   1.756   3.468   5.903 -0.8509  0.3262 -2.2261
 8434TIP3   OH246716   0.853   0.943  14.127  0.1698 -0.5028  0.3617
 8434TIP3    H146717   0.853   1.035  14.100  1.4625 -0.2415  1.1379
 8434TIP3    H246718   0.873   0.946  14.220 -2.2128 -1.4753  0.9688
 8435TIP3   OH246719   4.140   2.012   5.848 -0.3830 -0.0276 -0.3884
 8435TIP3    H146720   4.063   2.032   5.794  0.2412  0.7942 -0.9943
 8435TIP3    H246721   4.194   1.955   5.793 -0.5871 -0.6830  0.0723
 8436TIP3   OH246722   0.891   3.204  14.433 -0.0068 -0.2263  0.1957
 8436TIP3    H146723   0.975   3.239  14.465 -0.1001 -0.2092  0.4271
 8436TIP3    H246724   0.915   3.144  14.362  0.1765  0.0539  0.0203
 8437TIP3   OH246725   6.029   5.214   1.116  0.0902  0.3254 -0.8841
 8437TIP3    H146726   5.960   5.237   1.178  1.2326  0.5300  0.3757
 8437TIP3    H246727   6.018   5.120   1.100  0.1366  0.1422  0.1156
 8438TIP3   OH246728   6.655   5.429   1.299 -0.2864 -0.1361 -0.6513
 8438TIP3    H146729   6.749   5.424   1.315 -0.3588  2.7441  1.3215
 8438TIP3    H246730   6.620   5.349   1.337  1.0871  0.2528  1.5954
 8439TIP3   OH246731   0.313   3.115   0.977 -0.5259 -0.6244  0.5611
 8439TIP3    H146732   0.237   3.137   0.923  0.1397 -1.5239 -0.8269
 8439TIP3    H246733   0.282   3.046   1.036 -1.0401 -0.2618  0.7222
 8440TIP3   OH246734   1.849   2.345   1.876 -0.5397  0.1392  0.2292
 8440TIP3    H146735   1.778   2.340   1.812  0.3453  0.9315 -0.8503
 8440TIP3    H246736   1.887   2.432   1.864  0.5973 -0.2553  0.8003
 8441TIP3   OH246737   1.935   6.259  13.416  0.4604  0.1569  0.2038
 8441TIP3    H146738   1.936   6.251  13.321 -0.2745  0.9339  0.1223
 8441TIP3    H246739   1.983   6.182  13.447 -0.7820 -1.0483 -0.7343
 8442TIP3   OH246740   4.613   0.542  14.889  0.3104 -0.5438  0.2077
 8442TIP3    H146741   4.686   0.542  14.827  0.8731  0.6369  0.8503
 8442TIP3    H246742   4.651   0.517  14.973  0.2938  1.3947  0.8466
 8443TIP3   OH246743   5.256   4.294  12.319 -0.0448  0.2691  0.2801
 8443TIP3    H146744   5.231   4.364  12.379  1.0470  1.6875 -0.8506
 8443TIP3    H246745   5.333   4.254  12.361 -0.1685  0.2897  0.5297
 8444TIP3   OH246746   0.478   0.899  14.410 -0.4118 -0.0132  0.5477
 8444TIP3    H146747   0.407   0.836  14.398  0.3210 -0.9058  0.7905
 8444TIP3    H246748   0.556   0.845  14.427  0.1511  0.9682  1.1845
 8445TIP3   OH246749   4.778   1.219   2.672 -0.7307 -0.1879 -0.5013
 8445TIP3    H146750   4.792   1.208   2.766 -0.7276  1.2676 -0.3085
 8445TIP3    H246751   4.854   1.268   2.642 -1.3615  0.5027 -1.0103
 8446TIP3   OH246752   2.987   3.871  11.545 -0.0685 -0.1017  0.3732
 8446TIP3    H146753   2.952   3.893  11.459 -1.0923  0.4326  0.8997
 8446TIP3    H246754   2.921   3.813  11.584  0.5158 -0.5632  0.6955
 8447TIP3   OH246755   0.321   4.366  15.534 -0.3348 -0.3838 -0.0309
 8447TIP3    H146756   0.297   4.374  15.442  0.5407  0.5258 -0.1996
 8447TIP3    H246757   0.415   4.347  15.533 -0.1801  0.2775  0.6722
 8448TIP3   OH246758   0.700   2.179  12.408  0.0409  0.1911 -0.0402
 8448TIP3    H146759   0.749   2.261  12.409  1.5279 -0.6581 -0.6018
 8448TIP3    H246760   0.744   2.123  12.472 -0.3721 -0.4874 -0.3389
 8449TIP3   OH246761   0.955   5.197   5.210 -0.0563 -0.5270  0.1538
 8449TIP3    H146762   0.893   5.176   5.279 -0.3482  0.7294  0.3017
 8449TIP3    H246763   0.924   5.149   5.133  0.4113 -2.1298  0.9233
 8450TIP3   OH246764   3.768   0.826  16.767 -0.1441  0.5990  0.3103
 8450TIP3    H146765   3.680   0.792  16.787 -0.6758  0.1912 -2.3337
 8450TIP3    H246766   3.827   0.774  16.821 -1.3370 -1.2713 -0.0829
 8451TIP3   OH246767   0.988   3.281   3.265  0.0299 -0.0873 -0.5583
 8451TIP3    H146768   1.024   3.237   3.342  0.7726  0.2285 -0.7155
 8451TIP3    H246769   0.974   3.371   3.293  1.5309  0.3596 -1.1464
 8452TIP3   OH246770   0.429   5.330   0.776  0.2248  0.0638  0.4191
 8452TIP3    H146771   0.475   5.398   0.727  0.5528  0.5114  1.3328
 8452TIP3    H246772   0.442   5.353   0.868  2.3122 -2.4946  0.8746
 8453TIP3   OH246773   1.550   0.928  16.789 -0.4395 -0.8439 -0.2817
 8453TIP3    H146774   1.637   0.902  16.760 -0.8461 -1.3483 -1.0967
 8453TIP3    H246775   1.550   0.910  16.883  0.3841 -0.6775 -0.2399
 8454TIP3   OH246776   3.895   0.891  13.625  0.3492 -0.0169 -0.2421
 8454TIP3    H146777   3.939   0.969  13.592 -1.4117  0.7786 -0.8764
 8454TIP3    H246778   3.811   0.890  13.577 -1.3598 -0.0865  2.5509
 8455TIP3   OH246779   2.905   6.298   3.189  0.4865  0.0029 -0.5194
 8455TIP3    H146780   2.817   6.280   3.158  0.6443 -2.5245  0.2571
 8455TIP3    H246781   2.899   6.383   3.233 -1.9280 -0.7724  0.7888
 8456TIP3   OH246782   2.135   2.040  14.917  0.0879  0.3320  0.2486
 8456TIP3    H146783   2.158   1.961  14.965  0.3566  0.1783 -0.1268
 8456TIP3    H246784   2.093   2.008  14.837 -1.4130  0.6069  0.9062
 8457TIP3   OH246785   3.167   6.352   4.137 -0.2558 -0.6846  0.1229
 8457TIP3    H146786   3.120   6.432   4.113 -0.9651 -1.6197 -1.7910
 8457TIP3    H246787   3.190   6.364   4.229 -0.7006  1.5345 -0.0069
 8458TIP3   OH246788   0.561   5.130   1.757 -0.4429 -0.3449 -1.1693
 8458TIP3    H146789   0.557   5.034   1.763 -3.4640 -0.2278  0.8266
 8458TIP3    H246790   0.652   5.149   1.737  1.5251 -3.5023  3.1706
 8459TIP3   OH246791   1.002   0.384  13.921  0.2347  0.4326  0.1777
 8459TIP3    H146792   1.071   0.318  13.911  0.8615  1.3064 -1.8544
 8459TIP3    H246793   0.988   0.390  14.015  1.1316 -1.5944  0.4901
 8460TIP3   OH246794   1.382   2.928  11.075  0.1616  0.3769 -0.1606
 8460TIP3    H146795   1.289   2.908  11.092 -0.2112  0.9940 -1.3932
 8460TIP3    H246796   1.402   2.880  10.995  0.1938  2.2246 -1.2972
 8461TIP3   OH246797   0.623   5.916  16.262  0.2487 -0.8138  0.5946
 8461TIP3    H146798   0.589   5.877  16.343  0.9916 -1.1962  0.7257
 8461TIP3    H246799   0.612   5.848  16.196  0.3674 -0.7874  0.5473
 8462TIP3   OH246800   4.936   6.403   5.219  0.1973 -0.0153 -0.1277
 8462TIP3    H146801   4.873   6.396   5.290  0.1217  1.4526 -0.0167
 8462TIP3    H246802   5.006   6.342   5.242  0.2706  0.5868  1.3245
 8463TIP3   OH246803   3.590   1.594  15.656 -0.2320 -0.8695 -0.0481
 8463TIP3    H146804   3.652   1.635  15.716  0.3790 -0.0305 -1.2332
 8463TIP3    H246805   3.568   1.510  15.698  0.8747 -0.7092  0.8886
 8464TIP3   OH246806   5.483   0.068   6.195 -0.4657  0.4110  0.7445
 8464TIP3    H146807   5.487   0.161   6.220 -1.2896 -0.1705  3.3023
 8464TIP3    H246808   5.550   0.026   6.248  0.0472 -0.4676 -0.5594
 8465TIP3   OH246809   0.477   6.673  15.965 -0.6070  0.0729 -0.2400
 8465TIP3    H146810   0.477   6.628  15.880 -0.6514  1.3054 -0.9335
 8465TIP3    H246811   0.449   6.607  16.028 -1.9689 -0.5128 -1.4073
 8466TIP3   OH246812   1.317   2.509   0.293  0.3622 -0.0346 -0.2991
 8466TIP3    H146813   1.274   2.559   0.363  0.2857  1.8796 -1.6327
 8466TIP3    H246814   1.261   2.433   0.279 -0.8281  0.7252  0.2009
 8467TIP3   OH246815   3.057   6.380  14.791 -0.0589 -0.2851 -0.0770
 8467TIP3    H146816   3.047   6.285  14.791 -1.8844 -0.1180  0.3698
 8467TIP3    H246817   2.984   6.413  14.738  0.5087  0.8900 -0.1765
 8468TIP3   OH246818   0.159   1.197   2.043 -0.1022  0.5003 -0.1384
 8468TIP3    H146819   0.078   1.216   2.090 -0.1089  0.4236 -0.1185
 8468TIP3    H246820   0.144   1.227   1.954 -0.2635  0.2013 -0.2125
 8469TIP3   OH246821   3.818   0.651   1.298 -0.2246 -0.1171  0.1027
 8469TIP3    H146822   3.821   0.664   1.204  1.1363  0.1782  0.1666
 8469TIP3    H246823   3.813   0.556   1.309  1.1528 -0.2622 -0.2774
 8470TIP3   OH246824   1.938   5.502  13.470  0.0492 -0.2158  0.4555
 8470TIP3    H146825   1.949   5.592  13.501 -0.1570 -0.0770  0.1441
 8470TIP3    H246826   2.005   5.492  13.403 -0.7726  0.1653 -0.4612
 8471TIP3   OH246827   0.205   5.302   2.209  0.1425 -0.0201  0.2062
 8471TIP3    H146828   0.187   5.233   2.272 -1.2505 -0.7787 -0.9722
 8471TIP3    H246829   0.301   5.305   2.205  0.3100  0.5714  2.8486
 8472TIP3   OH246830   3.087   6.386  16.304 -0.0306  0.6699  0.1190
 8472TIP3    H146831   3.043   6.425  16.379  0.1022 -0.9773  1.0906
 8472TIP3    H246832   3.130   6.308  16.339  0.4752  0.1502 -1.5735
 8473TIP3   OH246833   2.289   6.505   4.137  0.1623 -0.2037  0.0190
 8473TIP3    H146834   2.359   6.562   4.107 -0.8142  0.5115 -0.9457
 8473TIP3    H246835   2.300   6.424   4.087  0.4467 -0.1989  0.0725
 8474TIP3   OH246836   4.615   6.633   1.139  0.8387 -0.1098  0.1590
 8474TIP3    H146837   4.689   6.683   1.176  0.2718  1.4112 -0.6644
 8474TIP3    H246838   4.564   6.699   1.092 -1.0182 -1.1494  0.6425
 8475TIP3   OH246839   3.601   2.566   5.349  0.0424  0.0651  0.2121
 8475TIP3    H146840   3.567   2.554   5.437  0.3947 -1.5825  0.1556
 8475TIP3    H246841   3.660   2.641   5.355  1.6831 -1.2869  1.8675
 8476TIP3   OH246842   1.855   3.418   5.268  0.5653 -0.0486 -0.8810
 8476TIP3    H146843   1.794   3.460   5.329 -0.1606 -1.2809 -0.7156
 8476TIP3    H246844   1.913   3.489   5.239  1.4469  0.4858  1.8142
 8477TIP3   OH246845   0.676   2.447  12.153 -0.4777 -0.4063 -0.0713
 8477TIP3    H146846   0.685   2.429  12.246 -0.4882  0.0174  0.0139
 8477TIP3    H246847   0.766   2.445  12.119 -0.5359 -1.2773 -0.1915
 8478TIP3   OH246848   3.253   6.603   2.992  0.1203 -0.2437  0.0170
 8478TIP3    H146849   3.247   6.618   2.898  0.5273 -1.7961 -0.2883
 8478TIP3    H246850   3.263   6.690   3.030  0.4043  0.3715 -1.4051
 8479TIP3   OH246851   3.708   0.112  16.285  0.0757  0.0520  0.4043
 8479TIP3    H146852   3.677   0.136  16.373  0.9854 -1.4016  1.1733
 8479TIP3    H246853   3.628   0.098  16.234 -0.4701  0.8449  1.0129
 8480TIP3   OH246854   5.672   6.758   0.287 -0.0826  0.1520  0.4124
 8480TIP3    H146855   5.666   6.683   0.229 -0.5240  2.9582 -3.6365
 8480TIP3    H246856   5.764   6.786   0.281  0.2706 -0.4468  2.5120
 8481TIP3   OH246857   1.266   5.954   5.527 -0.0978 -0.3590 -0.6137
 8481TIP3    H146858   1.212   5.909   5.592 -1.0858  0.0600 -1.1389
 8481TIP3    H246859   1.263   6.046   5.552  0.2440 -0.3126 -0.7393
 8482TIP3   OH246860   3.920   2.645   5.490 -0.2234  0.2380  0.0140
 8482TIP3    H146861   4.013   2.664   5.504 -0.2109 -1.1360  2.3128
 8482TIP3    H246862   3.882   2.730   5.467  1.8818  0.4578 -3.3659
 8483TIP3   OH246863   0.192   3.958  12.223  0.1891 -0.2523  0.3600
 8483TIP3    H146864   0.155   3.874  12.194 -0.1555  0.8973 -2.8135
 8483TIP3    H246865   0.284   3.953  12.199  0.0354  0.4894 -0.4134
 8484TIP3   OH246866   2.912   0.226  13.934  0.2592 -0.0221 -0.4124
 8484TIP3    H146867   2.984   0.192  13.987 -0.1442  0.7331  0.6509
 8484TIP3    H246868   2.865   0.148  13.904  0.3753 -0.4632  0.5213
 8485TIP3   OH246869   3.289   5.615   1.295  0.2277 -0.2628 -0.2265
 8485TIP3    H146870   3.334   5.541   1.335  0.3476  0.4246  0.9412
 8485TIP3    H246871   3.213   5.577   1.252 -1.0582 -0.8458  2.3735
 8486TIP3   OH246872   3.159   3.406   1.067 -0.3079  0.3708 -0.3254
 8486TIP3    H146873   3.171   3.478   1.130 -0.3886  0.7170 -0.7004
 8486TIP3    H246874   3.080   3.429   1.019 -1.4888 -0.9735  0.8872
 8487TIP3   OH246875   0.152   2.238   4.796  0.2869 -0.4382 -0.7893
 8487TIP3    H146876   0.112   2.317   4.833  1.0444 -1.0893  1.5388
 8487TIP3    H246877   0.181   2.188   4.871  1.5037 -2.0949 -2.2864
 8488TIP3   OH246878   5.791   5.063  12.140 -0.3992 -0.3519 -0.6789
 8488TIP3    H146879   5.747   5.130  12.089  0.3194 -0.0799 -0.9467
 8488TIP3    H246880   5.841   5.012  12.076  0.6680  0.1114 -0.2407
 8489TIP3   OH246881   2.724   3.866   0.025  0.1734 -0.3307  0.0211
 8489TIP3    H146882   2.630   3.865   0.042 -0.0080 -1.1786 -0.9702
 8489TIP3    H246883   2.752   3.954   0.052 -0.7491 -0.3287  1.0651
 8490TIP3   OH246884   0.144   1.658  13.179 -0.5031  0.2558  0.0483
 8490TIP3    H146885   0.109   1.627  13.262  0.4707 -2.1568 -0.3463
 8490TIP3    H246886   0.135   1.583  13.120  1.2258  1.0069 -1.2727
 8491TIP3   OH246887   4.995   5.223  10.525 -0.3841  0.1053  0.3339
 8491TIP3    H146888   4.954   5.196  10.443  0.9423  1.2097 -0.7313
 8491TIP3    H246889   4.938   5.292  10.559 -0.0412  0.8510 -0.5650
 8492TIP3   OH246890   0.367   6.783  13.745  0.5328  0.8084  0.3754
 8492TIP3    H146891   0.447   6.810  13.789  0.5485 -1.7127  2.0739
 8492TIP3    H246892   0.395   6.755  13.658  1.1562  1.7997  0.2452
 8493TIP3   OH246893   5.150   6.755  14.664  0.5463 -0.3997 -0.1341
 8493TIP3    H146894   5.070   6.778  14.615 -0.1166 -0.6967  0.7832
 8493TIP3    H246895   5.215   6.738  14.596 -0.9363 -3.0098 -1.0907
 8494TIP3   OH246896   1.898   0.027   4.719 -0.3070  0.1503 -0.1127
 8494TIP3    H146897   1.912   0.024   4.814  0.6863  1.2154 -0.2029
 8494TIP3    H246898   1.978   0.067   4.684 -0.6770 -0.1847 -1.4047
 8495TIP3   OH246899   2.425   5.704  13.734 -0.1378 -0.7901 -0.0227
 8495TIP3    H146900   2.438   5.704  13.639  0.6185 -1.3220  0.0753
 8495TIP3    H246901   2.504   5.744  13.769 -1.2878  1.3341  0.2978
 8496TIP3   OH246902   0.239   3.255  12.804  0.5792  0.2483 -0.0504
 8496TIP3    H146903   0.277   3.330  12.759  0.2896  0.0199 -0.6911
 8496TIP3    H246904   0.145   3.273  12.806  0.4517 -0.3248 -0.6508
 8497TIP3   OH246905   3.794   0.954  14.102 -0.4415 -0.2398 -0.5588
 8497TIP3    H146906   3.787   1.049  14.090 -0.4310 -0.3376 -1.4365
 8497TIP3    H246907   3.729   0.917  14.042  0.2203 -0.8180 -0.9379
 8498TIP3   OH246908   5.657   0.553  12.442 -0.4290  0.9175 -0.0882
 8498TIP3    H146909   5.719   0.602  12.496  0.1615  1.0471 -0.8694
 8498TIP3    H246910   5.571   0.584  12.472 -0.1756  0.0310  1.6559
 8499TIP3   OH246911   5.441   4.278  13.866  0.1397  0.0210 -0.2430
 8499TIP3    H146912   5.388   4.328  13.804  0.0408 -0.2959 -0.4171
 8499TIP3    H246913   5.379   4.215  13.904  0.4004 -0.3813 -0.4808
 8500TIP3   OH246914   6.282   0.242  14.248 -0.1913  0.2793 -0.0806
 8500TIP3    H146915   6.320   0.222  14.334 -2.6151 -1.4566  0.7066
 8500TIP3    H246916   6.357   0.253  14.191  1.5095  0.0960  1.9751
 8501TIP3   OH246917   1.746   6.390   0.404  0.7528 -0.4386 -0.2590
 8501TIP3    H146918   1.723   6.347   0.322 -0.3499 -0.1574 -0.1077
 8501TIP3    H246919   1.662   6.414   0.443  1.1305 -2.2362  1.8553
 8502TIP3   OH246920   6.733   6.563   2.870  0.2392  0.2624 -0.1536
 8502TIP3    H146921   6.779   6.549   2.787  2.6954  1.5619  0.8956
 8502TIP3    H246922   6.700   6.476   2.894  0.1906 -0.2958 -2.0609
 8503TIP3   OH246923   0.720   2.423  15.724 -0.4580  0.4742 -0.7012
 8503TIP3    H146924   0.629   2.452  15.726 -1.3147 -2.0106  0.3678
 8503TIP3    H246925   0.717   2.337  15.683  1.3807  0.2350 -0.4202
 8504TIP3   OH246926   5.944   0.768  16.780 -0.6437 -0.2121  0.2326
 8504TIP3    H146927   5.917   0.832  16.714 -0.4526  0.2927  0.6331
 8504TIP3    H246928   5.871   0.766  16.842  0.2695  1.2970  1.4208
 8505TIP3   OH246929   6.747   5.228  16.601  0.3999 -0.5705  0.7061
 8505TIP3    H146930   6.787   5.214  16.515 -0.0830  2.5205 -0.1446
 8505TIP3    H246931   6.822   5.234  16.661  1.0411  0.9671 -0.1756
 8506TIP3   OH246932   3.317   2.500  14.285 -0.4837  0.7352 -0.4209
 8506TIP3    H146933   3.249   2.434  14.303 -2.1593  2.4377 -0.2026
 8506TIP3    H246934   3.342   2.533  14.371  0.9333 -0.1066 -0.4725
 8507TIP3   OH246935   3.514   2.872   0.972  0.1818  0.4149  0.4062
 8507TIP3    H146936   3.592   2.872   0.918  0.4854 -0.6467  0.8170
 8507TIP3    H246937   3.545   2.846   1.059 -0.1123  3.0871  1.4061
 8508TIP3   OH246938   1.019   3.237  17.150  0.3863 -0.5077 -0.0371
 8508TIP3    H146939   0.963   3.184  17.207  1.1213  0.5770  1.7739
 8508TIP3    H246940   0.964   3.310  17.124  0.6272  0.0328  0.9280
 8509TIP3   OH246941   5.477   1.886   1.850 -0.2910 -0.0507 -0.6860
 8509TIP3    H146942   5.451   1.876   1.759 -0.6764  0.9483 -0.7002
 8509TIP3    H246943   5.415   1.949   1.886 -0.3975 -0.7350  0.3820
 8510TIP3   OH246944   6.505   5.895   1.341  0.8047 -0.7237 -0.6157
 8510TIP3    H146945   6.567   5.955   1.384 -0.8109  0.1967  0.5376
 8510TIP3    H246946   6.504   5.818   1.397  0.8949 -0.7291 -0.6214
 8511TIP3   OH246947   4.382   4.176  14.368  0.7381  0.1155 -0.1265
 8511TIP3    H146948   4.438   4.121  14.314  1.4280 -0.1380  0.8171
 8511TIP3    H246949   4.351   4.119  14.437  0.7462  0.6882  0.3628
 8512TIP3   OH246950   5.741   1.349   0.800  0.4135  1.0057 -0.2118
 8512TIP3    H146951   5.789   1.424   0.835  1.5261  0.4674 -0.5306
 8512TIP3    H246952   5.803   1.276   0.805 -0.0565  0.4831 -1.4770
 8513TIP3   OH246953   2.790   2.739   0.652 -0.7397 -0.0048  0.0998
 8513TIP3    H146954   2.858   2.792   0.694 -1.6957  1.1586  0.2362
 8513TIP3    H246955   2.830   2.710   0.570  0.6350 -1.0972  1.1114
 8514TIP3   OH246956   4.683   5.616   5.047  0.0821 -0.4402 -0.2357
 8514TIP3    H146957   4.706   5.611   4.955  1.5932 -1.2289  0.1460
 8514TIP3    H246958   4.763   5.646   5.090 -0.6289  0.0244  0.8086
 8515TIP3   OH246959   4.722   3.395  13.876  0.3821 -0.4378 -0.2958
 8515TIP3    H146960   4.773   3.332  13.827  0.5406 -0.9158  0.4621
 8515TIP3    H246961   4.785   3.464  13.899  0.1614  0.1298 -1.3083
 8516TIP3   OH246962   2.305   3.668  12.585 -0.2710 -0.1125 -0.5309
 8516TIP3    H146963   2.336   3.727  12.654  0.1075  0.0123 -0.8037
 8516TIP3    H246964   2.347   3.700  12.505 -1.9172  0.7306 -1.1164
 8517TIP3   OH246965   0.919   2.507   3.365  0.4682 -0.0137 -0.7711
 8517TIP3    H146966   0.872   2.588   3.387  0.5248 -0.1191 -0.2400
 8517TIP3    H246967   0.908   2.452   3.443 -1.5770 -1.4486 -1.9773
 8518TIP3   OH246968   1.033   1.592   4.749  0.2699 -0.0886 -0.0178
 8518TIP3    H146969   1.043   1.582   4.655 -2.1222 -0.8355 -0.2585
 8518TIP3    H246970   1.013   1.685   4.762  3.0282  0.5765  0.0945
 8519TIP3   OH246971   1.071   0.992  11.822  0.0164  0.3038  0.5164
 8519TIP3    H146972   1.082   1.054  11.894 -0.7682 -1.3882  2.1924
 8519TIP3    H246973   0.985   0.952  11.838  0.8572 -1.8460  0.0779
 8520TIP3   OH246974   1.880   1.055   5.500  0.2691 -0.3852 -0.0063
 8520TIP3    H146975   1.913   1.144   5.484 -0.4774  0.0939  0.9745
 8520TIP3    H246976   1.861   1.054   5.594 -1.6147 -0.9338 -0.3658
 8521TIP3   OH246977   0.056   0.303   3.414 -0.1367 -0.0498  0.0854
 8521TIP3    H146978   0.078   0.383   3.367 -1.2261  0.6297  0.7007
 8521TIP3    H246979  -0.039   0.297   3.408 -0.0350 -1.6130 -0.4334
 8522TIP3   OH246980   2.586   1.840  14.459 -1.3431  0.3162  0.5069
 8522TIP3    H146981   2.631   1.898  14.520 -0.8650  0.7796 -0.2647
 8522TIP3    H246982   2.645   1.765  14.449 -0.7080  0.9322 -0.5179
 8523TIP3   OH246983   3.534   6.028   1.106 -0.0600  0.5398  0.4956
 8523TIP3    H146984   3.515   5.958   1.168  1.8982  0.2374  0.8259
 8523TIP3    H246985   3.629   6.027   1.097 -0.1727  1.5303 -1.4151
 8524TIP3   OH246986   6.362   1.586   3.871  0.1244  0.2887 -0.4303
 8524TIP3    H146987   6.334   1.562   3.959  0.1391  0.1653 -0.4590
 8524TIP3    H246988   6.342   1.509   3.818 -1.4928  0.9746 -0.8854
 8525TIP3   OH246989   2.883   2.965  15.600 -0.4689  0.2447  0.2484
 8525TIP3    H146990   2.842   2.996  15.520  0.8817 -0.7925 -0.9030
 8525TIP3    H246991   2.863   2.872  15.603  1.7827 -0.3457 -0.4468
 8526TIP3   OH246992   2.444   5.543   6.235 -0.2683 -0.0013  0.1481
 8526TIP3    H146993   2.513   5.588   6.186 -1.3649 -0.8149 -2.3191
 8526TIP3    H246994   2.365   5.559   6.184 -1.4526 -1.1346  1.5681
 8527TIP3   OH246995   6.565   4.774  11.346 -0.6124 -0.2860  0.6192
 8527TIP3    H146996   6.622   4.786  11.270 -1.8697  0.5825 -0.2262
 8527TIP3    H246997   6.593   4.691  11.385 -0.4326 -1.1209 -1.2166
 8528TIP3   OH246998   5.996   5.024   3.321 -0.4499  0.7287 -0.1412
 8528TIP3    H146999   5.983   4.952   3.383 -0.4630 -0.6444 -1.6571
 8528TIP3    H247000   5.910   5.065   3.312 -0.5759  0.5567  0.3072
 8529TIP3   OH247001   4.954   4.058  15.334  0.3460 -0.1811 -0.4564
 8529TIP3    H147002   5.022   4.050  15.267  0.7463  0.4131 -0.1283
 8529TIP3    H247003   5.000   4.047  15.417  0.0764  0.4546 -0.2193
 8530TIP3   OH247004   2.286   4.129   0.356  0.3454  0.3411  0.3177
 8530TIP3    H147005   2.209   4.149   0.409  1.0399  0.4974  1.3075
 8530TIP3    H247006   2.258   4.059   0.297 -0.2935 -0.2923  1.3401
 8531TIP3   OH247007   5.875   6.303  10.811 -0.2112  0.4212  0.7669
 8531TIP3    H147008   5.890   6.218  10.769 -0.3457  0.7069  0.1311
 8531TIP3    H247009   5.785   6.326  10.788  0.1148  1.1512  0.1669
 8532TIP3   OH247010   1.507   2.549  12.411  0.3920  0.0638  0.5154
 8532TIP3    H147011   1.543   2.546  12.499  1.2686 -0.4166  0.1546
 8532TIP3    H247012   1.547   2.474  12.366  1.1089  1.1365 -0.7070
 8533TIP3   OH247013   2.524   2.890  15.278 -0.1456  0.4127  0.1616
 8533TIP3    H147014   2.581   2.814  15.267 -3.1162 -1.8203 -0.9347
 8533TIP3    H247015   2.457   2.861  15.340 -1.4508  2.1015 -0.3794
 8534TIP3   OH247016   5.336   3.114   5.416  0.1015  0.4565 -0.2309
 8534TIP3    H147017   5.412   3.057   5.404  0.5503  0.8335  0.6818
 8534TIP3    H247018   5.270   3.057   5.456 -0.0055  0.1921 -0.7807
 8535TIP3   OH247019   1.180   2.959   1.349  0.1721 -0.4990  0.0447
 8535TIP3    H147020   1.267   2.951   1.310 -0.7638 -1.3225 -1.9970
 8535TIP3    H247021   1.138   3.027   1.297 -0.6220 -0.5517  0.6127
 8536TIP3   OH247022   3.843   2.295  12.162 -0.4134 -0.4036 -0.8317
 8536TIP3    H147023   3.789   2.349  12.105  0.9283  1.2704 -0.6008
 8536TIP3    H247024   3.932   2.306  12.129  0.0817 -1.2761  0.1429
 8537TIP3   OH247025   5.402   0.560   5.550 -0.4252  0.2161 -0.2752
 8537TIP3    H147026   5.333   0.499   5.524  0.4000 -0.3901 -1.0724
 8537TIP3    H247027   5.406   0.624   5.479  1.7084 -1.3369 -1.6568
 8538TIP3   OH247028   6.776   0.651  10.389 -0.0276 -0.5834  0.2884
 8538TIP3    H147029   6.860   0.687  10.359  0.1401 -1.4744 -0.3589
 8538TIP3    H247030   6.788   0.635  10.482 -0.0780  0.9239  0.5821
 8539TIP3   OH247031   0.206   5.761  15.267 -0.1284 -0.4608 -0.0373
 8539TIP3    H147032   0.221   5.742  15.174  1.2263  0.3021 -0.0121
 8539TIP3    H247033   0.294   5.758  15.306 -0.7461 -1.2954  1.3316
 8540TIP3   OH247034   5.727   1.112   3.869  0.0150 -0.1555 -0.6215
 8540TIP3    H147035   5.679   1.035   3.901  1.4937 -0.3689  1.3254
 8540TIP3    H247036   5.659   1.172   3.838 -1.2461 -1.8044 -1.2026
 8541TIP3   OH247037   5.043   2.348  11.834  0.7030  0.0361 -0.1718
 8541TIP3    H147038   4.976   2.327  11.898  1.1700 -0.1233  0.2731
 8541TIP3    H247039   5.106   2.277  11.840  0.4549 -0.2963 -1.2438
 8542TIP3   OH247040   0.140   6.409  14.980 -0.4549  0.1671 -0.8499
 8542TIP3    H147041   0.104   6.327  15.013  0.0973  0.3285  0.2096
 8542TIP3    H247042   0.194   6.442  15.052 -0.4340  1.3139 -1.3690
 8543TIP3   OH247043   4.903   1.715   0.433 -0.2397 -0.1595  0.4890
 8543TIP3    H147044   4.891   1.652   0.504  1.4169 -0.9259  0.1321
 8543TIP3    H247045   4.998   1.722   0.422 -0.4129  1.3901 -0.3918
 8544TIP3   OH247046   3.786   3.251   0.846 -0.1091 -0.0543  0.1540
 8544TIP3    H147047   3.817   3.337   0.819  0.5153 -0.7723 -1.5365
 8544TIP3    H247048   3.729   3.222   0.774 -0.2210 -1.0942  0.6379
 8545TIP3   OH247049   1.280   3.892  12.305  0.6733  0.2605 -0.5960
 8545TIP3    H147050   1.220   3.878  12.379 -0.1264  0.9348 -1.0981
 8545TIP3    H247051   1.353   3.832  12.322  1.2949  1.5229  1.5631
 8546TIP3   OH247052   0.743   4.871  13.130  0.0186  0.4936 -0.2512
 8546TIP3    H147053   0.832   4.877  13.096 -0.0417 -0.6235 -0.6612
 8546TIP3    H247054   0.753   4.852  13.223  0.1859  3.2428  0.3891
 8547TIP3   OH247055   4.665   5.336   5.540 -0.3600 -0.2332  0.0743
 8547TIP3    H147056   4.579   5.342   5.583 -0.0746  1.6853  0.4412
 8547TIP3    H247057   4.715   5.409   5.576  0.7526 -0.1069 -1.6277
 8548TIP3   OH247058   6.582   4.117  11.310  0.1075 -0.2349 -0.2962
 8548TIP3    H147059   6.531   4.051  11.263 -1.9534  2.1923 -1.7413
 8548TIP3    H247060   6.662   4.127  11.259  0.5600 -1.7045  0.0725
 8549TIP3   OH247061   6.713   2.488  11.846  0.3992  0.4586  0.0663
 8549TIP3    H147062   6.725   2.393  11.855  0.4641  0.1381 -2.5439
 8549TIP3    H247063   6.620   2.498  11.824 -0.1924  1.2894  2.6164
 8550TIP3   OH247064   3.137   3.743   4.195  0.1019  0.2541 -0.7499
 8550TIP3    H147065   3.095   3.661   4.220  2.3231 -0.3961  1.1795
 8550TIP3    H247066   3.077   3.811   4.228 -0.0042 -0.6403  1.0419
 8551TIP3   OH247067   1.710   4.375   5.454  0.4043  0.4308 -0.1200
 8551TIP3    H147068   1.759   4.457   5.446  0.0329  0.7700  0.8972
 8551TIP3    H247069   1.700   4.363   5.549 -1.7128  0.5072 -0.3042
 8552TIP3   OH247070   3.905   1.294   2.652 -0.0765  0.2431 -0.2540
 8552TIP3    H147071   3.888   1.380   2.614  2.1885  0.5089 -0.8101
 8552TIP3    H247072   3.993   1.301   2.688 -0.8263 -1.0805  2.0481
 8553TIP3   OH247073   4.101   2.838  11.486 -0.3474 -0.0205 -0.0346
 8553TIP3    H147074   4.054   2.888  11.553 -1.2380 -1.1141  0.1721
 8553TIP3    H247075   4.083   2.747  11.507  0.1102 -0.4039 -1.2365
 8554TIP3   OH247076   0.398   3.241   6.121  0.4276 -0.4270 -0.1550
 8554TIP3    H147077   0.433   3.154   6.140 -1.8392 -0.9161  2.4773
 8554TIP3    H247078   0.327   3.226   6.059  1.0557 -0.2335 -0.9239
 8555TIP3   OH247079   5.623   1.499   2.723  0.2677  0.0554  0.4195
 8555TIP3    H147080   5.649   1.444   2.649  1.6835 -0.1466  1.0440
 8555TIP3    H247081   5.587   1.437   2.787 -0.5394  0.1784  0.0970
 8556TIP3   OH247082   0.760   4.766  14.011  0.3331  0.3704 -0.5921
 8556TIP3    H147083   0.806   4.813  14.081  3.2887 -1.6701 -0.9838
 8556TIP3    H247084   0.714   4.696  14.056  2.0070 -0.7717 -0.5736
 8557TIP3   OH247085   5.611   3.018  14.290  0.3403  0.0928 -0.0611
 8557TIP3    H147086   5.640   2.994  14.202 -2.5156  1.2237 -1.4510
 8557TIP3    H247087   5.521   3.048  14.278  0.3877  1.8883  3.0121
 8558TIP3   OH247088   2.355   3.388  13.521  0.1808 -0.1006 -0.7219
 8558TIP3    H147089   2.395   3.469  13.553 -1.6211  1.3569 -1.8758
 8558TIP3    H247090   2.406   3.365  13.444  2.7780 -2.0471  1.3962
 8559TIP3   OH247091   3.676   0.422   1.896 -0.2849 -0.6699 -0.3394
 8559TIP3    H147092   3.671   0.422   1.991  1.7162  1.0737 -0.1486
 8559TIP3    H247093   3.588   0.400   1.867 -0.8545 -1.6274  1.8817
 8560TIP3   OH247094   0.971   4.040  12.898  0.4925  0.2730 -0.0124
 8560TIP3    H147095   0.883   4.040  12.936 -0.0500  0.0163 -1.2043
 8560TIP3    H247096   1.029   4.058  12.972 -0.4488 -0.8315  1.0536
 8561TIP3   OH247097   3.848   6.246  12.845 -0.1599  0.2623  0.0238
 8561TIP3    H147098   3.942   6.247  12.863 -0.5481  1.3928  2.2862
 8561TIP3    H247099   3.837   6.299  12.767  0.9977  0.8683  0.2654
 8562TIP3   OH247100   5.402   3.625  15.164  0.2442  0.6364 -0.3028
 8562TIP3    H147101   5.459   3.549  15.150  0.2016 -0.2372  3.2119
 8562TIP3    H247102   5.447   3.675  15.233 -1.0279  2.3842 -0.6906
 8563TIP3   OH247103   5.775   1.836  10.392 -0.0455 -0.1878 -0.0618
 8563TIP3    H147104   5.827   1.782  10.333  0.6394 -0.0680  0.4284
 8563TIP3    H247105   5.696   1.783  10.409 -0.7621  0.2279 -1.9163
 8564TIP3   OH247106   6.661   3.721  15.215 -0.1398  0.1809  0.0532
 8564TIP3    H147107   6.663   3.628  15.239  0.0214 -0.0276 -0.7171
 8564TIP3    H247108   6.584   3.729  15.158  0.9580  0.0843 -1.4953
 8565TIP3   OH247109   0.293   1.262   3.715  0.2506  0.3213  0.6516
 8565TIP3    H147110   0.296   1.264   3.811  0.9306 -2.7677  0.8046
 8565TIP3    H247111   0.203   1.282   3.693 -0.1814  0.0052  2.0338
 8566TIP3   OH247112   2.986   5.585   4.529 -0.1878  0.0710  0.4722
 8566TIP3    H147113   2.925   5.589   4.455  0.7875 -2.4426 -0.5728
 8566TIP3    H247114   3.050   5.653   4.511 -0.4005  0.0046 -0.5848
 8567TIP3   OH247115   0.050   0.374  13.947  0.3171  0.1858 -0.1662
 8567TIP3    H147116   0.095   0.422  14.016 -0.2193  2.0437 -1.0510
 8567TIP3    H247117   0.094   0.288  13.945  0.5195  0.1503  2.2631
 8568TIP3   OH247118   1.940   1.423  14.974  0.2983  0.0856  0.0526
 8568TIP3    H147119   1.923   1.336  14.939  1.8747  0.2094 -1.1248
 8568TIP3    H247120   1.912   1.418  15.065 -0.1552 -1.4784 -0.1464
 8569TIP3   OH247121   3.812   1.248   3.902  0.0514  1.0114 -0.0248
 8569TIP3    H147122   3.851   1.240   3.815  0.0260 -2.0800  0.1286
 8569TIP3    H247123   3.868   1.311   3.947  0.6390  1.9421 -1.9514
 8570TIP3   OH247124   0.564   6.789   4.883 -0.0057 -0.5539  0.0224
 8570TIP3    H147125   0.469   6.794   4.894 -0.0056 -2.0661  1.0186
 8570TIP3    H247126   0.598   6.801   4.972  0.6273 -1.6992 -0.0502
 8571TIP3   OH247127   0.620   1.005   5.399 -0.7394  0.5133 -0.0168
 8571TIP3    H147128   0.682   1.077   5.385  1.4270 -0.9853  1.2213
 8571TIP3    H247129   0.583   1.023   5.486  0.8495 -0.4968  0.9229
 8572TIP3   OH247130   4.423   1.592  13.103  0.0452 -0.5090  0.1569
 8572TIP3    H147131   4.331   1.614  13.091  0.1972  1.4663  2.0336
 8572TIP3    H247132   4.440   1.610  13.195  1.7333 -3.2226  0.4852
 8573TIP3   OH247133   0.645   6.404   3.472  0.3712  0.1361 -0.4207
 8573TIP3    H147134   0.588   6.449   3.410 -1.1167 -0.9702  0.1032
 8573TIP3    H247135   0.652   6.465   3.546 -3.3197 -1.1080  1.2125
 8574TIP3   OH247136   3.347   6.783  16.932 -0.1372  0.5708 -0.0214
 8574TIP3    H147137   3.434   6.772  16.893 -0.1711 -0.8581  0.2359
 8574TIP3    H247138   3.361   6.836  17.010  0.5159  0.2839  0.0586
 8575TIP3   OH247139   4.377   0.512   4.849 -0.1651 -0.3307 -0.2071
 8575TIP3    H147140   4.307   0.451   4.827  0.3851 -0.7379 -0.8974
 8575TIP3    H247141   4.410   0.542   4.764  0.8833 -0.6163  0.0821
 8576TIP3   OH247142   6.630   6.244   0.943 -0.3436 -0.2700  0.3182
 8576TIP3    H147143   6.704   6.261   0.884 -1.1616  0.2877 -0.5644
 8576TIP3    H247144   6.622   6.323   0.995 -0.7489 -0.0556 -0.0647
 8577TIP3   OH247145   1.038   2.420   5.824  0.9043 -0.3399  0.2984
 8577TIP3    H147146   1.079   2.394   5.906  2.0524  1.7006  0.4535
 8577TIP3    H247147   0.945   2.430   5.846  1.3263  1.0746  1.6392
 8578TIP3   OH247148   4.280   4.740   4.674 -0.4954 -0.3410 -0.0207
 8578TIP3    H147149   4.294   4.664   4.617  1.9350 -0.3684  0.5220
 8578TIP3    H247150   4.233   4.705   4.750 -1.0184 -0.9177 -0.6007
 8579TIP3   OH247151   5.059   5.626   3.897  0.4889 -0.3210  0.1835
 8579TIP3    H147152   5.102   5.542   3.879  0.2775 -0.2198 -0.8531
 8579TIP3    H247153   5.042   5.624   3.991  0.8482 -1.2722  0.2429
 8580TIP3   OH247154   4.239   2.570  15.935  0.0011  0.5306  0.0631
 8580TIP3    H147155   4.157   2.617  15.918  0.3991  1.1129 -0.2591
 8580TIP3    H247156   4.241   2.560  16.030 -1.6006 -1.5969 -0.0541
 8581TIP3   OH247157   3.548   5.923  11.654  0.4198 -0.0529  0.6968
 8581TIP3    H147158   3.468   5.896  11.700  0.8062 -0.2388  1.2600
 8581TIP3    H247159   3.519   5.937  11.564 -0.2038 -0.3584  0.8419
 8582TIP3   OH247160   4.066   4.148   2.806 -0.3078  0.2961 -0.8691
 8582TIP3    H147161   4.015   4.218   2.847  0.0595 -0.5538  1.1744
 8582TIP3    H247162   4.081   4.085   2.877  3.1245  0.2409 -1.4719
 8583TIP3   OH247163   5.843   2.521  11.913 -0.1658 -0.2010  0.2249
 8583TIP3    H147164   5.914   2.559  11.861 -0.4398 -0.7643 -0.5765
 8583TIP3    H247165   5.841   2.574  11.992  0.2459  0.6933 -0.3455
 8584TIP3   OH247166   1.995   3.909  16.216 -0.1636  0.6758  0.4937
 8584TIP3    H147167   2.084   3.908  16.180 -0.2015  0.1864  0.4091
 8584TIP3    H247168   2.008   3.891  16.310 -0.0723  1.8589  0.7225
 8585TIP3   OH247169   0.530   0.773  11.881  0.4332 -0.0521 -0.1022
 8585TIP3    H147170   0.537   0.720  11.802 -0.0980  0.0882 -0.2432
 8585TIP3    H247171   0.612   0.823  11.883  0.4765 -0.1028 -0.5295
 8586TIP3   OH247172   3.329   4.457  12.623  0.4012  0.3827 -0.0504
 8586TIP3    H147173   3.366   4.394  12.562 -2.6150  1.5697 -3.4795
 8586TIP3    H247174   3.236   4.433  12.629  0.0890  1.8282  2.1441
 8587TIP3   OH247175   3.617   5.147  11.197 -0.6222  0.0854 -0.3169
 8587TIP3    H147176   3.660   5.171  11.279 -2.5951  0.4448  0.6895
 8587TIP3    H247177   3.626   5.225  11.141  2.0831 -0.7033 -1.1111
 8588TIP3   OH247178   3.772   3.790   0.248 -0.6191 -0.2545 -0.5202
 8588TIP3    H147179   3.727   3.798   0.164  0.0372  0.8956 -0.7799
 8588TIP3    H247180   3.763   3.877   0.288  0.4610 -0.3200 -0.1138
 8589TIP3   OH247181   0.637   5.074  15.768  0.2103 -0.2535 -0.5569
 8589TIP3    H147182   0.598   5.113  15.846 -1.6082  0.6653 -1.8522
 8589TIP3    H247183   0.680   5.147  15.724 -1.8734  0.0817 -2.1975
 8590TIP3   OH247184   1.001   4.208  15.480  0.7394 -0.2687 -0.3186
 8590TIP3    H147185   1.014   4.113  15.483  1.1862 -0.1967  0.2453
 8590TIP3    H247186   1.083   4.244  15.512  0.1105  0.2746  0.7372
 8591TIP3   OH247187   2.103   3.196  11.352 -0.1738 -0.1602  0.2989
 8591TIP3    H147188   2.119   3.108  11.386 -0.4426 -0.9505 -1.5164
 8591TIP3    H247189   2.167   3.208  11.283 -0.6731  0.7410 -0.0286
 8592TIP3   OH247190   4.724   2.988  14.235  0.1853  0.3577  0.0711
 8592TIP3    H147191   4.746   3.056  14.299 -2.7307  2.9996 -1.5094
 8592TIP3    H247192   4.643   2.949  14.269  1.8311 -2.6097  0.9975
 8593TIP3   OH247193   0.369   4.205   0.870  0.0826  0.1627  0.1115
 8593TIP3    H147194   0.409   4.258   0.801  0.7741  1.1930  1.2657
 8593TIP3    H247195   0.334   4.268   0.932  1.1240 -0.6877  1.6358
 8594TIP3   OH247196   0.110   1.989  16.945  0.3627 -0.0069 -0.0468
 8594TIP3    H147197   0.108   2.084  16.952 -0.7581 -0.1424  2.4889
 8594TIP3    H247198   0.129   1.958  17.034  0.3355 -2.1641 -0.7277
 8595TIP3   OH247199   6.380   5.562   2.437 -0.0045  0.1264 -0.6640
 8595TIP3    H147200   6.443   5.616   2.484 -1.0060 -0.0592  0.9845
 8595TIP3    H247201   6.297   5.609   2.446 -1.2478 -2.2706  2.1517
 8596TIP3   OH247202   2.785   1.397  15.930  0.2038  0.5430  0.3507
 8596TIP3    H147203   2.798   1.491  15.921 -0.4243  0.7915  1.8304
 8596TIP3    H247204   2.698   1.380  15.894  0.8127  0.3051 -1.0785
 8597TIP3   OH247205   1.699   0.750   1.158 -0.1302 -0.2279  0.2760
 8597TIP3    H147206   1.631   0.756   1.091 -0.9092 -2.0524  0.8415
 8597TIP3    H247207   1.671   0.678   1.214  0.6293  1.0639  2.4263
 8598TIP3   OH247208   5.996   5.767  15.706 -0.9238  0.3786  0.1050
 8598TIP3    H147209   6.079   5.736  15.672 -1.3064 -0.1348 -0.3740
 8598TIP3    H247210   6.010   5.775  15.800  0.5479  3.0249 -0.2428
 8599TIP3   OH247211   5.889   3.304   0.177  0.4827 -0.0693  0.4744
 8599TIP3    H147212   5.915   3.279   0.266  0.5024 -0.2468  0.4184
 8599TIP3    H247213   5.962   3.278   0.122  0.2006 -0.5404  0.3192
 8600TIP3   OH247214   2.029   3.189   2.661 -0.3388 -0.1384  0.6469
 8600TIP3    H147215   1.983   3.263   2.620  0.3887 -0.3103 -0.5237
 8600TIP3    H247216   2.056   3.134   2.588 -2.8671 -2.8411  1.5438
 8601TIP3   OH247217   0.179   0.078   5.515  0.2935  0.0081  0.4338
 8601TIP3    H147218   0.245   0.125   5.565 -1.1943  1.2422  1.3067
 8601TIP3    H247219   0.169  -0.005   5.561 -0.3090  0.7086  1.6062
 8602TIP3   OH247220   1.993   0.854   1.156 -0.4728  0.6645 -0.3350
 8602TIP3    H147221   1.992   0.882   1.247 -0.8325  0.5591 -0.3028
 8602TIP3    H247222   1.923   0.788   1.151  0.4572 -0.3454 -0.3629
 8603TIP3   OH247223   0.421   3.716  12.411  0.3201  0.3526  0.3307
 8603TIP3    H147224   0.424   3.798  12.460  0.8912  1.2144 -1.0849
 8603TIP3    H247225   0.513   3.693  12.399  0.2698  1.0074 -1.6502
 8604TIP3   OH247226   6.784   5.481  14.810  0.1463 -0.1470 -0.4097
 8604TIP3    H147227   6.693   5.452  14.800 -0.1464  0.0646  1.2793
 8604TIP3    H247228   6.829   5.406  14.848  0.3356  0.2142  0.0908
 8605TIP3   OH247229   1.957   2.931  14.390 -0.0947 -0.4017  0.4118
 8605TIP3    H147230   1.869   2.931  14.353 -0.0204  0.5525  0.2096
 8605TIP3    H247231   1.944   2.913  14.483 -0.5044 -0.1878  0.3968
 8606TIP3   OH247232   0.957   2.076  13.856 -0.0083 -0.2465 -0.4697
 8606TIP3    H147233   1.051   2.089  13.840 -0.0395  0.6107  0.0004
 8606TIP3    H247234   0.915   2.099  13.773  0.2500 -1.5752 -0.9961
 8607TIP3   OH247235   6.193   1.380  15.472  0.2842  0.0192  0.4284
 8607TIP3    H147236   6.217   1.328  15.548  1.9080 -0.0983 -0.1195
 8607TIP3    H247237   6.255   1.352  15.404 -0.4540  0.8620 -0.6147
 8608TIP3   OH247238   2.721   1.692  14.103  0.3420  0.1450  0.8981
 8608TIP3    H147239   2.778   1.679  14.179  0.4655 -0.9333  0.6438
 8608TIP3    H247240   2.698   1.784  14.106  0.9693  0.2913  1.8080
 8609TIP3   OH247241   0.641   3.579   0.084 -0.6520 -0.7404 -0.2754
 8609TIP3    H147242   0.668   3.658   0.131 -0.3312 -0.1052 -1.4811
 8609TIP3    H247243   0.719   3.552   0.035 -0.5087 -2.2991  0.7481
 8610TIP3   OH247244   2.512   4.196  11.791  0.1831 -0.1689 -0.6449
 8610TIP3    H147245   2.532   4.271  11.846  2.6777 -0.9028 -0.4231
 8610TIP3    H247246   2.435   4.155  11.833 -0.9980  1.9826 -0.5878
 8611TIP3   OH247247   5.956   6.080  11.647  0.2997 -0.8897  0.6443
 8611TIP3    H147248   5.914   6.086  11.561  0.2332 -2.5109  0.5292
 8611TIP3    H247249   5.994   5.992  11.648  2.7867  0.1201  1.1818
 8612TIP3   OH247250   3.009   6.178  15.053 -0.2306  0.5406 -0.2773
 8612TIP3    H147251   3.028   6.213  15.140 -2.0251 -0.2274  0.4597
 8612TIP3    H247252   2.914   6.178  15.046 -0.1534 -0.1014 -1.9596
 8613TIP3   OH247253   4.650   0.479  15.167 -0.1543  0.3414 -0.2852
 8613TIP3    H147254   4.641   0.406  15.229 -3.7930  0.5330 -0.3680
 8613TIP3    H247255   4.740   0.509  15.178  0.5172 -2.1240  2.0480
 8614TIP3   OH247256   1.819   5.912  10.692 -0.3301  0.2804  0.5748
 8614TIP3    H147257   1.785   6.000  10.677 -0.8249  0.0424  0.2777
 8614TIP3    H247258   1.757   5.854  10.647 -0.2705 -0.2493  1.1555
 8615TIP3   OH247259   5.637   5.100  16.686 -0.7282 -0.4458  0.0512
 8615TIP3    H147260   5.626   5.144  16.770 -2.7935  1.8046 -1.2713
 8615TIP3    H247261   5.706   5.035  16.702 -0.1646  0.7296  3.1210
 8616TIP3   OH247262   5.944   5.917  12.223  0.3142 -0.3517 -0.1181
 8616TIP3    H147263   6.011   5.975  12.188 -0.9677  0.9614 -0.4941
 8616TIP3    H247264   5.862   5.950  12.186 -0.6760 -1.2001  1.2300
 8617TIP3   OH247265   4.331   2.921   4.569 -0.2499  0.8383 -0.0395
 8617TIP3    H147266   4.237   2.922   4.550 -0.2064  3.6777 -0.6505
 8617TIP3    H247267   4.339   2.968   4.652  0.4551 -2.2367  1.7638
 8618TIP3   OH247268   6.806   4.557   2.102 -0.1497  0.5201  0.0055
 8618TIP3    H147269   6.731   4.547   2.043 -0.6740 -0.4459  0.8149
 8618TIP3    H247270   6.798   4.645   2.137 -2.0549 -0.2268  1.5960
 8619TIP3   OH247271   1.836   6.323   1.504  0.1998  0.2853  0.4202
 8619TIP3    H147272   1.898   6.394   1.522 -0.8572  2.0999 -2.4591
 8619TIP3    H247273   1.751   6.366   1.497 -0.6332 -1.3965 -0.5089
 8620TIP3   OH247274   4.278   6.380   0.874 -0.6126 -0.2680 -0.2816
 8620TIP3    H147275   4.263   6.350   0.785 -1.3850 -1.3072  0.1753
 8620TIP3    H247276   4.360   6.338   0.901 -0.6333 -0.3382 -0.3304
 8621TIP3   OH247277   5.364   0.544   3.016  0.5867 -0.4307  0.3158
 8621TIP3    H147278   5.396   0.506   3.098  1.4816  0.0340  0.1975
 8621TIP3    H247279   5.363   0.638   3.032 -0.5113 -0.4200  0.2280
 8622TIP3   OH247280   3.797   4.782  13.912 -0.5399  1.0232  0.0754
 8622TIP3    H147281   3.853   4.730  13.855 -1.9127  0.8144 -1.1393
 8622TIP3    H247282   3.731   4.819  13.854 -1.0853  2.0620  1.3074
 8623TIP3   OH247283   3.198   6.733   2.732 -0.7409  0.0323  0.4274
 8623TIP3    H147284   3.287   6.768   2.731 -0.6872 -0.0652  1.2050
 8623TIP3    H247285   3.197   6.668   2.662  0.3162 -1.1758  1.4645
 8624TIP3   OH247286   4.617   5.472  12.119  0.0343 -0.3571  0.7406
 8624TIP3    H147287   4.689   5.415  12.147 -0.9882 -1.5376  1.0344
 8624TIP3    H247288   4.543   5.413  12.105 -0.1391  0.4278 -2.3921
 8625TIP3   OH247289   4.962   3.978  12.610 -0.0420  0.4902 -0.1746
 8625TIP3    H147290   5.034   3.915  12.611  1.0841  1.7289  0.2771
 8625TIP3    H247291   4.971   4.026  12.693 -0.2605  1.8687 -0.9170
 8626TIP3   OH247292   2.104   2.147  11.911  0.3329 -0.1169  0.1994
 8626TIP3    H147293   2.057   2.203  11.973 -2.2754 -0.8103 -1.0272
 8626TIP3    H247294   2.153   2.208  11.857 -0.9469  0.8592  0.1016
 8627TIP3   OH247295   5.877   4.632   1.957 -0.0138  0.3069  0.5349
 8627TIP3    H147296   5.881   4.601   1.867 -1.7369  2.4209 -0.3641
 8627TIP3    H247297   5.786   4.620   1.983 -0.1361  2.0687  1.0531
 8628TIP3   OH247298   5.212   5.121  16.470 -0.6584 -0.2317  0.4274
 8628TIP3    H147299   5.200   5.065  16.394 -0.8149 -0.5322  0.6699
 8628TIP3    H247300   5.307   5.129  16.480 -0.5738 -2.1171  1.5825
 8629TIP3   OH247301   2.329   5.269  12.023 -0.0557 -0.2858 -0.1483
 8629TIP3    H147302   2.250   5.279  11.971 -0.8595  1.0093  1.2640
 8629TIP3    H247303   2.311   5.194  12.080 -0.0681 -0.2664 -0.1274
 8630TIP3   OH247304   2.194   1.562  11.503 -0.3173  0.6973  0.1055
 8630TIP3    H147305   2.232   1.499  11.565  1.9452  1.6744 -0.1945
 8630TIP3    H247306   2.218   1.529  11.417 -0.5145  1.1223 -0.1138
 8631TIP3   OH247307   6.693   5.608   0.564  0.7236 -0.1083 -0.0991
 8631TIP3    H147308   6.769   5.553   0.541 -0.4056 -1.2334 -1.3483
 8631TIP3    H247309   6.696   5.615   0.659  0.5372 -3.0079  0.2328
 8632TIP3   OH247310   5.248   3.956  16.203 -0.1829  0.2321 -0.1301
 8632TIP3    H147311   5.293   4.038  16.185  1.0145  0.2843  2.5827
 8632TIP3    H247312   5.160   3.967  16.166  0.6728  1.7862 -1.8355
 8633TIP3   OH247313   4.712   6.754   4.073  0.2377 -0.4556 -0.2008
 8633TIP3    H147314   4.743   6.844   4.077  2.9660 -1.3199  0.9913
 8633TIP3    H247315   4.619   6.759   4.096 -0.2677  2.2182 -2.3999
 8634TIP3   OH247316   4.868   5.861  11.080  0.2488 -0.4081 -0.1489
 8634TIP3    H147317   4.886   5.769  11.098  0.9948 -0.1683  0.3997
 8634TIP3    H247318   4.942   5.889  11.025  0.1631 -0.0718 -0.0948
 8635TIP3   OH247319   4.533   1.719  14.158  0.6406  0.6232  0.0274
 8635TIP3    H147320   4.601   1.652  14.151  1.2813  1.1313  1.0178
 8635TIP3    H247321   4.568   1.794  14.110 -0.2315  0.1677 -1.3915
 8636TIP3   OH247322   4.776   0.126   3.694 -0.1088  0.2312  0.2465
 8636TIP3    H147323   4.708   0.139   3.760  1.4631  0.6138  1.8659
 8636TIP3    H247324   4.858   0.129   3.743  1.0284 -2.4476 -1.2746
 8637TIP3   OH247325   0.842   1.895  11.454 -0.3260  0.0853 -0.1486
 8637TIP3    H147326   0.800   1.810  11.445 -2.0538  0.8712 -0.0388
 8637TIP3    H247327   0.814   1.944  11.377 -2.0296  1.5675  1.3021
 8638TIP3   OH247328   2.254   4.622  15.697  0.3153 -0.0569  0.2501
 8638TIP3    H147329   2.324   4.649  15.637  1.1480 -1.0948  0.7265
 8638TIP3    H247330   2.250   4.692  15.762  0.2637  0.4657 -0.3071
 8639TIP3   OH247331   1.965   2.718  11.705 -0.2720  0.4440  0.5211
 8639TIP3    H147332   1.893   2.658  11.721 -0.6034  0.6830 -0.0634
 8639TIP3    H247333   2.021   2.710  11.783 -0.7618  0.0298  0.8319
 8640TIP3   OH247334   2.996   6.423   2.241 -0.4827 -0.5242  0.1210
 8640TIP3    H147335   2.942   6.345   2.248  0.4684 -1.0791  1.8705
 8640TIP3    H247336   3.085   6.394   2.264 -0.3361  1.2618  2.2844
 8641TIP3   OH247337   2.079   4.981  12.988 -0.3984  0.2476 -0.1313
 8641TIP3    H147338   1.998   5.029  13.004 -0.3321  0.2474  0.1984
 8641TIP3    H247339   2.052   4.890  12.978 -0.8461  0.5926 -3.1238
 8642TIP3   OH247340   0.039   4.805  15.035  0.1578  0.2023  0.1067
 8642TIP3    H147341   0.030   4.841  15.124  3.8039  0.5325  0.5099
 8642TIP3    H247342  -0.021   4.857  14.982 -3.9233 -1.5076  2.5747
 8643TIP3   OH247343   0.086   2.590  13.436 -0.2932  0.5344 -0.7294
 8643TIP3    H147344   0.180   2.593  13.453 -0.5563  2.0314  0.7063
 8643TIP3    H247345   0.079   2.564  13.344  1.4730 -0.5099 -0.6150
 8644TIP3   OH247346   2.530   1.004  15.008  0.3620 -0.4360  0.0936
 8644TIP3    H147347   2.467   0.978  15.076  0.5551  0.6791  0.7247
 8644TIP3    H247348   2.569   1.084  15.042  1.5367 -0.6654 -0.6756
 8645TIP3   OH247349   6.030   5.294   4.067  0.0731  0.1772  0.3747
 8645TIP3    H147350   6.022   5.316   3.974  1.9268  1.1355  0.3947
 8645TIP3    H247351   5.951   5.243   4.087  0.9797 -2.5701 -2.4104
 8646TIP3   OH247352   4.381   3.966   5.749 -0.3447  0.0624 -0.3643
 8646TIP3    H147353   4.413   3.898   5.809 -1.1230 -0.5856 -0.6613
 8646TIP3    H247354   4.396   4.048   5.796 -0.2612 -0.3791  0.4097
 8647TIP3   OH247355   3.595   1.938  13.997 -0.3982  0.1942  0.3261
 8647TIP3    H147356   3.618   1.976  13.913  0.8548  0.7319  0.8932
 8647TIP3    H247357   3.506   1.969  14.014 -0.6600  0.0692 -0.7920
 8648TIP3   OH247358   6.125   1.587  10.586 -0.2662  0.1621  0.1294
 8648TIP3    H147359   6.181   1.662  10.608  0.1309  0.1533 -0.8099
 8648TIP3    H247360   6.178   1.534  10.527 -0.0609 -1.5454  1.7432
 8649TIP3   OH247361   4.927   4.251  15.615  0.2111 -0.0309  0.0364
 8649TIP3    H147362   4.856   4.198  15.651  0.0995 -1.3856 -1.9849
 8649TIP3    H247363   4.891   4.286  15.533  1.9641 -1.1776 -1.3063
 8650TIP3   OH247364   0.574   6.054   0.109  0.3564  0.8631 -0.2667
 8650TIP3    H147365   0.649   6.078   0.164 -0.9250  0.2208  1.8484
 8650TIP3    H247366   0.613   5.999   0.041  1.8388  0.5263  0.7819
 8651TIP3   OH247367   0.842   4.459   4.563 -0.0156  0.7517 -0.4969
 8651TIP3    H147368   0.777   4.392   4.539 -0.1552  1.2956 -1.7198
 8651TIP3    H247369   0.920   4.409   4.586 -0.5852  0.1181  0.0944
 8652TIP3   OH247370   6.302   0.531   4.445 -0.1603  0.1648 -0.0212
 8652TIP3    H147371   6.393   0.546   4.419  0.2881  0.2089  1.4810
 8652TIP3    H247372   6.308   0.482   4.527 -1.5298 -1.3566 -0.7680
 8653TIP3   OH247373   6.549   0.255  11.585 -0.0040 -0.6193 -0.2807
 8653TIP3    H147374   6.635   0.295  11.572 -0.1848 -0.9595 -3.0294
 8653TIP3    H247375   6.567   0.161  11.591 -0.0532 -0.5649  1.0759
 8654TIP3   OH247376   6.051   6.053  12.453 -0.2905  0.3340  0.5855
 8654TIP3    H147377   6.137   6.066  12.412 -0.3679 -0.0979  0.2799
 8654TIP3    H247378   5.989   6.052  12.380 -0.4256 -0.4400  0.6980
 8655TIP3   OH247379   2.876   0.996   1.539  0.0287 -0.2603 -0.0931
 8655TIP3    H147380   2.923   1.003   1.456 -0.9329 -0.9184 -0.7135
 8655TIP3    H247381   2.800   1.055   1.528 -0.6656 -1.1383 -0.0918
 8656TIP3   OH247382   5.129   2.964   5.469 -0.0394  0.2073 -0.1240
 8656TIP3    H147383   5.117   2.869   5.475  0.3118  0.0882 -1.0134
 8656TIP3    H247384   5.044   2.997   5.443 -0.5591  0.3191  1.6193
 8657TIP3   OH247385   2.791   6.672   4.226 -0.4774 -0.1960  0.1146
 8657TIP3    H147386   2.751   6.758   4.237 -1.3350 -0.7768  1.7309
 8657TIP3    H247387   2.875   6.679   4.272 -0.0501  0.0853 -0.6836
 8658TIP3   OH247388   6.545   3.112  16.957 -0.1907 -0.1757  0.0235
 8658TIP3    H147389   6.637   3.125  16.982  0.0826  0.5228 -1.2835
 8658TIP3    H247390   6.503   3.082  17.038  1.1937 -0.5736  0.6298
 8659TIP3   OH247391   1.727   1.461  11.803  0.1530  0.2821 -0.3232
 8659TIP3    H147392   1.784   1.427  11.733  0.9225 -1.5493  1.1044
 8659TIP3    H247393   1.641   1.426  11.784  0.2518  0.1977 -0.6137
 8660TIP3   OH247394   0.256   2.940  15.294 -0.3409  0.0894  0.1106
 8660TIP3    H147395   0.259   2.850  15.326 -0.1504 -0.2410 -0.7980
 8660TIP3    H247396   0.337   2.979  15.328 -1.5680  0.6828  2.5760
 8661TIP3   OH247397   5.037   1.316  11.212 -0.2328  0.3870  0.1645
 8661TIP3    H147398   5.107   1.381  11.203  0.1239  0.1860  1.2202
 8661TIP3    H247399   5.011   1.295  11.123  1.5082  0.0057 -0.2981
 8662TIP3   OH247400   4.711   0.349   6.369 -0.0874 -0.1731 -0.1275
 8662TIP3    H147401   4.752   0.411   6.309 -2.4775  1.4826 -0.2475
 8662TIP3    H247402   4.783   0.313   6.421  1.6220  1.2280 -1.4205
 8663TIP3   OH247403   2.062   6.171  11.747 -0.0363 -0.2220  0.1739
 8663TIP3    H147404   2.117   6.096  11.727 -1.0131 -0.5389 -1.4853
 8663TIP3    H247405   2.109   6.246  11.710  0.2595 -0.2021  0.5845
 8664TIP3   OH247406   1.637   1.971   0.125  0.3796 -0.2865 -0.2676
 8664TIP3    H147407   1.551   1.987   0.087  0.9792  0.9345 -1.1530
 8664TIP3    H247408   1.633   1.881   0.157 -1.9383  0.3917  1.6686
 8665TIP3   OH247409   4.096   1.155   3.122  0.1699 -0.0280  0.9280
 8665TIP3    H147410   4.009   1.174   3.159  0.8021  3.1569  1.0898
 8665TIP3    H247411   4.148   1.126   3.197 -0.6257 -1.6100  0.8970
 8666TIP3   OH247412   1.914   6.072   1.110 -0.3169 -0.1221  0.0722
 8666TIP3    H147413   1.924   6.110   1.197  1.7976 -1.0656  0.2849
 8666TIP3    H247414   1.985   6.009   1.102 -1.4661 -1.2989 -1.7132
 8667TIP3   OH247415   1.252   1.871  12.053  0.4143  0.1714 -0.6508
 8667TIP3    H147416   1.206   1.944  12.095  0.7406 -0.0112  0.0216
 8667TIP3    H247417   1.184   1.827  12.002  0.3295  1.2922 -1.5582
 8668TIP3   OH247418   6.111   0.923  14.680  0.0602 -0.2574 -0.2615
 8668TIP3    H147419   6.141   0.912  14.770 -0.2941  2.3815  0.2682
 8668TIP3    H247420   6.139   0.843  14.635  2.1882 -0.6865  1.6555
 8669TIP3   OH247421   2.780   0.413  14.890  0.4484  0.8528 -0.0026
 8669TIP3    H147422   2.706   0.359  14.861  1.2881  0.0788 -0.8026
 8669TIP3    H247423   2.740   0.496  14.917 -0.8405 -0.0158  0.8715
 8670TIP3   OH247424   0.511   3.171  16.176 -0.0992 -0.6546 -0.1075
 8670TIP3    H147425   0.488   3.149  16.267  0.0774  2.0326  0.6675
 8670TIP3    H247426   0.427   3.170  16.129 -1.0748  2.8465  1.2820
 8671TIP3   OH247427   2.873   0.844   2.693  0.1903 -0.1627  0.2495
 8671TIP3    H147428   2.799   0.848   2.753 -0.8569  0.7449 -1.0371
 8671TIP3    H247429   2.936   0.785   2.736  0.3660  1.8997  3.1494
 8672TIP3   OH247430   4.479   0.985  14.192  0.0337  0.5250 -0.3332
 8672TIP3    H147431   4.475   0.994  14.097  0.0714 -0.4109 -0.4365
 8672TIP3    H247432   4.507   1.071  14.224  0.8708  0.5930 -1.2311
 8673TIP3   OH247433   4.329   6.093  16.627  0.3914  0.7238  0.0548
 8673TIP3    H147434   4.380   6.148  16.686  1.5229 -1.7445  1.5014
 8673TIP3    H247435   4.291   6.026  16.683 -1.8663  0.6146 -1.4757
 8674TIP3   OH247436   0.275   5.879  11.954 -0.4131  0.3941  0.0788
 8674TIP3    H147437   0.211   5.892  12.024  0.2791  1.9929  0.4477
 8674TIP3    H247438   0.360   5.894  11.995  0.2763 -2.0020 -0.3414
 8675TIP3   OH247439   4.572   6.131  16.760 -0.0718  0.3548 -0.4717
 8675TIP3    H147440   4.665   6.120  16.781 -0.0276  0.4939 -0.5936
 8675TIP3    H247441   4.569   6.209  16.704 -0.1985  0.0314 -0.9154
 8676TIP3   OH247442   2.349   5.331  11.314  0.0550  0.5104  0.1852
 8676TIP3    H147443   2.417   5.348  11.248  0.7048 -3.1455 -0.3166
 8676TIP3    H247444   2.378   5.250  11.357 -2.6600  0.3097  1.8436
 8677TIP3   OH247445   2.320   2.715   3.893  0.0083 -0.2439  0.4600
 8677TIP3    H147446   2.410   2.721   3.860  0.4937 -0.8578  1.6285
 8677TIP3    H247447   2.312   2.789   3.953  0.2698 -1.1006  1.5710
 8678TIP3   OH247448   5.836   5.133  14.696 -0.1199 -0.3817 -0.0272
 8678TIP3    H147449   5.828   5.219  14.739 -1.8807 -0.0738 -0.8660
 8678TIP3    H247450   5.811   5.150  14.605  0.9514 -1.5298 -0.5567
 8679TIP3   OH247451   2.982   5.917   5.582  0.0902  0.5269 -0.3417
 8679TIP3    H147452   3.029   5.961   5.653 -1.4581  1.8780 -0.0917
 8679TIP3    H247453   2.931   5.987   5.540  1.0743 -0.1960 -2.9222
 8680TIP3   OH247454   5.563   3.216  15.600  0.0640 -0.2197 -0.3115
 8680TIP3    H147455   5.498   3.267  15.648 -0.1133 -0.8821  0.1613
 8680TIP3    H247456   5.633   3.201  15.663  0.0481 -0.6886 -0.4005
 8681TIP3   OH247457   0.322   5.406  11.722 -0.2847 -0.2055 -0.4428
 8681TIP3    H147458   0.276   5.385  11.803 -1.1333  0.8719 -0.6227
 8681TIP3    H247459   0.322   5.502  11.719 -0.3515 -0.2339 -1.7695
 8682TIP3   OH247460   5.236   3.381   5.790 -0.4397 -0.0181  0.1465
 8682TIP3    H147461   5.157   3.355   5.742 -0.0336  1.3326 -1.3281
 8682TIP3    H247462   5.304   3.387   5.722  0.6724 -0.0515  1.2215
 8683TIP3   OH247463   6.189   5.980   4.773 -0.1585 -0.1177 -0.5068
 8683TIP3    H147464   6.148   5.966   4.858 -0.4353 -0.6528 -0.7224
 8683TIP3    H247465   6.170   6.071   4.751 -3.1933 -0.8884 -1.6028
 8684TIP3   OH247466   1.488   5.517   2.936 -0.0598  0.1477 -0.4283
 8684TIP3    H147467   1.494   5.522   2.841 -1.0396  1.1181 -0.4613
 8684TIP3    H247468   1.441   5.597   2.961  0.5069  0.0906  0.8982
 8685TIP3   OH247469   2.244   5.286  13.016  0.2355 -0.1964 -0.0450
 8685TIP3    H147470   2.231   5.344  12.941 -1.0514  0.1169  0.3992
 8685TIP3    H247471   2.337   5.294  13.036  0.2141  1.2561 -0.3748
 8686TIP3   OH247472   0.280   1.341  16.006  0.5050  0.2570  0.1712
 8686TIP3    H147473   0.204   1.399  16.011 -0.0641 -0.4785  0.4436
 8686TIP3    H247474   0.243   1.257  15.979  1.3907  0.1660 -0.7850
 8687TIP3   OH247475   2.363   6.642  10.574 -0.2252 -0.2770  0.1368
 8687TIP3    H147476   2.370   6.701  10.499 -0.9689 -0.0885  0.2126
 8687TIP3    H247477   2.381   6.555  10.538 -0.0210 -0.1196 -0.1457
 8688TIP3   OH247478   1.329   1.601  12.767 -0.5143 -0.0940 -0.9011
 8688TIP3    H147479   1.252   1.556  12.802 -1.2258  0.6059 -1.5201
 8688TIP3    H247480   1.392   1.601  12.839 -2.5255  2.8351  1.1162
 8689TIP3   OH247481   0.058   6.464  11.240 -0.5469  0.6601 -0.5359
 8689TIP3    H147482   0.090   6.375  11.258 -0.0692  1.3462  2.6889
 8689TIP3    H247483   0.099   6.488  11.156 -2.9626 -3.0842 -3.0747
 8690TIP3   OH247484   4.168   2.965  15.810  0.2505 -0.0944  0.5311
 8690TIP3    H147485   4.233   3.012  15.863 -0.4448  0.8466  0.5581
 8690TIP3    H247486   4.212   2.883  15.787  1.1627  0.1845  1.2061
 8691TIP3   OH247487   2.446   5.881   2.376 -0.1894 -0.0506  0.8524
 8691TIP3    H147488   2.513   5.821   2.343 -0.5657 -0.8096  1.4293
 8691TIP3    H247489   2.368   5.826   2.387 -1.0613  0.9245 -0.2724
 8692TIP3   OH247490   2.881   3.461   1.042  0.2704  0.0717  0.2160
 8692TIP3    H147491   2.887   3.415   0.959  1.5462 -0.4136  0.5413
 8692TIP3    H247492   2.824   3.406   1.096 -1.3906  0.9010 -0.6221
 8693TIP3   OH247493   3.395   3.393   0.068  0.8298 -0.2974  0.1457
 8693TIP3    H147494   3.302   3.383   0.091  0.6679  1.0221  0.1906
 8693TIP3    H247495   3.433   3.440   0.143  1.5647 -0.8984  0.1646
 8694TIP3   OH247496   3.251   2.459  11.027 -0.4022 -0.4836 -0.4532
 8694TIP3    H147497   3.170   2.446  10.978 -0.1023 -0.7637 -0.8911
 8694TIP3    H247498   3.223   2.490  11.113 -1.1232 -2.6823  0.1765
 8695TIP3   OH247499   6.765   3.360  15.972 -0.3103 -0.2817 -0.3048
 8695TIP3    H147500   6.795   3.331  16.057 -1.7080 -1.2312 -0.1047
 8695TIP3    H247501   6.830   3.327  15.910  0.3257 -0.1993  0.3106
 8696TIP3   OH247502   2.981   0.852   1.768  0.1342  0.5373  0.0059
 8696TIP3    H147503   2.938   0.893   1.693 -0.3767 -0.1755 -0.1112
 8696TIP3    H247504   2.946   0.763   1.769  0.6675  0.3263  0.6759
 8697TIP3   OH247505   6.692   1.166   3.236  0.4733 -0.4997  0.2860
 8697TIP3    H147506   6.731   1.166   3.148  0.5057  2.0412  0.2236
 8697TIP3    H247507   6.600   1.191   3.221  0.8614  1.6254  1.0184
 8698TIP3   OH247508   3.640   1.077   1.705  0.4423 -0.2270  0.4169
 8698TIP3    H147509   3.552   1.082   1.742 -0.7550 -1.4578 -2.0396
 8698TIP3    H247510   3.682   1.006   1.754 -0.0342  0.1168  1.3626
 8699TIP3   OH247511   1.184   2.574   2.445  0.1174 -0.0237 -0.3558
 8699TIP3    H147512   1.103   2.596   2.491  0.0363  0.3419 -0.6701
 8699TIP3    H247513   1.196   2.644   2.381  0.0754 -0.6680 -1.0934
 8700TIP3   OH247514   4.290   0.303   0.653  0.0727 -0.7015  0.4453
 8700TIP3    H147515   4.376   0.325   0.616  0.5658 -1.3178  1.1933
 8700TIP3    H247516   4.230   0.366   0.614  1.3489  1.7204  2.1268
 8701TIP3   OH247517   6.297   5.004  15.910 -0.5579  0.0002 -0.0828
 8701TIP3    H147518   6.321   4.912  15.900  0.3876  0.0083  1.6952
 8701TIP3    H247519   6.348   5.049  15.842 -1.3816 -0.7988 -1.2736
 8702TIP3   OH247520   2.693   4.569   3.758 -0.4824  0.3241  0.7483
 8702TIP3    H147521   2.759   4.638   3.761 -0.9242  0.8807 -1.0078
 8702TIP3    H247522   2.734   4.495   3.803  2.7410 -0.4338 -2.9017
 8703TIP3   OH247523   2.413   4.155  11.521  0.1963  1.0341  0.0124
 8703TIP3    H147524   2.476   4.100  11.475 -2.2715 -1.0723 -1.1135
 8703TIP3    H247525   2.429   4.137  11.614  1.1971  0.5104 -0.2456
 8704TIP3   OH247526   3.966   5.433   1.540 -0.1998 -0.5583  0.1180
 8704TIP3    H147527   3.988   5.403   1.451  0.2315  0.0260  0.0246
 8704TIP3    H247528   4.006   5.367   1.597 -2.1459 -2.0476 -0.1293
 8705TIP3   OH247529   1.376   1.898   3.228  0.1563 -1.0656 -0.1249
 8705TIP3    H147530   1.329   1.911   3.145 -1.5852  0.1607  0.9786
 8705TIP3    H247531   1.460   1.860   3.203 -0.4959 -1.1230 -2.4075
 8706TIP3   OH247532   4.634   3.175   0.672 -0.1738  0.2759 -0.1631
 8706TIP3    H147533   4.677   3.260   0.665  1.6402 -0.6287 -0.6065
 8706TIP3    H247534   4.647   3.148   0.763 -2.3156  1.2015  0.4880
 8707TIP3   OH247535   1.650   0.263   1.556 -0.6455  0.2725  0.5583
 8707TIP3    H147536   1.657   0.299   1.644 -2.3960  1.4063  0.2631
 8707TIP3    H247537   1.640   0.168   1.570  1.0635  0.1823  1.4542
 8708TIP3   OH247538   0.740   0.637   2.511  0.5549 -0.2914 -0.5642
 8708TIP3    H147539   0.721   0.714   2.457 -1.2905 -0.2837  0.0271
 8708TIP3    H247540   0.778   0.574   2.451  0.3961  0.4432 -1.4552
 8709TIP3   OH247541   2.746   0.690  12.739  0.5693 -0.4091  0.2059
 8709TIP3    H147542   2.732   0.633  12.663  1.4679 -2.1002  1.2591
 8709TIP3    H247543   2.742   0.778  12.703  1.5362 -1.1674 -1.9270
 8710TIP3   OH247544   0.271   5.279  11.501  0.4410 -0.5855 -0.0582
 8710TIP3    H147545   0.336   5.212  11.476  0.4728 -1.3303  1.8987
 8710TIP3    H247546   0.310   5.323  11.577  0.0675  1.1797 -0.8363
 8711TIP3   OH247547   3.299   5.042  14.768 -0.0808  0.1935  0.3317
 8711TIP3    H147548   3.393   5.028  14.758 -0.4724 -2.7263  0.0534
 8711TIP3    H247549   3.284   5.042  14.862 -0.0831 -1.8297  0.3542
 8712TIP3   OH247550   5.656   4.589  14.796 -0.0359 -0.1888  0.3277
 8712TIP3    H147551   5.671   4.683  14.790 -0.2881  0.0147  2.1658
 8712TIP3    H247552   5.693   4.564  14.881  0.5838 -1.8796 -0.3917
 8713TIP3   OH247553   0.995   4.732  15.001 -0.2456  0.3434  0.1032
 8713TIP3    H147554   0.991   4.821  15.037 -0.7515  1.1890 -1.8869
 8713TIP3    H247555   0.905   4.702  15.001 -0.2994  0.4777 -0.6881
 8714TIP3   OH247556   5.289   6.052   0.489 -0.7523  0.0748 -0.2912
 8714TIP3    H147557   5.236   6.127   0.515 -2.1551 -0.6224 -1.0351
 8714TIP3    H247558   5.379   6.079   0.507 -1.3428  1.2642  1.0648
 8715TIP3   OH247559   6.107   4.920  14.853 -0.1869  0.7329  0.4614
 8715TIP3    H147560   6.185   4.896  14.903 -0.7496 -3.4346 -0.2232
 8715TIP3    H247561   6.035   4.914  14.916 -0.2351  2.1082  0.5544
 8716TIP3   OH247562   4.308   2.634   1.900 -0.2946  0.8482 -0.2963
 8716TIP3    H147563   4.334   2.557   1.950  1.5040  0.3559 -1.8631
 8716TIP3    H247564   4.313   2.706   1.962  1.1529  0.1597  0.4373
 8717TIP3   OH247565   6.142   0.698   4.296 -0.3631 -0.1968 -0.2651
 8717TIP3    H147566   6.201   0.651   4.356  1.0723  1.9090  0.0655
 8717TIP3    H247567   6.199   0.754   4.245 -2.0567  1.8825 -0.0084
 8718TIP3   OH247568   0.929   4.961   1.380  0.0237 -0.2483  0.3762
 8718TIP3    H147569   0.994   4.901   1.344 -0.1153  0.0252 -0.3702
 8718TIP3    H247570   0.868   4.905   1.427 -0.1204 -0.7076 -0.3336
 8719TIP3   OH247571   2.292   1.159   5.318 -0.3753  0.3716  0.3587
 8719TIP3    H147572   2.269   1.198   5.234 -0.2239 -0.3812 -0.0430
 8719TIP3    H247573   2.370   1.106   5.300  1.3096  2.2934  1.5354
 8720TIP3   OH247574   1.544   1.657   2.244  0.0050 -0.4651  0.1201
 8720TIP3    H147575   1.613   1.708   2.285 -2.7735  3.8974 -0.0142
 8720TIP3    H247576   1.498   1.616   2.318 -0.1511  0.6864  0.6794
 8721TIP3   OH247577   5.020   5.136   4.482  0.3297  0.6786 -0.5322
 8721TIP3    H147578   5.041   5.182   4.401 -0.5057  0.6578 -0.7770
 8721TIP3    H247579   5.086   5.066   4.488  0.9704  1.2605 -0.6920
 8722TIP3   OH247580   1.827   1.618   2.678 -0.3756  0.0234  0.0605
 8722TIP3    H147581   1.917   1.632   2.649 -0.4692 -0.4386 -0.4592
 8722TIP3    H247582   1.792   1.552   2.618 -0.5353 -1.0517  1.2709
 8723TIP3   OH247583   6.363   6.111  13.703  0.2845  0.2294  0.5495
 8723TIP3    H147584   6.308   6.032  13.696 -1.9506  1.8282 -2.5445
 8723TIP3    H247585   6.426   6.101  13.632 -1.7587  2.2579 -1.7457
 8724TIP3   OH247586   1.426   3.740  16.504  0.3061 -0.1232  0.8138
 8724TIP3    H147587   1.355   3.702  16.450  2.7851 -2.4346 -1.1104
 8724TIP3    H247588   1.392   3.825  16.531 -2.0157  0.3021 -2.6872
 8725TIP3   OH247589   4.826   6.034   0.953  0.2853  0.5156  0.6637
 8725TIP3    H147590   4.770   5.969   0.909  0.6202  0.1894  0.7142
 8725TIP3    H247591   4.817   6.113   0.900 -0.2206  0.4686  0.6685
 8726TIP3   OH247592   0.143   5.674   1.277  0.5656  0.0967 -0.1531
 8726TIP3    H147593   0.157   5.682   1.372 -1.2017 -0.6090  0.1970
 8726TIP3    H247594   0.072   5.734   1.257  1.1039  0.4440 -1.1154
 8727TIP3   OH247595   4.010   4.463   2.791  0.2366  0.6439 -0.3216
 8727TIP3    H147596   3.945   4.413   2.742  0.5805  0.4190 -0.5546
 8727TIP3    H247597   4.085   4.471   2.731  1.3245 -1.0785  0.7088
 8728TIP3   OH247598   5.434   0.559  16.126 -0.1787  0.0205  0.9995
 8728TIP3    H147599   5.493   0.634  16.126 -2.3746  1.9491 -1.3942
 8728TIP3    H247600   5.346   0.597  16.134 -1.3175 -2.4027  0.9505
 8729TIP3   OH247601   4.466   3.904  15.486  0.0158 -0.3847  0.0228
 8729TIP3    H147602   4.408   3.971  15.449  0.1724 -0.9880 -1.3865
 8729TIP3    H247603   4.525   3.881  15.414 -1.3229 -3.4739 -0.2366
 8730TIP3   OH247604   2.699   0.728   3.571 -0.1821  0.3070  0.4034
 8730TIP3    H147605   2.782   0.740   3.619 -0.4403  0.8878  0.7069
 8730TIP3    H247606   2.725   0.683   3.491  0.5011  0.9407  0.2566
 8731TIP3   OH247607   0.583   2.051   4.873 -0.2900  0.4123 -0.3199
 8731TIP3    H147608   0.509   1.991   4.880  1.2548 -1.5200  0.4341
 8731TIP3    H247609   0.633   2.019   4.797 -0.4018  1.9577 -1.0987
 8732TIP3   OH247610   6.678   5.989   6.315 -0.4292 -0.0317  0.2158
 8732TIP3    H147611   6.724   6.068   6.342 -0.3049  0.5940 -1.6869
 8732TIP3    H247612   6.734   5.917   6.345 -0.6361  0.5361  2.1326
 8733TIP3   OH247613   3.793   3.054  11.908 -0.2811 -0.2166 -0.0503
 8733TIP3    H147614   3.739   3.048  11.829  0.4341 -0.4518 -0.5394
 8733TIP3    H247615   3.883   3.044  11.876  0.0463  0.0681  0.7531
 8734TIP3   OH247616   1.417   4.770   2.014  0.4122  0.4134 -0.0920
 8734TIP3    H147617   1.470   4.780   2.094 -0.7238  0.4015  0.6901
 8734TIP3    H247618   1.329   4.798   2.040  0.1373  0.9698 -1.5123
 8735TIP3   OH247619   3.377   1.357   6.198  0.1811 -0.2266 -0.4045
 8735TIP3    H147620   3.402   1.428   6.257 -1.5025  1.1153 -1.2295
 8735TIP3    H247621   3.430   1.283   6.227  0.7424  0.8695  1.6042
 8736TIP3   OH247622   2.989   3.149   0.162  0.0657 -0.7185  0.1694
 8736TIP3    H147623   2.910   3.201   0.177  0.2275 -0.5493  0.4354
 8736TIP3    H247624   3.061   3.207   0.188  0.4241 -0.1057 -1.9851
 8737TIP3   OH247625   5.753   2.402  14.316  0.0632 -0.2836 -0.0909
 8737TIP3    H147626   5.697   2.328  14.341 -1.2564  1.0617  1.1179
 8737TIP3    H247627   5.760   2.397  14.221 -1.0216 -1.2422 -0.1322
 8738TIP3   OH247628   3.067   2.748   4.993 -0.2579 -0.0699  0.4673
 8738TIP3    H147629   3.068   2.682   5.062  1.3273 -0.8900 -0.2913
 8738TIP3    H247630   3.109   2.825   5.032 -1.1456  0.1581  1.0099
 8739TIP3   OH247631   0.458   6.062   5.181 -0.1692 -0.2104  0.7558
 8739TIP3    H147632   0.399   6.126   5.142 -1.3050 -0.9487  1.2112
 8739TIP3    H247633   0.519   6.039   5.111 -1.0327 -0.1598 -0.0200
 8740TIP3   OH247634   3.340   0.374   4.842 -0.2922 -0.3762  0.4688
 8740TIP3    H147635   3.269   0.435   4.822 -1.0196 -0.6072  2.1078
 8740TIP3    H247636   3.301   0.287   4.832  0.7285 -0.6517 -1.8249
 8741TIP3   OH247637   2.921   0.824  14.522 -0.0528  0.0716 -0.0440
 8741TIP3    H147638   2.910   0.883  14.448 -0.0797  0.8883  0.5970
 8741TIP3    H247639   3.015   0.824  14.540 -0.1999  1.0803  0.8603
 8742TIP3   OH247640   5.885   1.521  17.040 -0.6034 -0.1747 -0.0254
 8742TIP3    H147641   5.900   1.605  17.082  2.5439 -0.6211  0.0395
 8742TIP3    H247642   5.895   1.538  16.946  1.5327 -0.6137  0.0619
 8743TIP3   OH247643   5.191   5.448   5.180 -0.0636  0.1673  0.0480
 8743TIP3    H147644   5.226   5.360   5.169 -1.2471 -0.1629 -1.4028
 8743TIP3    H247645   5.168   5.476   5.092  0.7784  2.1702  0.4156
 8744TIP3   OH247646   6.192   0.119   1.936  0.5284 -0.6530 -0.3677
 8744TIP3    H147647   6.278   0.094   1.901  0.6710 -1.2202  0.3626
 8744TIP3    H247648   6.153   0.037   1.966 -0.7016 -0.5551 -1.5849
 8745TIP3   OH247649   1.004   3.707  11.671 -0.5418  0.6884 -0.0611
 8745TIP3    H147650   1.070   3.740  11.733  1.5124 -1.3824 -1.0290
 8745TIP3    H247651   1.034   3.739  11.586  0.0950 -1.4564 -0.6926
 8746TIP3   OH247652   2.421   0.685  14.272  0.3250  0.1190  0.6727
 8746TIP3    H147653   2.396   0.604  14.317  0.8016 -1.2405 -1.3913
 8746TIP3    H247654   2.515   0.693  14.288  0.5832 -0.6050 -0.3647
 8747TIP3   OH247655   5.034   6.642  14.893 -0.2570 -0.1949  0.6133
 8747TIP3    H147656   5.047   6.686  14.809  0.9998  0.2282  1.0050
 8747TIP3    H247657   4.987   6.706  14.946 -1.1090 -0.4859  0.2337
 8748TIP3   OH247658   5.205   2.227  13.007 -0.3322  0.4190 -0.0995
 8748TIP3    H147659   5.205   2.153  13.068  0.4344  1.0414  0.6862
 8748TIP3    H247660   5.133   2.283  13.036 -0.6079  0.2231 -0.3979
 8749TIP3   OH247661   4.246   5.244   0.608  0.2147 -0.3396  0.1381
 8749TIP3    H147662   4.289   5.304   0.547  0.3465 -0.2777  0.2908
 8749TIP3    H247663   4.318   5.201   0.655  0.1197 -0.5572  0.0882
 8750TIP3   OH247664   2.436   3.153  10.378 -0.1772 -0.2541  0.3676
 8750TIP3    H147665   2.453   3.132  10.286 -0.3344  3.1586 -0.5743
 8750TIP3    H247666   2.346   3.187  10.378 -0.1450 -0.1008  1.7889
 8751TIP3   OH247667   6.079   5.262   2.776 -0.2259  0.1384  0.1401
 8751TIP3    H147668   6.045   5.244   2.864  1.1566  0.1966  0.7255
 8751TIP3    H247669   6.023   5.331   2.742  0.4249  1.5501  1.7970
 8752TIP3   OH247670   0.137   1.825   5.046  0.5578  0.3932  0.4233
 8752TIP3    H147671   0.053   1.871   5.041  1.3552  1.9826  0.8918
 8752TIP3    H247672   0.176   1.837   4.959  0.1397 -0.7175  0.0645
 8753TIP3   OH247673   5.336   1.249   3.563 -0.0610  0.1296 -0.0035
 8753TIP3    H147674   5.299   1.210   3.483  1.1602  0.3093 -0.6775
 8753TIP3    H247675   5.260   1.263   3.619 -0.7163 -2.1349 -0.1849
 8754TIP3   OH247676   0.245   1.270   5.126 -0.1980 -0.2343  0.5016
 8754TIP3    H147677   0.217   1.223   5.048  0.6059 -0.5651  0.4009
 8754TIP3    H247678   0.168   1.322   5.152  0.1019  1.4449 -1.6506
 8755TIP3   OH247679   2.047   3.031  11.737  0.3269 -0.0024  0.4402
 8755TIP3    H147680   2.119   3.012  11.677 -0.3207 -0.9905 -0.0605
 8755TIP3    H247681   2.026   2.946  11.776 -0.6140  0.2463  0.5031
 8756TIP3   OH247682   2.882   1.755   5.414  0.0972  0.1510  0.7346
 8756TIP3    H147683   2.939   1.813   5.364 -0.7934 -0.5983 -1.2471
 8756TIP3    H247684   2.940   1.715   5.478  1.3604  0.9373  0.1253
 8757TIP3   OH247685   3.471   3.512  17.038  0.5568 -0.3263 -0.0435
 8757TIP3    H147686   3.396   3.519  16.979 -0.1495 -0.4515  0.8219
 8757TIP3    H247687   3.435   3.473  17.118  1.5288 -0.3115  0.4119
 8758TIP3   OH247688   2.532   4.362   0.096 -0.0025  0.1232 -0.1588
 8758TIP3    H147689   2.473   4.291   0.070 -0.5863  0.4903  0.1743
 8758TIP3    H247690   2.552   4.407   0.014 -0.1681 -0.0040 -0.2702
 8759TIP3   OH247691   2.322   2.456   3.992 -0.0686 -0.5503 -0.2719
 8759TIP3    H147692   2.360   2.415   3.914  0.6274  0.1299 -0.3106
 8759TIP3    H247693   2.304   2.546   3.965  0.2395 -0.2924  0.3681
 8760TIP3   OH247694   3.411   0.960  12.851  0.4357 -0.4945  0.1144
 8760TIP3    H147695   3.452   1.024  12.793 -1.8011 -0.3159 -1.3955
 8760TIP3    H247696   3.321   0.992  12.862  0.1306 -1.7930  1.8095
 8761TIP3   OH247697   1.928   2.964  12.876  0.7992 -0.2943 -0.2335
 8761TIP3    H147698   1.925   3.059  12.867 -0.2595 -0.4613 -1.9660
 8761TIP3    H247699   2.021   2.943  12.880  1.0401  0.9113  1.8911
 8762TIP3   OH247700   1.913   0.314   1.483 -0.1640  0.0198  0.6115
 8762TIP3    H147701   1.868   0.259   1.548 -1.6554 -0.8652 -1.1026
 8762TIP3    H247702   1.843   0.347   1.426  1.0494  1.2003 -0.2577
 8763TIP3   OH247703   3.301   5.397   1.875 -0.2757  0.1567 -0.1655
 8763TIP3    H147704   3.370   5.460   1.895 -0.1107 -0.6513  2.0489
 8763TIP3    H247705   3.341   5.337   1.812  0.0110  1.3987 -1.2291
 8764TIP3   OH247706   0.292   0.779  11.310  0.3654  0.4005  0.1154
 8764TIP3    H147707   0.370   0.834  11.317  0.6809 -0.1390  0.9106
 8764TIP3    H247708   0.297   0.720  11.385  0.1097 -0.8249 -0.8090
 8765TIP3   OH247709   4.341   6.525   4.055  0.5373 -0.0321 -0.2790
 8765TIP3    H147710   4.315   6.592   3.992  2.9638 -0.9140 -2.4102
 8765TIP3    H247711   4.383   6.573   4.126  2.2119  0.8098 -1.7541
 8766TIP3   OH247712   2.800   0.638  13.443  0.0358  0.7921 -0.0866
 8766TIP3    H147713   2.824   0.580  13.514 -2.0497  0.2652  0.2459
 8766TIP3    H247714   2.840   0.599  13.365 -1.7585 -1.4630  0.0307
 8767TIP3   OH247715   0.389   2.804   2.540 -0.6998 -0.0496  0.0980
 8767TIP3    H147716   0.338   2.754   2.603 -0.7618  1.1596  1.0480
 8767TIP3    H247717   0.427   2.876   2.591 -0.1634  0.5529 -1.0993
 8768TIP3   OH247718   6.485   4.244  15.054  0.5407 -0.7804 -0.3961
 8768TIP3    H147719   6.509   4.327  15.094  2.7453 -0.8182 -1.4653
 8768TIP3    H247720   6.446   4.268  14.970  1.6368 -0.8079 -0.9265
 8769TIP3   OH247721   3.758   3.432   6.307  0.1575  0.3345 -0.3586
 8769TIP3    H147722   3.786   3.459   6.220  0.5064  0.0403 -0.3377
 8769TIP3    H247723   3.814   3.358   6.329  1.3347  1.5242  0.8600
 8770TIP3   OH247724   2.601   0.746  15.920 -0.1746  0.1784 -0.2058
 8770TIP3    H147725   2.595   0.716  15.830  0.0954  2.5350 -1.0737
 8770TIP3    H247726   2.552   0.828  15.922  0.4711  0.5858  1.5967
 8771TIP3   OH247727   3.263   0.923  17.084 -0.0069  0.2781  0.0983
 8771TIP3    H147728   3.242   0.880  17.002  0.9508 -1.2000  0.5980
 8771TIP3    H247729   3.280   1.014  17.060  0.4943 -0.1810 -1.3606
 8772TIP3   OH247730   0.534   4.553   4.161 -0.5126  0.4605  0.4600
 8772TIP3    H147731   0.603   4.487   4.151  1.8236  2.9491 -1.3756
 8772TIP3    H247732   0.465   4.524   4.101  1.8127  1.0760 -2.8341
 8773TIP3   OH247733   1.561   6.533  11.824  0.5460 -0.0781  0.3946
 8773TIP3    H147734   1.542   6.518  11.917 -0.6538 -0.1081  0.1633
 8773TIP3    H247735   1.569   6.628  11.816  2.9470 -0.1697  0.9127
 8774TIP3   OH247736   4.634   4.410  13.702  0.0265 -0.1212 -0.2240
 8774TIP3    H147737   4.654   4.503  13.712  0.3631 -0.1409 -0.6460
 8774TIP3    H247738   4.600   4.403  13.612  1.4926 -0.6397 -0.7614
 8775TIP3   OH247739   4.570   3.733   1.648  0.1254 -0.9582 -0.4710
 8775TIP3    H147740   4.636   3.803   1.654  0.4703 -1.3660  0.8757
 8775TIP3    H247741   4.565   3.713   1.555 -0.0237  0.9023 -0.8995
 8776TIP3   OH247742   5.967   1.178   0.895 -0.2672  0.2685  0.0659
 8776TIP3    H147743   6.045   1.211   0.851  0.0327  1.5618  1.4511
 8776TIP3    H247744   5.990   1.090   0.924 -0.0285 -0.0948 -1.1912
 8777TIP3   OH247745   3.016   3.570  15.189  0.5118  0.6380  0.0271
 8777TIP3    H147746   3.012   3.549  15.096 -0.8327  0.2534  0.1499
 8777TIP3    H247747   3.076   3.505  15.226  1.5943  1.2200 -0.6594
 8778TIP3   OH247748   4.894   3.344   0.943 -0.3322 -0.8569 -0.5860
 8778TIP3    H147749   4.833   3.352   1.017  0.3555 -0.4301 -0.0531
 8778TIP3    H247750   4.972   3.392   0.971  1.6700 -4.2726  0.2730
 8779TIP3   OH247751   0.104   2.378   2.883 -0.4482  0.1317 -0.7560
 8779TIP3    H147752   0.160   2.314   2.839 -1.6310 -1.4612 -0.0452
 8779TIP3    H247753   0.164   2.445   2.915  1.0600 -1.5294  0.0194
 8780TIP3   OH247754   2.822   5.086  12.217 -0.1905 -0.1900 -0.2672
 8780TIP3    H147755   2.773   5.141  12.278 -0.0026 -0.9328  0.5807
 8780TIP3    H247756   2.817   5.132  12.133  1.2980  1.9242  0.7322
 8781TIP3   OH247757   3.292   2.434   4.257 -0.4005 -0.3132  0.4642
 8781TIP3    H147758   3.324   2.418   4.168 -1.9044  1.7280 -0.5224
 8781TIP3    H247759   3.348   2.504   4.291 -0.4138 -0.4590  0.7985
 8782TIP3   OH247760   0.791   1.793  16.754  0.5187 -0.4790  0.4749
 8782TIP3    H147761   0.712   1.845  16.765  0.8819  0.0918  0.4323
 8782TIP3    H247762   0.770   1.708  16.793 -0.0057 -0.2281  0.7425
 8783TIP3   OH247763   0.204   4.511  15.187  0.2226 -0.4726  0.5491
 8783TIP3    H147764   0.263   4.466  15.126  2.1027  2.0155  0.3582
 8783TIP3    H247765   0.127   4.533  15.134  2.1337  2.3056 -1.3465
 8784TIP3   OH247766   4.840   2.442  13.304 -0.0238 -0.1090  0.1804
 8784TIP3    H147767   4.868   2.423  13.394 -0.4159  1.0988  0.5750
 8784TIP3    H247768   4.762   2.388  13.291  1.3258 -2.0566 -0.2697
 8785TIP3   OH247769   1.574   2.555   3.993  0.2540 -0.0241 -0.0634
 8785TIP3    H147770   1.511   2.555   4.065 -0.2557 -1.2896 -0.4808
 8785TIP3    H247771   1.643   2.496   4.022 -0.7758 -1.9116 -1.2527
 8786TIP3   OH247772   0.165   0.248  15.095  0.1744 -0.2051 -0.0869
 8786TIP3    H147773   0.181   0.335  15.132  0.9862  0.0218 -0.9491
 8786TIP3    H247774   0.108   0.205  15.159  0.7115  0.5402  0.9149
 8787TIP3   OH247775   0.101   0.921   5.868  0.0930 -0.1989 -0.0458
 8787TIP3    H147776   0.092   1.015   5.856 -2.4112 -0.3578 -0.0193
 8787TIP3    H247777   0.117   0.910   5.962 -0.1476  0.1933  0.0427
 8788TIP3   OH247778   1.861   0.552  16.771 -0.1856 -0.8683 -0.0608
 8788TIP3    H147779   1.777   0.553  16.817 -0.2417 -0.0550 -0.1674
 8788TIP3    H247780   1.839   0.580  16.682  0.4490  1.1743  0.3717
 8789TIP3   OH247781   0.728   2.053   3.708  0.1598  0.5387  0.1050
 8789TIP3    H147782   0.671   1.977   3.694  1.0077  0.2000 -1.8022
 8789TIP3    H247783   0.707   2.083   3.797 -1.0953 -1.1476  0.4227
 8790TIP3   OH247784   0.497   2.204   2.929  0.4674 -0.0104  0.0115
 8790TIP3    H147785   0.463   2.219   3.017  0.4208  1.1576 -0.1909
 8790TIP3    H247786   0.505   2.109   2.922  0.1337 -0.1321  1.1446
 8791TIP3   OH247787   6.398   6.252   3.556 -0.5476  0.2830 -0.0100
 8791TIP3    H147788   6.407   6.330   3.612 -1.0161 -0.2286  0.7949
 8791TIP3    H247789   6.382   6.181   3.617  1.7194 -0.7922 -0.5729
 8792TIP3   OH247790   4.180   5.239  16.690  0.4451 -0.3294 -0.9623
 8792TIP3    H147791   4.159   5.170  16.627  0.5757 -0.2872 -1.0532
 8792TIP3    H247792   4.205   5.314  16.636 -0.0870 -0.0800 -0.8662
 8793TIP3   OH247793   4.304   0.815  13.361 -0.2156 -0.3208  0.5531
 8793TIP3    H147794   4.325   0.781  13.448 -2.4610 -0.7133  1.0159
 8793TIP3    H247795   4.241   0.885  13.377 -0.7289 -0.4503 -0.7393
 8794TIP3   OH247796   0.756   2.551   3.120 -0.3739 -0.0891 -0.1739
 8794TIP3    H147797   0.757   2.643   3.093 -2.5593  0.3319  0.9248
 8794TIP3    H247798   0.820   2.546   3.192 -0.7727  0.7653  0.2563
 8795TIP3   OH247799   1.113   4.074  12.653  0.6882 -0.5505 -0.0475
 8795TIP3    H147800   1.196   4.108  12.687 -0.5424  0.3656  2.3232
 8795TIP3    H247801   1.058   4.064  12.731 -1.5402 -0.7719 -1.5566
 8796TIP3   OH247802   1.539   1.863  12.029  0.6158  0.1689 -0.1136
 8796TIP3    H147803   1.577   1.804  11.963  0.3124  1.3455 -1.3935
 8796TIP3    H247804   1.448   1.836  12.036  0.4712  0.4709 -0.7191
 8797TIP3   OH247805   3.800   2.168   2.866 -0.5635  0.0751  0.1217
 8797TIP3    H147806   3.856   2.146   2.941  0.5602  3.3033  0.3737
 8797TIP3    H247807   3.855   2.150   2.790 -0.1835  0.6009  0.2625
 8798TIP3   OH247808   2.343   0.915  12.340  0.3167 -0.1060 -0.0069
 8798TIP3    H147809   2.409   0.846  12.335 -1.9406 -2.3375 -1.0935
 8798TIP3    H247810   2.309   0.909  12.430  0.4354 -0.1197  0.0368
 8799TIP3   OH247811   6.264   2.447   1.731  0.6418 -0.3878  0.0704
 8799TIP3    H147812   6.272   2.446   1.826 -1.5130  2.5695  0.4440
 8799TIP3    H247813   6.348   2.415   1.699  1.1025 -2.3818  2.9036
 8800TIP3   OH247814   0.463   5.401   4.202 -0.4281  0.7702  0.0927
 8800TIP3    H147815   0.533   5.401   4.136 -1.2812  0.7351 -0.8317
 8800TIP3    H247816   0.446   5.494   4.219 -0.3786  0.7799  0.0911
 8801TIP3   OH247817   2.256   3.657  15.165  0.4882  0.1842  0.1206
 8801TIP3    H147818   2.310   3.632  15.090 -0.0567  0.7357 -0.4583
 8801TIP3    H247819   2.214   3.576  15.192 -0.9741  0.3320 -1.5145
 8802TIP3   OH247820   2.975   3.158   2.609  0.7144  0.2247  0.2193
 8802TIP3    H147821   3.044   3.097   2.584  0.8604 -0.2096  1.5553
 8802TIP3    H247822   3.022   3.232   2.649  0.4391 -0.1233  1.2366
 8803TIP3   OH247823   2.896   2.687  11.203  0.2456  0.8213  0.7550
 8803TIP3    H147824   2.884   2.607  11.152  1.5907  1.4927 -0.6894
 8803TIP3    H247825   2.814   2.736  11.189 -1.2195 -0.8331  2.8278
 8804TIP3   OH247826   0.072   6.808   0.631  0.9926 -0.7886  0.0079
 8804TIP3    H147827   0.102   6.799   0.541  2.1641  0.5907  0.2271
 8804TIP3    H247828  -0.024   6.804   0.625  1.0592 -0.8498 -1.2702
 8805TIP3   OH247829   1.842   3.037  15.856 -0.0758 -0.1774  0.3021
 8805TIP3    H147830   1.883   3.122  15.870 -0.3013 -0.3628  2.5455
 8805TIP3    H247831   1.855   2.990  15.938 -0.3682 -2.1520 -0.7072
 8806TIP3   OH247832   2.449   0.333  15.085  0.1676  0.1467 -0.4377
 8806TIP3    H147833   2.402   0.294  15.012  0.0731  1.7295 -1.2654
 8806TIP3    H247834   2.526   0.277  15.097 -1.5045 -2.1159  0.5250
 8807TIP3   OH247835   3.466   0.630  14.116  0.4180  0.3143  0.2190
 8807TIP3    H147836   3.396   0.601  14.057 -0.3764  0.0256  1.2833
 8807TIP3    H247837   3.517   0.692  14.063 -1.3174  1.4195 -0.2551
 8808TIP3   OH247838   3.636   4.939  11.976 -0.1011  0.6563 -0.2137
 8808TIP3    H147839   3.635   5.031  12.004 -0.0534 -0.2323  3.1169
 8808TIP3    H247840   3.554   4.903  12.009  0.9182 -1.0083  0.6276
 8809TIP3   OH247841   3.629   2.327  12.527 -0.0107 -0.0456 -0.1586
 8809TIP3    H147842   3.551   2.278  12.502 -0.3105  0.6702 -0.6531
 8809TIP3    H247843   3.597   2.415  12.546  0.7713  0.4784 -1.1487
 8810TIP3   OH247844   4.773   1.307   0.842  0.1565 -0.3798  0.8104
 8810TIP3    H147845   4.733   1.264   0.766 -0.1266 -0.5500  1.0519
 8810TIP3    H247846   4.782   1.398   0.817 -3.6590  0.4992  1.9853
 8811TIP3   OH247847   5.454   3.132  11.605  0.7887 -0.2185 -0.6357
 8811TIP3    H147848   5.499   3.198  11.553  2.4850 -1.3074 -0.6542
 8811TIP3    H247849   5.503   3.051  11.588 -0.4550 -1.2309  0.3385
 8812TIP3   OH247850   2.203   5.406  13.603 -0.4103  0.0982  0.1836
 8812TIP3    H147851   2.141   5.445  13.665  0.0065 -0.5191  1.0036
 8812TIP3    H247852   2.158   5.328  13.571 -1.1326  1.0542 -1.2532
 8813TIP3   OH247853   4.292   5.687   0.337 -0.2095 -0.2408  0.1149
 8813TIP3    H147854   4.298   5.778   0.368  0.8209 -0.5739  0.9399
 8813TIP3    H247855   4.226   5.690   0.268  1.2062  1.5234 -1.2708
 8814TIP3   OH247856   6.200   4.876   3.211  0.3195  0.3216 -0.2243
 8814TIP3    H147857   6.129   4.941   3.218  0.7692  0.9953 -1.5878
 8814TIP3    H247858   6.167   4.811   3.149  0.1154 -0.4541  0.6753
 8815TIP3   OH247859   0.172   2.767   3.112 -0.2673  0.4284 -0.1004
 8815TIP3    H147860   0.142   2.855   3.091  0.7800  0.5676 -1.1421
 8815TIP3    H247861   0.145   2.752   3.202 -0.9254  1.6108 -0.0982
 8816TIP3   OH247862   1.736   5.538  12.968  0.8106  0.1610 -0.4555
 8816TIP3    H147863   1.729   5.522  13.062 -1.0232 -0.0715 -0.5966
 8816TIP3    H247864   1.817   5.588  12.958  1.1483 -0.0050  1.2084
 8817TIP3   OH247865   3.143   2.618  12.182 -0.4108  0.1358 -0.5667
 8817TIP3    H147866   3.116   2.654  12.267  0.1486  0.1977 -0.4066
 8817TIP3    H247867   3.239   2.615  12.188 -0.3313  0.7910 -1.4653
 8818TIP3   OH247868   2.790   5.072  15.730  0.0026  0.2956 -0.3630
 8818TIP3    H147869   2.743   5.116  15.659 -2.8121 -0.4987  0.8460
 8818TIP3    H247870   2.833   5.142  15.778 -0.7779  1.2295 -0.9987
 8819TIP3   OH247871   3.116   4.866  16.109  0.1319  0.0699 -0.8318
 8819TIP3    H147872   3.141   4.897  16.022 -0.6202 -1.6337 -1.7128
 8819TIP3    H247873   3.169   4.788  16.123 -1.0389 -0.7142 -0.5751
 8820TIP3   OH247874   4.075   3.922   4.421 -0.0301  0.2635  0.3736
 8820TIP3    H147875   4.158   3.970   4.417 -0.0985  0.5916  2.1310
 8820TIP3    H247876   4.012   3.979   4.376  1.2727 -1.5977 -4.4162
 8821TIP3   OH247877   4.673   0.166   2.815  0.0533 -0.6156  0.3048
 8821TIP3    H147878   4.598   0.121   2.853 -0.2565 -0.5776 -0.2663
 8821TIP3    H247879   4.749   0.116   2.846 -0.1298 -0.0773  1.6941
 8822TIP3   OH247880   6.111   5.009   0.012  0.8759  0.4686  0.0543
 8822TIP3    H147881   6.064   5.062   0.076  0.3610  0.5625 -0.3912
 8822TIP3    H247882   6.155   5.073  -0.044  0.9263  0.4047  0.0202
 8823TIP3   OH247883   4.319   4.375  10.786 -0.6282 -0.0431  0.0352
 8823TIP3    H147884   4.239   4.421  10.809 -0.2463 -0.1231  1.6541
 8823TIP3    H247885   4.336   4.317  10.860 -0.3603 -1.8124 -1.3488
 8824TIP3   OH247886   6.165   2.995   4.701 -0.5726  0.2456 -0.7397
 8824TIP3    H147887   6.145   2.901   4.701 -1.9497  0.5106 -1.0377
 8824TIP3    H247888   6.134   3.026   4.616  0.6381  0.8394 -0.9832
 8825TIP3   OH247889   4.779   1.354   1.300  0.0913  0.7692  0.3506
 8825TIP3    H147890   4.874   1.362   1.311  0.4653 -1.5095 -0.6553
 8825TIP3    H247891   4.742   1.402   1.374  2.0962 -0.3517  2.1965
 8826TIP3   OH247892   2.353   5.478   1.389  0.2638  0.1239 -0.1860
 8826TIP3    H147893   2.292   5.551   1.382 -1.3142 -1.1114 -0.1617
 8826TIP3    H247894   2.436   5.517   1.415 -0.8420  1.7646  1.0913
 8827TIP3   OH247895   1.840   2.995  13.137  0.7169 -0.0181  0.1990
 8827TIP3    H147896   1.832   3.090  13.134  0.3010 -0.0522  0.2712
 8827TIP3    H247897   1.856   2.969  13.047  0.7068  0.1076  0.1600
 8828TIP3   OH247898   3.480   3.355   2.110  0.1367 -0.1442 -0.4367
 8828TIP3    H147899   3.455   3.272   2.151  0.5813 -0.4199 -0.7215
 8828TIP3    H247900   3.489   3.416   2.184  1.2157 -0.7047 -0.0764
 8829TIP3   OH247901   4.817   5.977   4.329 -0.0900  0.0141 -0.0028
 8829TIP3    H147902   4.848   5.957   4.417  0.4722 -0.3781 -0.2866
 8829TIP3    H247903   4.873   6.049   4.300  0.4939 -0.6097 -0.4663
 8830TIP3   OH247904   1.470   4.310  16.963  0.2428  0.2134  0.5767
 8830TIP3    H147905   1.512   4.396  16.968 -0.4889  0.7945 -1.8248
 8830TIP3    H247906   1.543   4.248  16.958  0.7837  0.8034  1.0610
 8831TIP3   OH247907   4.686   4.790  12.865 -0.4338 -0.3851  0.1320
 8831TIP3    H147908   4.636   4.720  12.907 -0.6585 -1.2067 -1.4085
 8831TIP3    H247909   4.758   4.808  12.925 -1.6236 -0.3545  1.6052
 8832TIP3   OH247910   0.639   3.939   2.485 -0.4439  0.8665  0.0156
 8832TIP3    H147911   0.560   3.944   2.539 -0.5468 -0.6475  0.0746
 8832TIP3    H247912   0.688   4.018   2.506 -0.6594  0.5320  2.0779
 8833TIP3   OH247913   2.442   4.725  11.062 -0.4794 -0.8772  0.6116
 8833TIP3    H147914   2.474   4.737  10.973  3.0630 -1.5009  1.6641
 8833TIP3    H247915   2.420   4.632  11.067  0.1101 -1.0174  0.6154
 8834TIP3   OH247916   0.850   5.196  15.151  0.2806 -0.0593  0.2590
 8834TIP3    H147917   0.854   5.102  15.130  1.2142  0.2499 -1.0713
 8834TIP3    H247918   0.938   5.228  15.133 -0.4477  1.3890 -0.9540
 8835TIP3   OH247919   3.995   0.494   3.505  0.0903  0.4549  0.8053
 8835TIP3    H147920   4.084   0.509   3.474 -0.4279  0.0074 -1.0444
 8835TIP3    H247921   3.988   0.545   3.586  1.3904  2.1593 -0.1056
 8836TIP3   OH247922   0.878   3.282   5.329  0.4827  0.0347  0.2373
 8836TIP3    H147923   0.881   3.271   5.424 -1.1062  0.5610  0.3798
 8836TIP3    H247924   0.857   3.375   5.316 -0.1802 -0.2173 -0.5998
 8837TIP3   OH247925   5.510   2.863  16.826  0.2535 -0.7072  0.3606
 8837TIP3    H147926   5.605   2.866  16.824  0.3704 -3.1007 -1.7937
 8837TIP3    H247927   5.483   2.906  16.745 -0.5295 -0.1595  0.8948
 8838TIP3   OH247928   5.422   4.125  10.989  0.0178  0.2462 -0.0117
 8838TIP3    H147929   5.491   4.184  11.019 -0.8232  1.1609  0.1754
 8838TIP3    H247930   5.442   4.041  11.031  0.6114  0.6834  0.6009
 8839TIP3   OH247931   6.511   3.651   1.193  0.0131 -0.0377 -0.0475
 8839TIP3    H147932   6.541   3.659   1.103 -2.4739 -0.5600 -1.0117
 8839TIP3    H247933   6.520   3.558   1.213 -2.2136 -0.4933 -0.8986
 8840TIP3   OH247934   2.565   6.800   1.823  0.0301 -0.0377  1.1212
 8840TIP3    H147935   2.657   6.828   1.820  0.2488 -0.7658  0.8216
 8840TIP3    H247936   2.562   6.737   1.894 -0.0743 -0.5717  0.6516
 8841TIP3   OH247937   4.141   5.126   2.659 -0.3679  0.1898  0.2702
 8841TIP3    H147938   4.137   5.125   2.563  0.9112 -3.6254  0.0974
 8841TIP3    H247939   4.228   5.159   2.680 -1.1276  2.3737  0.3003
 8842TIP3   OH247940   0.907   1.624  11.657  0.5413  0.2119 -0.2473
 8842TIP3    H147941   0.872   1.677  11.728 -0.2925 -0.0593 -0.4326
 8842TIP3    H247942   0.948   1.687  11.598  0.4267  0.5390  0.0196
 8843TIP3   OH247943   2.038   1.688  15.459 -0.6908 -0.0638 -0.2605
 8843TIP3    H147944   2.076   1.770  15.490  0.8705 -0.7566 -0.2754
 8843TIP3    H247945   2.012   1.643  15.539  1.1147 -0.7920 -0.0453
 8844TIP3   OH247946   6.800   6.278   1.319 -0.2016 -0.4811  0.2957
 8844TIP3    H147947   6.745   6.232   1.383  1.3239 -2.2982  0.3839
 8844TIP3    H247948   6.888   6.273   1.356  0.2031  1.5654 -0.2834
 8845TIP3   OH247949   1.864   0.733  14.630  0.4902 -0.2157  0.0290
 8845TIP3    H147950   1.780   0.758  14.670  0.0709 -0.5869 -0.5922
 8845TIP3    H247951   1.842   0.658  14.575  1.5769 -1.4219  1.1923
 8846TIP3   OH247952   0.502   0.574  16.055 -0.9232  0.3951  0.2109
 8846TIP3    H147953   0.568   0.639  16.078 -1.0012  0.3600  0.5342
 8846TIP3    H247954   0.484   0.590  15.962  1.8351 -1.5874 -0.8156
 8847TIP3   OH247955   1.437   1.220  15.840 -0.4316  0.0925  0.3110
 8847TIP3    H147956   1.344   1.199  15.843 -0.5157  0.4814  3.9201
 8847TIP3    H247957   1.481   1.139  15.867  0.0490  0.7737  1.6362
 8848TIP3   OH247958   5.092   5.444  13.377 -0.4210  0.5512  0.5747
 8848TIP3    H147959   5.152   5.513  13.404 -1.8333  1.2955  1.9967
 8848TIP3    H247960   5.084   5.454  13.283  0.8531  1.0983  0.5088
 8849TIP3   OH247961   5.479   2.243  13.037  0.3204  0.5918 -0.9773
 8849TIP3    H147962   5.386   2.221  13.038  0.5453 -0.3671  0.0459
 8849TIP3    H247963   5.524   2.160  13.054  1.2783  1.4071  0.7547
 8850TIP3   OH247964   5.494   4.005   3.900  0.6602  0.5585  0.2136
 8850TIP3    H147965   5.495   4.022   3.994 -0.2368  2.1122 -0.0312
 8850TIP3    H247966   5.420   3.945   3.887  1.6467 -0.8056  0.6383
 8851TIP3   OH247967   4.682   0.407   0.223 -0.9393 -0.3129  0.0703
 8851TIP3    H147968   4.722   0.485   0.262  1.1921 -1.2902  0.0004
 8851TIP3    H247969   4.696   0.417   0.129  0.5645 -1.3546  0.1517
 8852TIP3   OH247970   4.703   5.500  11.439 -0.1534 -0.6101 -0.1759
 8852TIP3    H147971   4.683   5.485  11.532 -1.4463  1.2850 -0.1035
 8852TIP3    H247972   4.797   5.520  11.438 -0.1256 -0.6453  0.7238
 8853TIP3   OH247973   1.807   0.609   1.849  0.0092 -0.0006 -0.2608
 8853TIP3    H147974   1.762   0.654   1.921 -0.7181 -0.7932 -0.2156
 8853TIP3    H247975   1.751   0.624   1.773  0.6225  0.5741 -0.6153
 8854TIP3   OH247976   1.672   6.787  13.555 -0.2023  0.3925  0.0318
 8854TIP3    H147977   1.585   6.801  13.591 -0.4324  0.2381 -0.4554
 8854TIP3    H247978   1.686   6.693  13.561 -0.8656  0.1558 -1.6632
 8855TIP3   OH247979   4.730   1.936  16.685 -0.1848  0.1984 -0.0153
 8855TIP3    H147980   4.814   1.936  16.731  0.1778  2.8640 -0.5182
 8855TIP3    H247981   4.674   1.879  16.738  1.8575 -1.5554  0.3864
 8856TIP3   OH247982   2.451   5.868   1.309  0.2853  0.3886  0.2096
 8856TIP3    H147983   2.502   5.798   1.268 -0.0231  0.1787  0.1790
 8856TIP3    H247984   2.483   5.949   1.269  0.7883  0.2799  0.3945
 8857TIP3   OH247985   0.006   2.232   3.456  0.4298  0.3095  0.3075
 8857TIP3    H147986   0.020   2.321   3.488 -0.2589  1.3323 -2.0455
 8857TIP3    H247987   0.093   2.193   3.454  0.6251  0.5657  2.2607
 8858TIP3   OH247988   3.676   5.853  16.780 -0.2387  0.4525  0.1563
 8858TIP3    H147989   3.644   5.863  16.870  1.5955 -0.2653  0.9262
 8858TIP3    H247990   3.717   5.937  16.759 -0.0093  0.3703  0.2719
 8859TIP3   OH247991   5.175   4.534   1.489 -0.1913 -0.3218  0.3052
 8859TIP3    H147992   5.137   4.446   1.483  0.3240 -0.4895 -0.7933
 8859TIP3    H247993   5.143   4.579   1.410  2.2145 -0.6207 -0.9408
 8860TIP3   OH247994   1.218   3.944   4.888  0.3225  0.1017  0.3144
 8860TIP3    H147995   1.130   3.952   4.924  0.6105 -2.3785  1.7654
 8860TIP3    H247996   1.209   3.966   4.795 -1.6347  0.6551  0.5999
 8861TIP3   OH247997   4.335   4.854  11.843  0.3703 -0.5451 -0.8087
 8861TIP3    H147998   4.354   4.948  11.850  0.7605 -0.6564 -0.2972
 8861TIP3    H247999   4.280   4.847  11.766  0.3323  0.1090 -0.8523
 8862TIP3   OH248000   0.204   2.168  11.596  0.0501 -0.5606  0.1763
 8862TIP3    H148001   0.255   2.248  11.607  0.3200 -0.8625  1.3462
 8862TIP3    H248002   0.127   2.194  11.546  1.0326  0.0402 -1.0842
 8863TIP3   OH248003   4.300   6.754   1.345 -0.4798 -0.0538 -0.1120
 8863TIP3    H148004   4.319   6.825   1.283  2.0252  0.2160  0.8513
 8863TIP3    H248005   4.316   6.793   1.431  0.1940 -1.5361  0.4747
 8864TIP3   OH248006   1.920   3.768  15.505  0.1482 -0.2510  0.3708
 8864TIP3    H148007   1.969   3.688  15.527  3.4937  2.1084  2.5460
 8864TIP3    H248008   1.955   3.795  15.420 -0.3630 -0.6331  0.0343
 8865TIP3   OH248009   1.589   5.505   1.447 -0.3944 -0.3747 -0.1043
 8865TIP3    H148010   1.536   5.530   1.372 -0.1874 -0.1957 -0.1937
 8865TIP3    H248011   1.544   5.429   1.484 -0.9787  0.0664  0.1104
 8866TIP3   OH248012   0.291   4.738  11.539  0.1887  0.2429 -0.0999
 8866TIP3    H148013   0.316   4.646  11.530  1.5001  0.4678  0.9077
 8866TIP3    H248014   0.199   4.740  11.516 -0.0174 -1.4443  0.4261
 8867TIP3   OH248015   5.311   3.085  12.402 -0.2111 -0.2223 -0.1194
 8867TIP3    H148016   5.250   3.133  12.345  0.9301  2.0195  0.4452
 8867TIP3    H248017   5.265   3.078  12.486 -0.3169  0.0163 -0.1563
 8868TIP3   OH248018   5.960   0.001  11.436  0.1070 -0.7077 -0.0142
 8868TIP3    H148019   6.037  -0.033  11.391  0.3094 -0.6920  0.3144
 8868TIP3    H248020   5.931  -0.070  11.493 -0.0831 -0.6903 -0.0869
 8869TIP3   OH248021   3.403   6.730  11.806  0.0520 -0.0462 -0.5069
 8869TIP3    H148022   3.378   6.772  11.888  2.5100  1.0103 -0.2264
 8869TIP3    H248023   3.423   6.802  11.746  0.9703 -0.7810 -1.1285
 8870TIP3   OH248024   6.793   4.770  12.441  0.4410 -0.3822 -0.1169
 8870TIP3    H148025   6.746   4.854  12.436 -1.4005 -1.2743  1.0913
 8870TIP3    H248026   6.776   4.728  12.356 -0.0423 -0.2356 -0.0965
 8871TIP3   OH248027   4.783   2.619   5.590 -0.1762  0.1162  0.2392
 8871TIP3    H148028   4.826   2.534   5.598 -0.3609  0.0427  0.4446
 8871TIP3    H248029   4.752   2.621   5.499  0.1951  0.1394  0.1122
 8872TIP3   OH248030   3.487   3.530  15.325  0.3480 -0.2730 -0.6604
 8872TIP3    H148031   3.435   3.559  15.250  0.1995 -1.5227 -1.0689
 8872TIP3    H248032   3.428   3.473  15.375  0.7409 -0.2009 -0.1077
 8873TIP3   OH248033   2.045   6.336  10.039  0.6653 -0.2011 -0.6768
 8873TIP3    H148034   2.109   6.265  10.032  1.1130  0.0796  0.3853
 8873TIP3    H248035   1.974   6.298  10.091  0.9298  0.1227 -0.0606
 8874TIP3   OH248036   0.238   0.854  13.939 -0.0641 -0.4177 -0.0362
 8874TIP3    H148037   0.198   0.924  13.991  0.5180 -1.6126  2.1527
 8874TIP3    H248038   0.326   0.885  13.920  0.4784 -0.8316  1.6385
 8875TIP3   OH248039   6.367   3.409   4.413 -1.0029 -0.3173  0.0740
 8875TIP3    H148040   6.288   3.370   4.450 -0.0967 -2.7964 -0.3848
 8875TIP3    H248041   6.427   3.416   4.487 -1.0999 -0.0021  0.1207
 8876TIP3   OH248042   5.999   2.038  15.548  0.1030 -0.0407  0.0796
 8876TIP3    H148043   6.032   2.055  15.460  0.4864 -0.8633  0.0569
 8876TIP3    H248044   6.076   2.016  15.599 -0.0399  1.0325  0.7825
 8877TIP3   OH248045   1.160   4.428   1.433  0.4773 -0.5036 -0.7904
 8877TIP3    H148046   1.222   4.425   1.506 -1.0601  0.7085  0.6259
 8877TIP3    H248047   1.149   4.521   1.415 -0.6455 -0.7195 -1.2673
 8878TIP3   OH248048   5.864   1.601  16.787 -0.1965  0.8160  0.5034
 8878TIP3    H148049   5.898   1.541  16.721  0.7308  0.6034  1.1597
 8878TIP3    H248050   5.901   1.686  16.765 -1.9093  1.2944 -0.7236
 8879TIP3   OH248051   3.720   6.048   4.752  0.2043  0.2963 -0.0045
 8879TIP3    H148052   3.753   5.958   4.745  0.0497  0.2243  0.2042
 8879TIP3    H248053   3.798   6.100   4.771  0.1829  0.1119  0.5939
 8880TIP3   OH248054   1.211   0.176  16.232  0.4594  0.2713  0.1225
 8880TIP3    H148055   1.227   0.161  16.139  1.4766  0.6307  0.2310
 8880TIP3    H248056   1.127   0.221  16.235 -0.1303 -0.7380 -0.5392
 8881TIP3   OH248057   6.803   1.502   4.150 -0.1401 -0.1522  0.1082
 8881TIP3    H148058   6.785   1.479   4.241  1.3444 -1.0187  0.2147
 8881TIP3    H248059   6.886   1.459   4.130 -0.9962 -1.0034 -2.0169
 8882TIP3   OH248060   6.571   4.414   3.441  0.2912  0.3944  0.1170
 8882TIP3    H148061   6.480   4.384   3.430  0.3222 -1.0494  2.7854
 8882TIP3    H248062   6.568   4.472   3.517  1.5602  0.4512  0.1422
 8883TIP3   OH248063   6.386   2.456  13.402  0.4344 -0.0219 -0.5349
 8883TIP3    H148064   6.460   2.408  13.365 -1.4611 -2.7034 -1.1120
 8883TIP3    H248065   6.341   2.492  13.326  0.2412  0.2314 -0.3029
 8884TIP3   OH248066   5.838   1.947  14.324  0.2598  0.3168  0.6165
 8884TIP3    H148067   5.841   2.016  14.390  1.5306  0.0307  0.8767
 8884TIP3    H248068   5.855   1.993  14.241 -2.2510  0.8334  0.2816
 8885TIP3   OH248069   4.965   3.883  16.979  0.3840  0.0526  0.0421
 8885TIP3    H148070   4.910   3.883  17.057  2.1117 -0.9444  1.3275
 8885TIP3    H248071   4.957   3.794  16.944  1.2024 -0.1149  0.2660
 8886TIP3   OH248072   2.662   5.934  15.161 -0.3389 -0.1766  0.0341
 8886TIP3    H148073   2.589   5.976  15.114 -0.7890 -0.8183  0.1549
 8886TIP3    H248074   2.623   5.901  15.242 -0.1227 -1.3798 -0.3431
 8887TIP3   OH248075   6.037   0.460  14.912 -0.5248  0.1132  0.7081
 8887TIP3    H148076   5.961   0.418  14.954  0.2213 -0.6267  1.3467
 8887TIP3    H248077   6.061   0.531  14.972 -0.3392 -0.0406  0.8170
 8888TIP3   OH248078   1.727   4.642   3.657 -0.5451 -0.6999  0.0171
 8888TIP3    H148079   1.748   4.735   3.655  1.1846 -1.0804 -0.6864
 8888TIP3    H248080   1.808   4.598   3.633 -1.2116 -2.4240  0.7601
 8889TIP3   OH248081   5.057   4.396   4.927 -0.6708  0.1958  0.2275
 8889TIP3    H148082   5.076   4.449   4.849 -0.5967  1.0178  0.7866
 8889TIP3    H248083   4.986   4.443   4.971 -0.3538  0.0281  0.9279
 8890TIP3   OH248084   6.503   6.456   3.149 -0.4841  0.6854 -0.2011
 8890TIP3    H148085   6.488   6.403   3.227 -0.5093 -1.7955 -1.7761
 8890TIP3    H248086   6.598   6.461   3.141 -0.4460 -0.4871 -0.8311
 8891TIP3   OH248087   0.333   4.203  13.350  0.1554  0.6040  0.2792
 8891TIP3    H148088   0.408   4.234  13.300  0.6885  0.2908  0.8662
 8891TIP3    H248089   0.363   4.203  13.441 -0.3113 -0.2333  0.4433
 8892TIP3   OH248090   4.931   1.089   0.040  0.0125  0.2954 -0.3176
 8892TIP3    H148091   4.913   1.081   0.133  0.5262 -0.5577 -0.2856
 8892TIP3    H248092   4.934   1.183   0.024 -1.0338  0.4547  0.3332
 8893TIP3   OH248093   2.730   5.949   0.387  0.5496  0.0812 -0.2467
 8893TIP3    H148094   2.789   6.021   0.408  0.0023  0.8213 -1.1598
 8893TIP3    H248095   2.674   5.984   0.317  1.0788 -1.6366 -1.5848
 8894TIP3   OH248096   3.491   5.938   5.532  0.0650 -0.3356 -0.5227
 8894TIP3    H148097   3.435   5.982   5.468 -0.0349 -0.4252 -0.4978
 8894TIP3    H248098   3.527   6.009   5.585 -1.5600 -0.3708  0.7255
 8895TIP3   OH248099   3.924   0.590   4.705 -0.0741  0.7053  0.3847
 8895TIP3    H148100   3.885   0.592   4.792 -0.2556  0.3846  0.3134
 8895TIP3    H248101   3.854   0.620   4.647 -0.4972 -0.6097  0.1620
 8896TIP3   OH248102   0.542   0.195  13.829 -0.5728 -0.5333 -0.4277
 8896TIP3    H148103   0.510   0.258  13.764  0.6600  0.3493 -0.2188
 8896TIP3    H248104   0.482   0.203  13.903 -1.1195 -0.4743 -0.8721
 8897TIP3   OH248105   1.139   0.858  14.920 -0.0611  0.2362 -0.2604
 8897TIP3    H148106   1.220   0.817  14.950 -1.4152 -1.6851  1.0561
 8897TIP3    H248107   1.131   0.831  14.829  0.7751  0.4846 -0.4187
 8898TIP3   OH248108   4.805   1.178   4.163  0.4602  0.1004 -0.3538
 8898TIP3    H148109   4.897   1.195   4.183  0.4313  1.0408 -0.9342
 8898TIP3    H248110   4.768   1.265   4.145 -0.8478 -0.1060  1.0790
 8899TIP3   OH248111   2.237   4.892  14.779 -0.1771 -0.1638  0.2489
 8899TIP3    H148112   2.232   4.942  14.860 -0.4456 -0.1022  0.1962
 8899TIP3    H248113   2.329   4.867  14.772 -0.0864  0.1163  0.3989
 8900TIP3   OH248114   0.816   2.869  14.751  0.6452 -0.1339 -0.0383
 8900TIP3    H148115   0.721   2.855  14.747  0.5239  0.7138 -0.2196
 8900TIP3    H248116   0.847   2.803  14.814 -0.1312 -0.0771  0.4214
 8901TIP3   OH248117   0.683   4.453  11.468  0.5574 -1.1426  0.4933
 8901TIP3    H148118   0.680   4.438  11.373  0.6765 -0.2285  0.3367
 8901TIP3    H248119   0.600   4.497  11.488  2.2353  2.5877  0.0659
 8902TIP3   OH248120   0.751   5.720   4.508  0.6427 -0.0438 -0.3940
 8902TIP3    H148121   0.779   5.651   4.448  0.2543 -0.6156  0.0693
 8902TIP3    H248122   0.733   5.674   4.591 -0.0919  0.5395 -0.2210
 8903TIP3   OH248123   1.321   4.662   2.712  0.3125  0.4548  0.1855
 8903TIP3    H148124   1.329   4.704   2.798  0.6273 -0.5171  0.6463
 8903TIP3    H248125   1.394   4.697   2.662  1.6096 -0.7595  1.1190
 8904TIP3   OH248126   2.086   2.848   3.592  0.2612 -0.4557  0.5856
 8904TIP3    H148127   2.112   2.868   3.502  0.6116 -0.7722  0.6130
 8904TIP3    H248128   2.162   2.874   3.644  0.1515 -0.4964  0.7645
 8905TIP3   OH248129   3.520   0.710  12.925  0.4919 -0.8737 -0.1862
 8905TIP3    H148130   3.500   0.804  12.923 -0.9985 -1.0235  2.3695
 8905TIP3    H248131   3.521   0.683  12.833 -1.0314  1.2843 -0.9194
 8906TIP3   OH248132   0.093   4.678   4.899 -0.0082 -0.0896 -0.2440
 8906TIP3    H148133   0.186   4.659   4.885  0.3742  0.0930  1.7920
 8906TIP3    H248134   0.066   4.723   4.818  0.9757 -2.3914 -1.9782
 8907TIP3   OH248135   0.356   3.696   4.135  0.3129 -0.5103 -0.5345
 8907TIP3    H148136   0.300   3.720   4.208  0.7645 -0.8642 -0.0657
 8907TIP3    H248137   0.420   3.635   4.172 -0.0149 -1.4253 -1.4083
 8908TIP3   OH248138   3.095   3.781   5.153  0.3336  0.4913 -0.1268
 8908TIP3    H148139   3.053   3.864   5.130  1.4731  1.6440  1.6915
 8908TIP3    H248140   3.179   3.783   5.109 -0.1611 -0.3468 -1.1555
 8909TIP3   OH248141   5.316   4.289  14.669  0.3105  0.2511  0.4004
 8909TIP3    H148142   5.264   4.363  14.636 -0.0821  0.3427  1.2014
 8909TIP3    H248143   5.278   4.212  14.626  1.4755  0.6027 -1.3582
 8910TIP3   OH248144   2.485   4.976  15.787  0.4161  0.5684 -0.3845
 8910TIP3    H148145   2.535   5.054  15.810  1.4474 -0.0137 -0.6165
 8910TIP3    H248146   2.408   5.010  15.741  0.3644  1.4977  0.3592
 8911TIP3   OH248147   1.546   6.327  11.337  0.1751  0.0970 -0.0213
 8911TIP3    H148148   1.458   6.363  11.329  0.3094  0.5299  0.4086
 8911TIP3    H248149   1.581   6.367  11.416  1.3810  1.2753 -1.1032
 8912TIP3   OH248150   5.901   5.560   1.271  0.3394  0.1393  0.1526
 8912TIP3    H148151   5.989   5.573   1.234  0.5070  0.3349  0.6095
 8912TIP3    H248152   5.847   5.626   1.229 -0.0135 -1.1192 -1.4846
 8913TIP3   OH248153   5.788   4.535   5.356 -0.4343 -0.1320 -0.0623
 8913TIP3    H148154   5.858   4.501   5.412 -1.3282 -1.0968  0.4913
 8913TIP3    H248155   5.834   4.566   5.277  0.8039  0.9616  1.0330
 8914TIP3   OH248156   3.664   2.957   2.113  0.1077 -0.8409  0.1785
 8914TIP3    H148157   3.583   3.006   2.106 -0.4761 -1.6449  0.9909
 8914TIP3    H248158   3.659   2.914   2.199  2.7660  1.4960  1.6769
 8915TIP3   OH248159   0.829   4.904   4.731 -0.4864 -0.3131 -0.1075
 8915TIP3    H148160   0.747   4.954   4.732 -0.1738  0.2307  1.0752
 8915TIP3    H248161   0.844   4.883   4.639 -1.8337 -0.2251 -0.3665
 8916TIP3   OH248162   5.882   6.101  13.318 -0.8031 -0.0679  0.3901
 8916TIP3    H148163   5.863   6.026  13.374 -0.0626 -0.8646 -0.4035
 8916TIP3    H248164   5.797   6.125  13.280 -1.0012 -0.6676  0.4446
 8917TIP3   OH248165   5.650   6.546   1.597 -0.7164  0.1595  0.2644
 8917TIP3    H148166   5.636   6.553   1.503  1.0399 -2.0474 -0.2273
 8917TIP3    H248167   5.636   6.454   1.617 -0.9678  0.5660  2.1788
 8918TIP3   OH248168   3.214   2.024  13.826 -0.6871 -0.0571  0.0988
 8918TIP3    H148169   3.130   2.069  13.819 -0.9228 -0.3319  0.9923
 8918TIP3    H248170   3.193   1.932  13.810 -0.1820  0.1284 -1.8993
 8919TIP3   OH248171   3.177   2.103   0.117 -0.2166  0.2140  0.8908
 8919TIP3    H148172   3.086   2.093   0.146 -0.9963  0.1747 -1.4056
 8919TIP3    H248173   3.193   2.027   0.061  1.1228  0.4248  0.9682
 8920TIP3   OH248174   4.880   0.432   5.689  0.1646 -0.2167  0.3755
 8920TIP3    H148175   4.956   0.404   5.639 -0.1094 -1.8117  0.8082
 8920TIP3    H248176   4.821   0.468   5.623  0.3015 -1.2074 -0.3120
 8921TIP3   OH248177   4.956   1.719  11.710  0.2422 -0.7698  0.3162
 8921TIP3    H148178   4.990   1.792  11.762  1.9635 -1.5621  0.3711
 8921TIP3    H248179   4.943   1.755  11.623  0.7831 -0.3070  0.4229
 8922TIP3   OH248180   1.682   6.071   2.483 -0.4277  0.1442 -0.0928
 8922TIP3    H148181   1.675   6.122   2.564 -0.8046  1.6813 -1.0585
 8922TIP3    H248182   1.684   6.136   2.413 -2.0835 -1.1752 -1.4715
 8923TIP3   OH248183   3.224   6.041   5.014 -0.1386  0.0724 -0.6796
 8923TIP3    H148184   3.295   6.103   5.031  2.0074 -2.2266 -0.6576
 8923TIP3    H248185   3.192   6.066   4.927  1.4313  0.5390 -1.1647
 8924TIP3   OH248186   4.922   2.710  14.873 -0.3278 -0.0534  0.3436
 8924TIP3    H148187   4.863   2.687  14.944 -0.0655  0.3760  0.7110
 8924TIP3    H248188   4.974   2.783  14.908 -1.0172  0.9760 -0.7103
 8925TIP3   OH248189   6.097   2.182  16.598  0.4035 -0.2971 -0.0151
 8925TIP3    H148190   6.181   2.151  16.631  1.1782 -0.2047 -1.7735
 8925TIP3    H248191   6.112   2.273  16.574 -0.4997  0.0266  0.5892
 8926TIP3   OH248192   4.003   3.410  16.984 -0.4297  0.2590  0.5035
 8926TIP3    H148193   3.975   3.383  16.897 -2.5179  2.3610  0.4149
 8926TIP3    H248194   4.065   3.481  16.968 -0.3614  0.2492  0.7239
 8927TIP3   OH248195   1.864   0.032  13.737  0.4038 -0.4899 -0.0447
 8927TIP3    H148196   1.785   0.031  13.683  0.5670  1.5342 -0.3952
 8927TIP3    H248197   1.889   0.125  13.741  2.2016 -0.9762  0.8758
 8928TIP3   OH248198   5.390   3.817  16.411  0.1618 -0.2973  0.3457
 8928TIP3    H148199   5.367   3.855  16.327 -1.7512 -1.4582  0.2868
 8928TIP3    H248200   5.476   3.777  16.397  0.6014  0.9228 -0.5693
 8929TIP3   OH248201   4.783   6.386   4.330  0.4299 -0.1296 -0.0339
 8929TIP3    H148202   4.710   6.356   4.277  0.0618 -0.8728  0.8645
 8929TIP3    H248203   4.755   6.470   4.365  0.6772  0.3630 -1.0109
 8930TIP3   OH248204   5.124   4.665   1.257 -0.0185  0.0940  0.4762
 8930TIP3    H148205   5.188   4.625   1.198 -0.4592 -0.0910  0.1166
 8930TIP3    H248206   5.141   4.759   1.250 -1.5415  0.2865 -1.7504
 8931TIP3   OH248207   5.843   6.334  14.536 -0.0687 -0.6328 -0.3225
 8931TIP3    H148208   5.867   6.426  14.522 -0.2669 -0.7482 -1.5306
 8931TIP3    H248209   5.749   6.331  14.522 -0.4111 -0.6783  1.7286
 8932TIP3   OH248210   0.506   4.779  14.482 -0.4381 -0.7477 -0.0204
 8932TIP3    H148211   0.589   4.738  14.507  1.2369  2.0611 -0.6007
 8932TIP3    H248212   0.512   4.791  14.387 -0.1755  2.0132  0.2655
 8933TIP3   OH248213   3.677   0.812   5.326 -0.3327 -0.4901 -0.3857
 8933TIP3    H148214   3.638   0.894   5.357  0.7000  0.3542 -1.2210
 8933TIP3    H248215   3.608   0.770   5.275 -1.2585 -0.7328  1.0194
 8934TIP3   OH248216   3.886   2.710  12.199 -0.0115  0.8260  0.4876
 8934TIP3    H148217   3.825   2.763  12.148  1.6679  1.0470 -1.4362
 8934TIP3    H248218   3.830   2.652  12.251 -1.8674  0.9009 -1.3008
 8935TIP3   OH248219   4.209   4.929  11.144  0.4193 -0.0215  0.6726
 8935TIP3    H148220   4.187   4.851  11.093 -0.7660  0.0615  1.0322
 8935TIP3    H248221   4.219   4.999  11.078 -0.7209  0.0028  0.5127
 8936TIP3   OH248222   2.714   0.268  12.066  0.3251  0.4252 -0.4805
 8936TIP3    H148223   2.805   0.296  12.073  0.2340  0.4041  1.4555
 8936TIP3    H248224   2.717   0.189  12.012  1.0696  1.8978 -2.7207
 8937TIP3   OH248225   2.207   0.513  14.628 -0.1240 -0.1266 -0.3536
 8937TIP3    H148226   2.170   0.601  14.637 -0.8112 -0.3911 -0.4736
 8937TIP3    H248227   2.139   0.463  14.582  0.5902 -0.5157 -1.0079
 8938TIP3   OH248228   2.365   3.016   0.269  0.2017 -0.2699  0.4054
 8938TIP3    H148229   2.292   3.058   0.313 -0.4612 -0.1988 -0.7508
 8938TIP3    H248230   2.369   3.057   0.183  0.6964 -1.2746 -0.0669
 8939TIP3   OH248231   4.924   1.594   1.590 -0.1470  0.4378  0.1972
 8939TIP3    H148232   4.904   1.606   1.683 -0.9887  2.4861 -0.1787
 8939TIP3    H248233   5.018   1.613   1.583 -0.2153  0.9338  0.5541
 8940TIP3   OH248234   6.144   6.605   4.505 -0.7844 -0.1152  0.3174
 8940TIP3    H148235   6.225   6.610   4.454  0.3288  0.7571  2.0656
 8940TIP3    H248236   6.100   6.528   4.472  0.7918 -0.6443 -0.6693
 8941TIP3   OH248237   6.138   0.031   3.192 -0.0074 -0.2587 -0.4709
 8941TIP3    H148238   6.126   0.124   3.210 -0.5930 -0.9269  3.2713
 8941TIP3    H248239   6.052   0.002   3.160 -0.6233  0.0146  0.8793
 8942TIP3   OH248240   4.936   1.383  16.051 -0.0245  0.3141 -0.0749
 8942TIP3    H148241   4.990   1.436  15.993  0.5644 -0.1837  0.0048
 8942TIP3    H248242   4.932   1.433  16.133  1.9606 -0.5218  0.5878
 8943TIP3   OH248243   6.152   0.789   4.648 -0.0128  0.4356  0.2389
 8943TIP3    H148244   6.154   0.874   4.692  0.3200  0.5119  0.0812
 8943TIP3    H248245   6.123   0.728   4.715  1.2584  0.4177  0.7883
 8944TIP3   OH248246   0.425   4.607  12.202  0.1310 -0.7885 -0.9023
 8944TIP3    H148247   0.459   4.540  12.142 -1.9355 -1.9647 -0.8659
 8944TIP3    H248248   0.389   4.674  12.144  1.4727 -0.0605 -0.9348
 8945TIP3   OH248249   4.495   5.883  10.540  0.1448  0.1030  0.0398
 8945TIP3    H148250   4.423   5.873  10.603  0.2306 -1.1010 -0.0352
 8945TIP3    H248251   4.568   5.836  10.580  1.6741  3.1673  1.2187
 8946TIP3   OH248252   0.751   0.267  14.178  0.3304 -0.1301 -0.2320
 8946TIP3    H148253   0.739   0.312  14.094  1.4389  0.2008 -0.2233
 8946TIP3    H248254   0.678   0.298  14.232 -1.3937 -1.5887 -1.5429
 8947TIP3   OH248255   2.613   1.318  11.788  0.4146 -0.0295  0.2630
 8947TIP3    H148256   2.600   1.299  11.881  1.0040 -1.1552  0.1369
 8947TIP3    H248257   2.625   1.232  11.748 -2.1855  0.2375 -1.2514
 8948TIP3   OH248258   2.531   6.304  12.931 -0.0714  0.0387 -0.3039
 8948TIP3    H148259   2.579   6.246  12.872 -1.4923 -0.6746 -0.7992
 8948TIP3    H248260   2.558   6.277  13.019 -0.5909 -1.2760 -0.5326
 8949TIP3   OH248261   5.112   1.170   1.740  0.0023  0.1302 -0.1346
 8949TIP3    H148262   5.047   1.114   1.699 -0.3855 -0.1043  0.7752
 8949TIP3    H248263   5.074   1.195   1.824  0.7313  0.6777  0.0525
 8950TIP3   OH248264   0.501   2.333  14.728  0.3354 -0.4131 -0.5232
 8950TIP3    H148265   0.438   2.276  14.772  1.3682 -1.7800 -0.7451
 8950TIP3    H248266   0.451   2.376  14.659 -1.0392  0.8888  1.2142
 8951TIP3   OH248267   6.413   0.508   2.818  0.6113 -0.1694 -0.0576
 8951TIP3    H148268   6.353   0.447   2.861  1.3486 -1.2082 -0.4711
 8951TIP3    H248269   6.404   0.488   2.725 -0.3592  1.4920 -0.3575
 8952TIP3   OH248270   4.266   6.464  14.974  0.0142  0.9947  0.7207
 8952TIP3    H148271   4.289   6.441  14.884 -0.3527  1.9053  0.3899
 8952TIP3    H248272   4.314   6.545  14.991 -0.8885  1.5007  0.9123
 8953TIP3   OH248273   2.039   2.845   4.669 -0.2265  0.0875  0.6586
 8953TIP3    H148274   1.964   2.803   4.712  0.1399 -0.5606  0.6825
 8953TIP3    H248275   2.071   2.907   4.734 -1.0949  0.7991  0.4258
 8954TIP3   OH248276   3.150   6.699   5.797 -0.3435 -0.9722  0.2878
 8954TIP3    H148277   3.157   6.667   5.887 -1.0517 -0.1186  0.6615
 8954TIP3    H248278   3.221   6.763   5.788 -0.9081 -0.2902  0.5874
 8955TIP3   OH248279   0.251   5.411  16.143 -0.2030  0.2849 -0.7085
 8955TIP3    H148280   0.210   5.491  16.174  0.2224  0.1973  0.1185
 8955TIP3    H248281   0.341   5.416  16.175 -0.6389 -1.3267  0.9571
 8956TIP3   OH248282   3.543   5.283   4.566  0.4088 -0.6229 -0.3361
 8956TIP3    H148283   3.571   5.372   4.544 -2.1662  0.1011 -1.0794
 8956TIP3    H248284   3.539   5.282   4.662  2.8407 -0.8140 -0.1693
 8957TIP3   OH248285   0.459   4.105   3.430 -0.5580  0.5176 -0.3825
 8957TIP3    H148286   0.436   4.132   3.341 -0.5382  1.6284 -0.0664
 8957TIP3    H248287   0.530   4.043   3.418  0.3776  1.6778 -1.1182
 8958TIP3   OH248288   4.417   3.428  11.102  0.3018  0.2372 -0.0496
 8958TIP3    H148289   4.341   3.428  11.043 -0.0408 -0.3545  0.3797
 8958TIP3    H248290   4.493   3.432  11.043 -0.0674  1.3887 -0.4645
 8959TIP3   OH248291   3.863   2.084   5.538 -0.6168 -0.2273 -0.2628
 8959TIP3    H148292   3.838   2.058   5.626 -0.2457 -1.5586 -0.5241
 8959TIP3    H248293   3.870   2.180   5.541  0.1891 -0.3143  1.3576
 8960TIP3   OH248294   0.605   4.479   3.262  0.1450  0.3846 -0.3812
 8960TIP3    H148295   0.520   4.438   3.281 -0.0791  1.1732  0.4209
 8960TIP3    H248296   0.593   4.519   3.176 -0.1429  0.0812 -0.4842
 8961TIP3   OH248297   1.615   3.401   0.377  1.1218  0.4313 -0.4933
 8961TIP3    H148298   1.709   3.412   0.381  1.1828  0.3275 -1.4161
 8961TIP3    H248299   1.592   3.417   0.285  0.5090 -1.4237 -0.7248
 8962TIP3   OH248300   2.224   5.953   1.087 -0.7226 -0.6346  0.1172
 8962TIP3    H148301   2.260   5.979   1.002  1.1262  0.4671  1.1700
 8962TIP3    H248302   2.212   5.858   1.080  1.2102 -0.8766 -0.7844
 8963TIP3   OH248303   6.789   3.862   0.216  0.0132  0.8220  0.0239
 8963TIP3    H148304   6.699   3.869   0.248  0.1193 -0.2494  0.6162
 8963TIP3    H248305   6.833   3.806   0.281  0.3255 -1.1448 -1.7766
 8964TIP3   OH248306   2.007   4.940   2.225  0.2731 -0.0457 -0.6459
 8964TIP3    H148307   1.914   4.948   2.204 -0.0623 -1.9329 -0.1283
 8964TIP3    H248308   2.028   5.020   2.274 -0.9439  0.6300 -1.1939
 8965TIP3   OH248309   4.396   6.175  16.325 -0.0168  0.7630 -0.1586
 8965TIP3    H148310   4.374   6.239  16.393 -1.2173  0.6200 -0.3861
 8965TIP3    H248311   4.367   6.091  16.361  0.2780  0.5440 -0.4334
 8966TIP3   OH248312   5.247   2.914  13.093 -0.6263 -0.0567  0.2541
 8966TIP3    H148313   5.342   2.907  13.097 -0.6302  0.2858  0.9109
 8966TIP3    H248314   5.222   2.852  13.024  0.0283 -0.4963  0.4026
 8967TIP3   OH248315   6.465   5.558   3.704  0.5064  0.0973 -0.0600
 8967TIP3    H148316   6.372   5.582   3.704  0.2013 -1.0494 -0.2649
 8967TIP3    H248317   6.478   5.510   3.786 -0.1341 -3.5231 -1.9005
 8968TIP3   OH248318   1.065   5.436  10.901 -0.0824  0.1545  0.3712
 8968TIP3    H148319   1.106   5.391  10.975  0.1262  1.1788  0.8895
 8968TIP3    H248320   1.138   5.479  10.856 -0.0223 -1.4052 -1.1477
 8969TIP3   OH248321   5.777   4.419  10.670  0.1517  0.4223  0.1922
 8969TIP3    H148322   5.737   4.344  10.626  0.5129  0.9290 -1.0279
 8969TIP3    H248323   5.709   4.449  10.730  0.0318 -0.9182  0.7756
 8970TIP3   OH248324   5.327   4.173   4.802 -0.0904 -0.0024  0.1453
 8970TIP3    H148325   5.387   4.247   4.811  0.2465 -0.1831 -0.5284
 8970TIP3    H248326   5.265   4.183   4.874  0.4042  0.5106  0.5024
 8971TIP3   OH248327   4.115   4.796   2.060  0.2812 -0.1205  0.7550
 8971TIP3    H148328   4.095   4.719   2.006  0.5119  0.5625 -0.3517
 8971TIP3    H248329   4.030   4.835   2.078  0.2758  0.5592 -0.5588
 8972TIP3   OH248330   1.503   5.781   0.637  0.6713 -0.1102  0.4548
 8972TIP3    H148331   1.456   5.809   0.716  0.4598  0.4557  0.1253
 8972TIP3    H248332   1.435   5.747   0.579  0.9155 -1.2965  0.8320
 8973TIP3   OH248333   5.351   0.921  14.311  0.3541 -0.4740  0.6740
 8973TIP3    H148334   5.298   0.866  14.368 -0.1112 -0.9368 -0.1696
 8973TIP3    H248335   5.296   0.998  14.295 -1.2312 -1.9853 -2.1186
 8974TIP3   OH248336   5.838   0.203  12.965  0.1923 -0.1291 -0.2332
 8974TIP3    H148337   5.918   0.254  12.951  1.4798 -2.6152 -2.9518
 8974TIP3    H248338   5.816   0.217  13.057  4.3251 -0.1092  0.9315
 8975TIP3   OH248339   0.791   5.156   3.286  0.1616  0.0592 -0.5248
 8975TIP3    H148340   0.799   5.249   3.311  3.4812  0.2979 -1.9189
 8975TIP3    H248341   0.852   5.111   3.345  1.6934 -0.5666 -2.4941
 8976TIP3   OH248342   1.221   2.819  14.369 -0.4332  0.7515  0.0598
 8976TIP3    H148343   1.175   2.842  14.288  0.0023  1.0343 -0.1110
 8976TIP3    H248344   1.195   2.729  14.387  2.1075 -0.6216 -2.2945
 8977TIP3   OH248345   2.835   1.062  15.298  0.8034  0.6492  0.2795
 8977TIP3    H148346   2.758   1.011  15.321 -0.5985  1.5792 -1.9971
 8977TIP3    H248347   2.843   1.127  15.369 -1.7576  1.8022 -0.3806
 8978TIP3   OH248348   3.673   6.646  10.859  0.3535  0.3177  0.1799
 8978TIP3    H148349   3.732   6.715  10.829 -1.5542  0.9637 -2.4229
 8978TIP3    H248350   3.648   6.599  10.780 -1.2083 -1.1173  1.4379
 8979TIP3   OH248351   1.878   6.128  13.991  0.7328  0.1170 -0.3226
 8979TIP3    H148352   1.856   6.099  13.903 -0.1052  0.6366 -0.3016
 8979TIP3    H248353   1.816   6.081  14.047  0.0072  1.1818 -0.1982
 8980TIP3   OH248354   5.769   1.176   3.069  0.2243  0.3743 -0.0176
 8980TIP3    H148355   5.794   1.254   3.119 -0.4437 -1.0688  2.7369
 8980TIP3    H248356   5.674   1.169   3.080  0.5108 -1.9847  1.7137
 8981TIP3   OH248357   2.429   5.000  11.667  0.5723 -0.5482 -0.5483
 8981TIP3    H148358   2.373   5.078  11.663 -0.8635 -1.4172  0.8283
 8981TIP3    H248359   2.498   5.015  11.603 -1.1668  0.6714 -2.2360
 8982TIP3   OH248360   2.837   1.794   1.272  0.4946 -0.5153 -0.0446
 8982TIP3    H148361   2.773   1.808   1.342  0.3812  0.6369 -0.3585
 8982TIP3    H248362   2.787   1.750   1.203  0.7727 -2.3000  0.8354
 8983TIP3   OH248363   2.104   3.372  11.599  0.2594  0.5207 -0.0206
 8983TIP3    H148364   2.174   3.420  11.643  0.6934  0.3760 -0.5302
 8983TIP3    H248365   2.148   3.328  11.526  0.2120 -2.0660  1.3992
 8984TIP3   OH248366   2.425   2.826  14.103  0.3623  0.3685  0.1804
 8984TIP3    H148367   2.407   2.752  14.045  0.9705  0.9420 -0.7664
 8984TIP3    H248368   2.346   2.836  14.156 -0.5638  0.3888 -1.1774
 8985TIP3   OH248369   5.810   4.232  12.310 -0.3783  0.0866  0.2956
 8985TIP3    H148370   5.757   4.267  12.382  1.7241  1.1795  1.4141
 8985TIP3    H248371   5.824   4.140  12.334 -1.2565 -0.0531  0.2931
 8986TIP3   OH248372   5.675   5.496   0.250 -0.1391 -0.1114 -0.4273
 8986TIP3    H148373   5.723   5.479   0.169 -0.4210  1.4095 -0.9344
 8986TIP3    H248374   5.589   5.526   0.221 -0.8523 -1.2055  0.4681
 8987TIP3   OH248375   5.391   6.567  11.383  0.0703 -0.4764 -0.2329
 8987TIP3    H148376   5.438   6.651  11.379 -1.5106  0.4547  0.0697
 8987TIP3    H248377   5.336   6.574  11.461  1.2499 -2.5582  0.8470
 8988TIP3   OH248378   1.765   5.387  11.238  0.0753  0.6537 -0.0791
 8988TIP3    H148379   1.744   5.303  11.197  0.4985  1.6955 -2.6793
 8988TIP3    H248380   1.681   5.418  11.274 -0.2333 -0.5522  0.2603
 8989TIP3   OH248381   2.591   2.731   0.186 -0.0738 -0.1298  0.2824
 8989TIP3    H148382   2.623   2.795   0.123  1.7247 -1.6566 -0.4303
 8989TIP3    H248383   2.501   2.715   0.159 -0.8539  2.5540  0.9256
 8990TIP3   OH248384   2.810   4.659  11.855 -0.4887 -0.2398  0.4839
 8990TIP3    H148385   2.848   4.674  11.769 -0.4233 -1.3287  0.3079
 8990TIP3    H248386   2.819   4.743  11.900  2.2800 -0.4559  0.5120
 8991TIP3   OH248387   2.904   0.898  14.956  0.2478  0.2922  0.1476
 8991TIP3    H148388   2.846   0.919  15.029  0.0029  0.1565 -0.0108
 8991TIP3    H248389   2.862   0.826  14.911 -1.0679  2.1678 -1.8104
 8992TIP3   OH248390   1.718   1.250  17.142 -0.1978 -0.3347 -0.0233
 8992TIP3    H148391   1.710   1.201  17.060 -0.0805 -0.9522  0.3307
 8992TIP3    H248392   1.733   1.184  17.209  0.8108  0.2408  0.3472
 8993TIP3   OH248393   0.497   2.170   2.088  0.1245  0.1006 -0.2961
 8993TIP3    H148394   0.556   2.234   2.049  0.6580  1.1370  2.0703
 8993TIP3    H248395   0.440   2.221   2.145  0.9178 -1.5076  2.0852
 8994TIP3   OH248396   1.157   1.813   4.946 -0.1437 -0.6994 -1.0806
 8994TIP3    H148397   1.062   1.806   4.944 -0.0713 -1.6233 -1.8703
 8994TIP3    H248398   1.189   1.728   4.914  0.9392 -0.3100 -1.0989
 8995TIP3   OH248399   3.583   4.548  10.905  0.0866 -0.2909 -0.1345
 8995TIP3    H148400   3.605   4.457  10.887  1.5829 -0.1356  0.7428
 8995TIP3    H248401   3.493   4.558  10.873  0.2873 -1.7601 -1.2612
 8996TIP3   OH248402   2.194   2.844   1.149 -0.3100 -0.3598 -0.2825
 8996TIP3    H148403   2.143   2.776   1.105 -0.5790 -0.9263  0.8630
 8996TIP3    H248404   2.251   2.879   1.081 -1.8972 -0.0011 -1.5094
 8997TIP3   OH248405   2.105   0.286   4.865  0.8850  0.2223  0.2449
 8997TIP3    H148406   2.194   0.293   4.901  0.8667 -0.9569  0.5608
 8997TIP3    H248407   2.117   0.243   4.781  0.5124 -0.9668  0.7907
 8998TIP3   OH248408   6.754   5.872  16.895 -0.0350 -0.3051  0.2654
 8998TIP3    H148409   6.675   5.836  16.935 -1.0597  1.9058  0.3905
 8998TIP3    H248410   6.824   5.845  16.954 -0.4506 -3.1805 -0.3857
 8999TIP3   OH248411   4.865   4.632   2.978  0.1813 -0.0499  0.0836
 8999TIP3    H148412   4.939   4.606   2.922  0.3917  0.1384  0.2703
 8999TIP3    H248413   4.850   4.724   2.957 -1.2940 -0.5944 -1.3939
 9000TIP3   OH248414   5.564   4.560  16.177  0.3789 -0.2541 -0.5924
 9000TIP3    H148415   5.534   4.477  16.214  1.3648  0.5599  2.2347
 9000TIP3    H248416   5.653   4.541  16.146  0.6942 -0.2320  0.2665
 9001TIP3   OH248417   3.638   0.617  11.979 -0.5495 -0.0538 -0.0009
 9001TIP3    H148418   3.683   0.641  12.059  1.8701 -0.2241 -1.2064
 9001TIP3    H248419   3.659   0.524  11.966 -1.0995 -0.0911 -0.7167
 9002TIP3   OH248420   3.563   4.114   1.475  0.9574  0.0774  0.2419
 9002TIP3    H148421   3.570   4.145   1.566 -2.4519 -0.7390  0.9167
 9002TIP3    H248422   3.562   4.194   1.423 -2.1774  0.9863  1.4728
 9003TIP3   OH248423   2.458   5.865   3.727  0.6143 -0.1586  0.4094
 9003TIP3    H148424   2.474   5.869   3.821 -0.6744 -0.6126  0.6707
 9003TIP3    H248425   2.531   5.914   3.688  1.2695 -0.1267  1.6194
 9004TIP3   OH248426   4.688   5.000  15.403 -0.0400  0.1115 -0.1806
 9004TIP3    H148427   4.775   5.009  15.364 -0.1342 -2.3442 -1.1024
 9004TIP3    H248428   4.635   4.961  15.334 -2.1686  2.3634  0.0604
 9005TIP3   OH248429   4.900   3.653   1.362  0.6259  0.3701  0.0602
 9005TIP3    H148430   4.808   3.671   1.346  0.6393  0.2405 -0.1803
 9005TIP3    H248431   4.940   3.739   1.374  0.4227  0.4118  0.4622
 9006TIP3   OH248432   4.320   1.653  13.916  0.5343  0.1889  0.3475
 9006TIP3    H148433   4.364   1.682  13.996  1.8681  2.2376 -1.0405
 9006TIP3    H248434   4.390   1.640  13.853 -0.5717 -0.3103 -0.8197
 9007TIP3   OH248435   4.221   6.467   5.423 -0.5253 -0.7638  0.2197
 9007TIP3    H148436   4.228   6.446   5.516 -0.7938  0.4950  0.5554
 9007TIP3    H248437   4.138   6.514   5.417 -0.2393 -0.3519 -0.5557
 9008TIP3   OH248438   3.553   4.269   4.255 -0.0138  0.4941  0.6106
 9008TIP3    H148439   3.481   4.274   4.193 -0.2841  1.9210  1.0098
 9008TIP3    H248440   3.631   4.256   4.200 -0.5622 -1.3606  0.1991
 9009TIP3   OH248441   0.193   4.762  11.276 -0.1060  0.4620 -0.0377
 9009TIP3    H148442   0.143   4.708  11.215  1.0862  0.7403 -1.3165
 9009TIP3    H248443   0.265   4.707  11.304  1.3480  1.4315 -1.6624
 9010TIP3   OH248444   3.108   1.319   5.028  0.1982  0.5686 -0.7325
 9010TIP3    H148445   3.043   1.250   5.015 -1.4749  2.3105 -2.0977
 9010TIP3    H248446   3.061   1.401   5.012  2.3026  2.0174  0.0140
 9011TIP3   OH248447   6.329   0.262   1.435 -0.3993  0.7318 -0.2203
 9011TIP3    H148448   6.248   0.291   1.393  0.0198 -0.4392 -1.9350
 9011TIP3    H248449   6.385   0.340   1.438 -0.9274  1.1280 -0.6503
 9012TIP3   OH248450   0.462   0.570   2.880  0.6571  0.7709 -0.2068
 9012TIP3    H148451   0.540   0.553   2.933  0.0510 -1.6581  0.0593
 9012TIP3    H248452   0.464   0.501   2.814 -1.1282  0.8127 -0.3418
 9013TIP3   OH248453   3.377   3.197   3.881  0.0458 -0.3629  0.2223
 9013TIP3    H148454   3.309   3.130   3.893 -0.0870 -0.3441 -0.3920
 9013TIP3    H248455   3.385   3.206   3.786  0.1622  0.3923  0.2948
 9014TIP3   OH248456   5.106   3.208  16.991  0.3560  0.3719 -0.1071
 9014TIP3    H148457   5.127   3.243  17.077  0.8014  0.9583 -0.4431
 9014TIP3    H248458   5.061   3.125  17.008 -1.1350  1.3023  0.7364
 9015TIP3   OH248459   1.570   2.990  15.973  0.2004  0.2283  0.1467
 9015TIP3    H148460   1.657   2.953  15.958  0.5102  0.9645  0.0665
 9015TIP3    H248461   1.512   2.914  15.978  0.5137 -0.2048 -1.9376
 9016TIP3   OH248462   2.930   4.900  16.926 -0.2434  0.2743  0.4226
 9016TIP3    H148463   2.948   4.853  17.007 -0.4554  0.7878  0.7682
 9016TIP3    H248464   2.981   4.852  16.859 -1.5067 -1.2719  0.5033
 9017TIP3   OH248465   0.931   3.051   1.208 -0.2380  0.7998  0.0404
 9017TIP3    H148466   0.854   3.055   1.151  0.0646 -1.4234 -0.6236
 9017TIP3    H248467   0.899   3.007   1.287  0.0223  1.2248  0.3886
 9018TIP3   OH248468   2.698   1.130   5.474 -0.5740  0.6453 -0.4724
 9018TIP3    H148469   2.656   1.103   5.556  0.3287 -1.9058 -0.7734
 9018TIP3    H248470   2.730   1.219   5.492 -1.7341  0.7373  1.4010
 9019TIP3   OH248471   2.462   6.168  13.249 -0.0577 -0.1314  0.5150
 9019TIP3    H148472   2.436   6.259  13.240 -1.6354 -0.3697  1.9701
 9019TIP3    H248473   2.473   6.155  13.344  1.0836 -1.2256  0.2699
 9020TIP3   OH248474   3.648   2.786  14.380 -0.0058 -0.1736 -1.0352
 9020TIP3    H148475   3.630   2.736  14.301  2.8194 -1.5200 -0.9550
 9020TIP3    H248476   3.721   2.844  14.357 -0.5850  1.0269 -0.0043
 9021TIP3   OH248477   6.566   6.370   5.639 -0.0799 -0.6816  0.0615
 9021TIP3    H148478   6.629   6.378   5.710  0.2560  0.7961 -0.3683
 9021TIP3    H248479   6.523   6.455   5.635 -0.1490 -0.7561 -1.4516
 9022TIP3   OH248480   2.177   4.601  16.922  0.0502 -0.2953  0.0185
 9022TIP3    H148481   2.190   4.506  16.927 -1.7085 -0.6256 -1.1012
 9022TIP3    H248482   2.256   4.637  16.963  0.3538 -2.2281  1.2947
 9023TIP3   OH248483   5.242   4.951   3.778  0.3220 -0.4539  0.2740
 9023TIP3    H148484   5.197   4.963   3.862  1.1009  0.5701  0.5723
 9023TIP3    H248485   5.307   4.883   3.794  0.5608 -0.1630  0.5455
 9024TIP3   OH248486   3.697   6.552  11.358  0.0126  0.4372  0.1197
 9024TIP3    H148487   3.732   6.537  11.446 -0.6428  0.2205  0.3501
 9024TIP3    H248488   3.774   6.567  11.303  0.3968  1.0536  0.8221
 9025TIP3   OH248489   5.749   3.731  12.314 -0.2160  0.0430  0.3948
 9025TIP3    H148490   5.809   3.765  12.248 -0.5958 -2.1244 -1.1663
 9025TIP3    H248491   5.668   3.780  12.300 -0.5964 -1.0346 -1.4478
 9026TIP3   OH248492   5.688   1.254   6.441  0.1658 -0.2511  0.2399
 9026TIP3    H148493   5.614   1.215   6.487  1.1512 -2.1951  0.2618
 9026TIP3    H248494   5.725   1.183   6.389  0.2990  1.3652 -2.0686
 9027TIP3   OH248495   3.579   3.057  15.943 -0.3126 -0.1716  0.5390
 9027TIP3    H148496   3.523   3.011  15.881  1.2917  1.7326 -2.5384
 9027TIP3    H248497   3.528   3.134  15.968  0.1447  0.5928 -0.8014
 9028TIP3   OH248498   3.168   1.136  13.569 -0.0714  0.4947  0.3724
 9028TIP3    H148499   3.166   1.202  13.639  1.3964 -0.1902  1.0918
 9028TIP3    H248500   3.229   1.171  13.505 -0.4999  0.5513 -0.0134
 9029TIP3   OH248501   1.331   0.850  15.640  0.7703  0.5606 -0.3669
 9029TIP3    H148502   1.312   0.794  15.715  0.1258  2.8775  1.3030
 9029TIP3    H248503   1.304   0.798  15.564 -0.7847 -0.9789  1.1371
 9030TIP3   OH248504   4.703   4.017  15.732  0.1603  0.9082 -0.0186
 9030TIP3    H148505   4.629   4.034  15.673 -0.8577 -4.0066 -0.6041
 9030TIP3    H248506   4.667   4.033  15.820 -0.6486  1.3480 -0.4122
 9031TIP3   OH248507   2.400   3.645   2.648 -0.2880  0.2051  0.0130
 9031TIP3    H148508   2.352   3.712   2.599  0.4072  0.4611 -0.3252
 9031TIP3    H248509   2.441   3.591   2.581 -0.3853 -0.2242  0.2975
 9032TIP3   OH248510   4.204   4.991  12.630  0.1057  0.5392 -0.4067
 9032TIP3    H148511   4.289   4.951  12.609  0.3364  1.0569 -0.4833
 9032TIP3    H248512   4.195   4.979  12.725  0.3968  0.7334 -0.3540
 9033TIP3   OH248513   1.703   5.777   1.824 -0.4330  0.2145 -0.2429
 9033TIP3    H148514   1.683   5.780   1.917  1.7818 -3.7862  0.6022
 9033TIP3    H248515   1.622   5.748   1.782 -0.8518  0.0016  0.7015
 9034TIP3   OH248516   3.212   1.220   4.670  0.6451 -0.3556  0.0452
 9034TIP3    H148517   3.276   1.174   4.617  0.3051 -0.1266 -0.5793
 9034TIP3    H248518   3.222   1.312   4.645  0.9367 -0.1512  0.8692
 9035TIP3   OH248519   6.597   3.769   0.692  0.4562  0.0224 -0.1298
 9035TIP3    H148520   6.692   3.765   0.691  0.4077 -1.3867 -0.5504
 9035TIP3    H248521   6.577   3.860   0.670  1.7202  0.9928  2.3087
 9036TIP3   OH248522   4.116   4.928  14.708  0.4811 -0.2850 -1.0616
 9036TIP3    H148523   4.034   4.968  14.679  0.4240  0.3803 -0.0040
 9036TIP3    H248524   4.088   4.858  14.768  0.6474 -0.9217 -1.7057
 9037TIP3   OH248525   2.562   2.882  13.521  0.1937 -0.0575  0.8744
 9037TIP3    H148526   2.550   2.977  13.525  1.6204  0.2023 -0.4559
 9037TIP3    H248527   2.652   2.867  13.550  1.6096 -0.4980 -3.2028
 9038TIP3   OH248528   1.466   0.710  14.108  0.2458  0.5425  0.3157
 9038TIP3    H148529   1.425   0.735  14.026 -0.3767  0.9349  0.7380
 9038TIP3    H248530   1.402   0.733  14.175  0.4276 -0.4793  0.8636
 9039TIP3   OH248531   4.116   2.032   0.039  0.3483  0.1139 -0.0661
 9039TIP3    H148532   4.055   1.981   0.093  0.2789 -1.8613 -1.8562
 9039TIP3    H248533   4.061   2.097  -0.005 -0.5740 -1.5702 -1.5757
 9040TIP3   OH248534   5.533   4.084   3.638  0.6413  0.7412  0.4116
 9040TIP3    H148535   5.542   4.029   3.716  2.1255 -2.5165 -1.8332
 9040TIP3    H248536   5.453   4.053   3.596  1.8142 -0.2890 -1.1932
 9041TIP3   OH248537   4.190   2.093  11.261  0.0320  0.4997  0.2872
 9041TIP3    H148538   4.248   2.034  11.309  0.3744  0.1100 -0.5853
 9041TIP3    H248539   4.194   2.063  11.171 -2.2399 -0.1071  0.3284
 9042TIP3   OH248540   2.697   0.599   0.002  0.0330  0.2270  0.0270
 9042TIP3    H148541   2.681   0.690  -0.021  0.2952  0.3916  0.4831
 9042TIP3    H248542   2.690   0.597   0.098  1.8407  0.1365  0.1807
 9043TIP3   OH248543   1.723   1.610  12.526 -0.1246 -0.8634 -0.0502
 9043TIP3    H148544   1.738   1.703  12.544  0.5763 -1.4832  3.2933
 9043TIP3    H248545   1.627   1.601  12.529 -0.2249 -0.2030 -0.8781
 9044TIP3   OH248546   5.301   5.485   2.496 -0.4039  0.4700  0.6081
 9044TIP3    H148547   5.328   5.454   2.582  0.4388 -0.0044  0.1846
 9044TIP3    H248548   5.206   5.490   2.501 -0.3152  1.7680  2.0088
 9045TIP3   OH248549   5.508   3.107   0.857  0.2417 -0.3211  0.3303
 9045TIP3    H148550   5.432   3.146   0.814  0.3944  0.2418  0.5596
 9045TIP3    H248551   5.481   3.096   0.948 -1.5705 -5.2110 -0.4806
 9046TIP3   OH248552   2.532   0.591   3.954 -0.0455 -0.0051 -0.5206
 9046TIP3    H148553   2.586   0.527   4.000 -0.1574  0.7934  0.7718
 9046TIP3    H248554   2.533   0.563   3.862  2.4760 -0.0746 -0.5194
 9047TIP3   OH248555   6.685   2.186   0.817 -0.1225  0.2858 -0.2115
 9047TIP3    H148556   6.667   2.132   0.895 -1.8526  1.3180  0.1583
 9047TIP3    H248557   6.718   2.123   0.752 -0.2971 -0.8944  0.7963
 9048TIP3   OH248558   4.250   3.965  16.371  0.1191  0.6499  0.0933
 9048TIP3    H148559   4.321   3.970  16.435 -0.4623 -1.0899  0.9355
 9048TIP3    H248560   4.195   4.041  16.391  1.0288  1.2679  0.2971
 9049TIP3   OH248561   5.115   0.870  12.275 -0.5187  0.1894 -0.0906
 9049TIP3    H148562   5.090   0.813  12.347  0.4658  1.1614  1.0767
 9049TIP3    H248563   5.032   0.905  12.241 -1.0196 -0.6706  0.2307
 9050TIP3   OH248564   4.936   1.043   1.044 -0.1215  0.2374  0.1633
 9050TIP3    H148565   4.969   1.104   0.978 -1.0872  0.6705  0.0679
 9050TIP3    H248566   4.841   1.053   1.041 -0.3170 -1.3999  0.0331
 9051TIP3   OH248567   0.365   5.837  13.248  0.1949  0.0542 -0.0524
 9051TIP3    H148568   0.284   5.848  13.199  1.0673  4.0161 -0.9241
 9051TIP3    H248569   0.433   5.833  13.182  1.0788  1.8477  0.6792
 9052TIP3   OH248570   3.645   1.830  12.125 -0.2050  0.0637 -0.2301
 9052TIP3    H148571   3.660   1.925  12.130  3.6264 -0.4150  4.3538
 9052TIP3    H248572   3.573   1.814  12.186 -1.1738 -0.0347 -1.3612
 9053TIP3   OH248573   6.198   1.910   1.915 -0.2409 -0.2958 -0.3023
 9053TIP3    H148574   6.109   1.941   1.902 -1.1603 -3.4887 -3.2417
 9053TIP3    H248575   6.251   1.963   1.856 -0.1373  1.4566  1.2842
 9054TIP3   OH248576   3.130   1.057  16.656 -0.2587  0.0832 -0.2970
 9054TIP3    H148577   3.078   1.068  16.735  2.1664  0.6447  1.3500
 9054TIP3    H248578   3.145   0.963  16.649 -0.4640  0.0361 -0.0941
 9055TIP3   OH248579   4.869   5.617  16.813  0.5724  0.5042  0.2776
 9055TIP3    H148580   4.866   5.564  16.893  2.8747  0.7928  0.6364
 9055TIP3    H248581   4.886   5.554  16.743  0.3922  0.4577  0.2744
 9056TIP3   OH248582   2.021   1.059   3.867 -0.1876 -0.0375  0.9958
 9056TIP3    H148583   1.964   0.996   3.910  0.2839 -0.4300  1.0534
 9056TIP3    H248584   1.964   1.132   3.845 -0.8862 -0.7668  0.3206
 9057TIP3   OH248585   5.905   1.951  12.025 -0.2824  0.1723 -0.0588
 9057TIP3    H148586   5.876   1.863  11.998  0.4315  0.2196 -1.0368
 9057TIP3    H248587   5.850   2.011  11.975  0.3894  0.2687 -0.6909
 9058TIP3   OH248588   3.055   2.328   2.484  0.5355 -0.5029  0.1113
 9058TIP3    H148589   3.105   2.381   2.546  0.6361  0.1980 -0.5650
 9058TIP3    H248590   3.117   2.261   2.454  1.0127  0.2110 -0.5348
 9059TIP3   OH248591   0.517   3.484  11.979  0.5432  0.0780 -0.1680
 9059TIP3    H148592   0.461   3.425  12.030 -0.9226  1.5034 -0.0601
 9059TIP3    H248593   0.508   3.453  11.889  0.4482 -0.3658 -0.0111
 9060TIP3   OH248594   5.607   0.314  12.299  0.3160 -0.1728 -0.0902
 9060TIP3    H148595   5.559   0.259  12.361 -1.5014 -0.2696 -1.5124
 9060TIP3    H248596   5.681   0.348  12.350  0.2475 -2.1310  1.4469
 9061TIP3   OH248597   6.713   1.273   5.626 -0.0033  0.0943  0.2891
 9061TIP3    H148598   6.623   1.241   5.624 -0.5399  1.3382  2.1928
 9061TIP3    H248599   6.715   1.336   5.698  2.4694 -0.1188  0.5050
 9062TIP3   OH248600   4.126   6.223  12.383  0.4292  0.3931  0.0888
 9062TIP3    H148601   4.045   6.274  12.387  1.3130  1.8142  1.8016
 9062TIP3    H248602   4.167   6.237  12.469  1.1149 -2.6727  0.3849
 9063TIP3   OH248603   5.172   3.865   0.065  0.6443 -0.0705 -0.4071
 9063TIP3    H148604   5.129   3.940   0.107  2.3600  0.5166  0.3900
 9063TIP3    H248605   5.134   3.861  -0.023  0.3189  1.5766 -0.3642
 9064TIP3   OH248606   1.045   6.412  11.337 -0.2131 -0.0192 -0.6589
 9064TIP3    H148607   1.057   6.334  11.391 -0.2910  0.1998 -0.3229
 9064TIP3    H248608   0.957   6.403  11.300 -0.9499  0.7928  0.8328
 9065TIP3   OH248609   6.367   3.137  16.084 -0.0587  0.5434 -0.5015
 9065TIP3    H148610   6.442   3.098  16.040  0.4958  0.6693  0.3210
 9065TIP3    H248611   6.299   3.139  16.017  1.1088  1.8093 -1.7302
 9066TIP3   OH248612   3.459   2.563  15.688 -0.1435  0.2554 -0.2853
 9066TIP3    H148613   3.364   2.556  15.673  0.1909 -2.6892 -1.9062
 9066TIP3    H248614   3.467   2.607  15.772 -2.9531  0.3200  0.0536
 9067TIP3   OH248615   3.797   3.613  11.832 -0.6630  0.9908  0.1290
 9067TIP3    H148616   3.884   3.577  11.816 -0.5281  0.7824  1.2010
 9067TIP3    H248617   3.800   3.642  11.924 -2.6019 -1.6790  1.1843
 9068TIP3   OH248618   4.651   5.664   4.781 -0.3640  0.0916  0.0679
 9068TIP3    H148619   4.623   5.575   4.803  0.6603 -0.2498  0.0493
 9068TIP3    H248620   4.685   5.657   4.691 -1.9855  0.8982 -0.6409
 9069TIP3   OH248621   6.612   5.994   5.190 -0.3443  0.1558 -0.6928
 9069TIP3    H148622   6.676   6.050   5.234  0.9971 -0.8636 -1.2729
 9069TIP3    H248623   6.585   6.045   5.113  1.1627 -0.0859 -1.4352
 9070TIP3   OH248624   6.072   6.736  15.805  0.4503 -0.2974 -0.4092
 9070TIP3    H148625   5.981   6.715  15.825 -0.3107 -0.0557 -3.1980
 9070TIP3    H248626   6.102   6.789  15.880 -1.2963 -1.3312  1.0881
 9071TIP3   OH248627   1.352   5.976   0.259  0.2117 -0.6416  0.1613
 9071TIP3    H148628   1.340   5.980   0.164 -0.5224  0.0542  0.2783
 9071TIP3    H248629   1.439   6.012   0.274 -0.1793  0.4555 -0.1470
 9072TIP3   OH248630   4.069   2.659  16.388 -0.3484 -0.1641  0.2020
 9072TIP3    H148631   3.973   2.654  16.390 -0.5386  2.2206  1.3338
 9072TIP3    H248632   4.088   2.752  16.404  2.1754 -0.6908  0.7010
 9073TIP3   OH248633   5.127   0.119   5.090  0.0591 -0.1424 -0.7230
 9073TIP3    H148634   5.220   0.100   5.073 -0.0242 -0.9052 -0.3472
 9073TIP3    H248635   5.113   0.204   5.048  0.8587 -0.1442 -1.0261
 9074TIP3   OH248636   1.553   6.063  16.670  0.4387 -0.6294  0.2843
 9074TIP3    H148637   1.484   6.029  16.726  0.3542 -0.0897  0.5121
 9074TIP3    H248638   1.606   5.987  16.648  1.5879 -0.5609  2.6231
 9075TIP3   OH248639   4.990   0.804   3.183  0.4203 -0.2439  0.0473
 9075TIP3    H148640   5.034   0.785   3.100 -0.9729  0.3298 -0.8690
 9075TIP3    H248641   4.922   0.736   3.190  0.3572 -0.1296  0.5775
 9076TIP3   OH248642   5.545   1.083  13.935  0.2715  1.0424  0.0514
 9076TIP3    H148643   5.598   1.085  14.015  0.6109  2.2328 -0.1782
 9076TIP3    H248644   5.583   1.151  13.880  0.7852 -0.5368 -1.6183
 9077TIP3   OH248645   1.866   4.911  10.738 -1.1537  0.4854  0.3378
 9077TIP3    H148646   1.891   4.998  10.707  0.8824  0.4456  1.6880
 9077TIP3    H248647   1.874   4.854  10.661  1.6568  0.7711  0.3174
 9078TIP3   OH248648   3.298   3.441   1.920 -0.3686  0.2908 -0.1282
 9078TIP3    H148649   3.349   3.370   1.959  1.5250 -0.3227 -3.3859
 9078TIP3    H248650   3.343   3.521   1.948  0.2769 -0.0588 -0.1527
 9079TIP3   OH248651   6.599   2.913  12.747 -0.0630 -0.3007  0.1177
 9079TIP3    H148652   6.506   2.934  12.735 -0.2702 -0.5855  1.0877
 9079TIP3    H248653   6.635   2.912  12.659 -0.8377  0.4800 -0.2218
 9080TIP3   OH248654   0.835   3.773  12.890  0.0251  0.2007 -0.3621
 9080TIP3    H148655   0.791   3.802  12.810  0.9057 -0.6117 -1.1619
 9080TIP3    H248656   0.926   3.802  12.880  0.1385  0.1255  0.3683
 9081TIP3   OH248657   1.347   5.743   3.840 -0.1387  0.8170 -0.2190
 9081TIP3    H148658   1.408   5.777   3.906 -1.4561  1.5644  0.6649
 9081TIP3    H248659   1.261   5.762   3.876 -0.8986  0.8186 -1.9710
 9082TIP3   OH248660   4.253   1.616  16.371  0.8315 -0.0498  0.0884
 9082TIP3    H148661   4.199   1.659  16.305 -1.2093  0.7978  2.1537
 9082TIP3    H248662   4.221   1.526  16.373  0.3572  0.1260  0.4499
 9083TIP3   OH248663   4.639   5.218   0.660  0.0445 -0.1897 -0.1490
 9083TIP3    H148664   4.672   5.298   0.702 -0.0255  0.7117 -1.7596
 9083TIP3    H248665   4.666   5.226   0.569 -0.2913 -1.8509 -0.4198
 9084TIP3   OH248666   5.433   2.690   5.470  0.1685  0.3440 -0.0216
 9084TIP3    H148667   5.489   2.614   5.449 -1.5060 -1.4943  1.7620
 9084TIP3    H248668   5.348   2.652   5.491 -1.4492  2.9538 -1.3607
 9085TIP3   OH248669   1.135   6.385   4.406 -0.8920  0.0874  0.1262
 9085TIP3    H148670   1.199   6.347   4.346  1.0133 -0.4489  2.3557
 9085TIP3    H248671   1.145   6.479   4.394 -0.5476 -0.0093 -0.4032
 9086TIP3   OH248672   3.873   5.801   3.837  0.0187 -0.3893  0.0491
 9086TIP3    H148673   3.945   5.819   3.897  0.1513  0.6012 -0.3899
 9086TIP3    H248674   3.911   5.744   3.770 -0.1693 -1.6241  0.9516
 9087TIP3   OH248675   2.513   0.976   0.632 -0.2102  0.1190  0.3437
 9087TIP3    H148676   2.420   0.991   0.647 -0.0924  0.0631  1.1409
 9087TIP3    H248677   2.537   1.041   0.565 -0.5833  0.8476  0.9073
 9088TIP3   OH248678   3.374   5.122   5.980 -0.3054 -0.0671  0.1635
 9088TIP3    H148679   3.320   5.176   6.036  1.0569  0.7812  0.7174
 9088TIP3    H248680   3.462   5.160   5.987 -0.0048 -0.1479 -2.2476
 9089TIP3   OH248681   0.049   3.749  17.154 -0.3361 -0.2719  0.3153
 9089TIP3    H148682   0.020   3.794  17.233  0.2743 -1.0778  1.0120
 9089TIP3    H248683   0.061   3.658  17.181  2.5201 -0.0565  0.0345
 9090TIP3   OH248684   2.569   5.842  15.400  0.0137 -0.0897  0.2710
 9090TIP3    H148685   2.632   5.784  15.444 -0.1978  0.8207  1.8473
 9090TIP3    H248686   2.496   5.785  15.377  1.1772 -1.0750 -1.1649
 9091TIP3   OH248687   2.543   4.377  13.891 -0.1803  0.0023  0.2988
 9091TIP3    H148688   2.597   4.455  13.879 -0.0235 -0.2805 -1.0192
 9091TIP3    H248689   2.504   4.362  13.805 -0.5479 -1.1287  0.6442
 9092TIP3   OH248690   2.144   1.388   4.627  0.3789 -0.7284 -0.4456
 9092TIP3    H148691   2.157   1.338   4.546  0.0375 -1.8713  0.1782
 9092TIP3    H248692   2.118   1.475   4.597  0.4544 -1.0680 -1.5727
 9093TIP3   OH248693   4.914   0.501   3.902 -0.6189  0.0149 -0.1079
 9093TIP3    H148694   4.926   0.580   3.849 -1.3625 -1.1176 -2.1080
 9093TIP3    H248695   4.995   0.452   3.890  0.4524  1.0498  2.3189
 9094TIP3   OH248696   4.138   6.432  16.945  0.0958 -0.5192 -0.5844
 9094TIP3    H148697   4.188   6.513  16.934  1.4086 -0.8612  2.0708
 9094TIP3    H248698   4.200   6.371  16.986 -1.9711 -1.5161  1.2831
 9095TIP3   OH248699   0.261   3.996  14.021 -0.9024  0.1497  0.0607
 9095TIP3    H148700   0.254   3.900  14.025 -1.7209  0.2228  0.7186
 9095TIP3    H248701   0.336   4.012  13.965 -0.2045 -0.8957  0.6500
 9096TIP3   OH248702   5.867   1.098  11.907  0.8989 -0.2030  0.2016
 9096TIP3    H148703   5.950   1.064  11.874  0.6107 -1.0554  0.3264
 9096TIP3    H248704   5.891   1.180  11.952  1.4654  0.3035 -0.9767
 9097TIP3   OH248705   2.288   2.948  16.017  0.3160 -0.7711  0.2765
 9097TIP3    H148706   2.210   3.001  16.000  0.9593  0.2142  0.3243
 9097TIP3    H248707   2.301   2.898  15.937 -1.0202 -1.8169  0.6775
 9098TIP3   OH248708   2.091   1.675  11.071 -0.3276  0.2732 -0.5188
 9098TIP3    H148709   2.015   1.679  11.130 -1.6706 -1.8436 -1.9660
 9098TIP3    H248710   2.095   1.584  11.043  1.3977  0.8126 -2.2627
 9099TIP3   OH248711   4.633   4.717   0.230  0.2863 -0.4729 -0.5184
 9099TIP3    H148712   4.569   4.788   0.238 -0.7515 -1.5810  3.2823
 9099TIP3    H248713   4.709   4.756   0.187 -0.4490  2.7994  0.9153
 9100TIP3   OH248714   6.371   5.357   5.545 -0.4637  0.1987  0.0846
 9100TIP3    H148715   6.309   5.377   5.476  0.9002 -2.0634 -1.9659
 9100TIP3    H248716   6.327   5.382   5.626 -3.2228  0.4809 -1.4104
 9101TIP3   OH248717   4.704   0.806  15.119  0.2917  0.0588  0.4176
 9101TIP3    H148718   4.636   0.825  15.055  0.1638  0.2092  0.5999
 9101TIP3    H248719   4.758   0.739  15.077  0.7417  0.8041 -0.2128
 9102TIP3   OH248720   4.174   3.762  13.690 -0.3637 -0.0276  0.5253
 9102TIP3    H148721   4.091   3.738  13.731 -0.5582 -1.6312 -0.7451
 9102TIP3    H248722   4.154   3.843  13.642 -0.9681  0.0435  0.8803
 9103TIP3   OH248723   2.983   3.297   0.510 -0.3369 -0.8466 -0.4100
 9103TIP3    H148724   2.889   3.282   0.506 -0.0788 -2.8638  0.1041
 9103TIP3    H248725   3.022   3.213   0.485  1.3337 -0.0661 -0.5770
 9104TIP3   OH248726   5.769   5.759   0.292  0.1596  0.1779  0.4577
 9104TIP3    H148727   5.754   5.666   0.273 -0.9026  0.3571  0.3632
 9104TIP3    H248728   5.852   5.779   0.249 -0.4018 -0.3304 -0.9382
 9105TIP3   OH248729   6.468   6.256   4.029 -0.3481 -0.8418  0.0345
 9105TIP3    H148730   6.411   6.283   4.100 -1.2391  0.0345 -0.9741
 9105TIP3    H248731   6.478   6.162   4.041 -0.8600 -0.7803  1.0382
 9106TIP3   OH248732   4.708   6.502  13.213 -0.4906 -0.2075 -1.0551
 9106TIP3    H148733   4.642   6.457  13.161 -0.6412 -0.8643 -0.3050
 9106TIP3    H248734   4.662   6.578  13.250 -0.6125 -0.2236 -1.1737
 9107TIP3   OH248735   3.390   5.179  13.862 -0.3227 -0.4701  0.2159
 9107TIP3    H148736   3.307   5.226  13.855  0.2609  1.0891  2.6404
 9107TIP3    H248737   3.406   5.172  13.956  2.0222 -1.2262 -0.1679
 9108TIP3   OH248738   6.446   4.875  13.121  0.0766  0.7139  0.5259
 9108TIP3    H148739   6.369   4.932  13.130 -0.6691 -0.1500 -0.1249
 9108TIP3    H248740   6.507   4.926  13.068 -0.6684  0.8421 -0.2359
 9109TIP3   OH248741   2.295   0.056  13.983  0.0801  0.4886 -0.9762
 9109TIP3    H148742   2.247   0.139  13.979  0.1542  0.5612 -0.3480
 9109TIP3    H248743   2.386   0.081  13.999 -0.0427  0.2497  0.1456
 9110TIP3   OH248744   1.452   3.128  12.572 -0.2144  0.5428  0.2519
 9110TIP3    H148745   1.409   3.070  12.510 -0.8672  1.6077 -0.3293
 9110TIP3    H248746   1.380   3.163  12.626  0.0899  1.2268  0.2281
 9111TIP3   OH248747   6.004   4.251   1.546  0.2467  0.3285 -0.3793
 9111TIP3    H148748   6.020   4.306   1.469  0.2874 -0.0728 -0.6643
 9111TIP3    H248749   6.081   4.194   1.552 -0.8196 -1.3423 -1.5333
 9112TIP3   OH248750   2.940   4.285   2.175 -0.4560  0.3423 -0.6387
 9112TIP3    H148751   2.901   4.199   2.191 -0.0102  0.1595 -0.5263
 9112TIP3    H248752   2.993   4.273   2.096 -2.2049  1.0973 -1.9986
 9113TIP3   OH248753   5.576   4.629  10.345 -0.0408 -0.7681  0.3986
 9113TIP3    H148754   5.553   4.701  10.286  0.7616 -1.0931 -0.3330
 9113TIP3    H248755   5.504   4.626  10.408 -0.6117 -0.0157 -0.1944
 9114TIP3   OH248756   5.780   4.169  16.033  0.3350  0.2226 -0.1078
 9114TIP3    H148757   5.876   4.172  16.030  0.3134  0.2213 -1.1501
 9114TIP3    H248758   5.758   4.083  15.998 -0.0333 -0.1824  1.0593
 9115TIP3   OH248759   2.062   6.390   1.605  0.9198  0.2930 -0.4263
 9115TIP3    H148760   2.124   6.462   1.588  0.9268  0.3682 -0.0833
 9115TIP3    H248761   2.110   6.311   1.582  0.5544  0.4574 -1.8445
 9116TIP3   OH248762   6.805   3.135  14.175  0.1238 -0.4201  0.5703
 9116TIP3    H148763   6.775   3.215  14.218 -0.8834 -0.1487 -0.6026
 9116TIP3    H248764   6.754   3.065  14.215 -0.1266 -0.2895  0.4760
 9117TIP3   OH248765   1.521   6.481   2.528  0.1883  0.0814 -0.0321
 9117TIP3    H148766   1.578   6.464   2.603 -0.3850 -1.1864  0.1419
 9117TIP3    H248767   1.443   6.521   2.565 -0.6151 -1.6533  0.2515
 9118TIP3   OH248768   2.505   4.078  10.927 -0.0472  0.6774  0.5661
 9118TIP3    H148769   2.512   4.009  10.994  1.6640  1.2907  1.0739
 9118TIP3    H248770   2.569   4.053  10.861 -1.5630  0.2041 -0.7965
 9119TIP3   OH248771   0.643   6.007   5.388 -0.6637 -0.2910 -0.3032
 9119TIP3    H148772   0.565   6.014   5.332 -0.4665 -1.6706 -0.7717
 9119TIP3    H248773   0.707   5.959   5.335  0.1383 -0.1185  0.4805
 9120TIP3   OH248774   0.169   1.029   1.101  0.2335  0.0862 -0.3765
 9120TIP3    H148775   0.257   0.991   1.092  0.1121 -0.6142  1.2239
 9120TIP3    H248776   0.114   0.958   1.132 -0.7464  0.7202 -0.6121
 9121TIP3   OH248777   1.954   4.018  10.225  0.0963 -0.0031  0.1088
 9121TIP3    H148778   1.918   4.010  10.137 -0.4696 -0.7021  0.3983
 9121TIP3    H248779   1.884   4.058  10.276 -0.5649 -1.9699  0.8271
 9122TIP3   OH248780   4.155   5.799   4.938 -0.1959 -0.3215 -0.4908
 9122TIP3    H148781   4.074   5.849   4.939  0.3587  0.6301  1.8202
 9122TIP3    H248782   4.224   5.864   4.925  0.2868 -0.9986 -1.4392
 9123TIP3   OH248783   4.094   0.748   5.846 -0.1400 -0.1990  0.1333
 9123TIP3    H148784   4.139   0.831   5.863  0.6681 -0.8904  1.5935
 9123TIP3    H248785   4.012   0.774   5.806  0.5478  1.2473 -0.4392
 9124TIP3   OH248786   5.315   0.654  13.701 -0.0597  0.1637 -0.1116
 9124TIP3    H148787   5.257   0.578  13.712 -0.9162  0.8561  0.3537
 9124TIP3    H248788   5.305   0.703  13.783  2.2694 -0.3932  0.5615
 9125TIP3   OH248789   3.774   5.891  10.778  0.1429 -0.1219 -0.1903
 9125TIP3    H148790   3.837   5.851  10.717  1.2279 -0.4111  1.0901
 9125TIP3    H248791   3.784   5.841  10.859 -1.8129 -0.2323  0.0422
 9126TIP3   OH248792   1.568   2.287   3.761  0.3317  0.0355 -0.2370
 9126TIP3    H148793   1.657   2.262   3.737  0.4032  0.2381 -0.1834
 9126TIP3    H248794   1.557   2.255   3.850  0.4864  0.3555 -0.1025
 9127TIP3   OH248795   1.069   3.620  10.580  0.2921 -0.5099  0.2967
 9127TIP3    H148796   1.080   3.682  10.508 -0.6859 -1.2310 -0.5115
 9127TIP3    H248797   1.125   3.546  10.556 -0.2078 -0.8471  0.1512
 9128TIP3   OH248798   2.704   6.446  16.245 -0.4013  0.5340  0.2697
 9128TIP3    H148799   2.689   6.460  16.338  0.0617 -0.7569  0.5540
 9128TIP3    H248800   2.621   6.470  16.203 -1.4701 -1.2064  1.2691
 9129TIP3   OH248801   0.866   2.879   1.414 -0.1577  0.1428 -0.2539
 9129TIP3    H148802   0.811   2.814   1.458  0.7180 -1.7527 -1.8157
 9129TIP3    H248803   0.945   2.882   1.467  0.0367 -0.5402 -0.4933
 9130TIP3   OH248804   5.619   5.457  15.396 -0.0750  0.5986  0.0521
 9130TIP3    H148805   5.663   5.537  15.425 -0.0581  0.2792  0.9162
 9130TIP3    H248806   5.559   5.487  15.327 -0.4121  1.4331  0.6931
 9131TIP3   OH248807   1.948   1.388  15.923  0.4310 -0.3814  0.2196
 9131TIP3    H148808   1.883   1.384  15.993  0.8282 -0.7513  0.5747
 9131TIP3    H248809   2.009   1.456  15.951 -1.5655  2.4390 -1.6887
 9132TIP3   OH248810   3.219   5.549   6.101 -0.3518  0.8649 -0.3278
 9132TIP3    H148811   3.295   5.594   6.064  0.5876  2.3986  3.0726
 9132TIP3    H248812   3.252   5.462   6.126 -1.0101 -0.2068 -2.8656
 9133TIP3   OH248813   5.556   6.257  13.697  0.3059  0.2895 -0.3310
 9133TIP3    H148814   5.569   6.221  13.785 -0.0889  0.0666 -0.3624
 9133TIP3    H248815   5.641   6.296  13.674  0.6826 -0.4368 -0.2101
 9134TIP3   OH248816   0.410   5.185   0.464 -0.5191  0.3418 -0.4362
 9134TIP3    H148817   0.432   5.181   0.557 -2.2602 -1.9513 -0.0186
 9134TIP3    H248818   0.356   5.107   0.449 -0.0281  0.4624 -3.4625
 9135TIP3   OH248819   4.738   2.070   0.605  0.3896 -0.1962 -0.7673
 9135TIP3    H148820   4.722   2.135   0.536 -1.2903  1.3629  1.0051
 9135TIP3    H248821   4.678   1.998   0.585  0.8383 -0.3515 -1.6179
 9136TIP3   OH248822   1.067   3.589  15.102 -0.4335  0.8776 -0.3521
 9136TIP3    H148823   1.023   3.615  15.183 -0.0098  0.8718 -0.1166
 9136TIP3    H248824   1.028   3.504  15.080  0.4905  0.1576  0.6643
 9137TIP3   OH248825   3.675   5.366   0.977  0.0888  0.7020 -0.0398
 9137TIP3    H148826   3.603   5.425   0.954  0.4718  1.2264  0.0684
 9137TIP3    H248827   3.724   5.356   0.896  0.2838  0.9106  0.0489
 9138TIP3   OH248828   6.642   0.472   4.717  0.0419 -0.3637  0.0712
 9138TIP3    H148829   6.716   0.494   4.661  0.0161 -0.3466  0.0431
 9138TIP3    H248830   6.649   0.377   4.729  0.9074 -0.1717  1.2794
 9139TIP3   OH248831   1.206   6.362   2.061  0.0062  0.5475  0.3761
 9139TIP3    H148832   1.249   6.386   1.979 -0.8117  0.0089 -0.2159
 9139TIP3    H248833   1.203   6.443   2.111  3.3037  0.2964  1.2126
 9140TIP3   OH248834   0.128   1.578   5.463  0.2927 -0.4495 -0.0642
 9140TIP3    H148835   0.123   1.516   5.390 -0.9730 -1.0009  0.4597
 9140TIP3    H248836   0.099   1.528   5.539 -0.6386  0.7515  0.3947
 9141TIP3   OH248837   6.146   6.387   1.015  0.0728  0.0020  0.4604
 9141TIP3    H148838   6.054   6.379   0.989 -0.5631 -0.9413  2.7786
 9141TIP3    H248839   6.185   6.304   0.989  0.7244  0.9771 -1.9294
 9142TIP3   OH248840   0.700   1.561  13.546 -0.4028  0.4525 -0.1648
 9142TIP3    H148841   0.691   1.555  13.641 -0.3118  0.1934 -0.1708
 9142TIP3    H248842   0.774   1.503  13.526 -0.5652  0.3326 -0.4142
 9143TIP3   OH248843   1.459   1.590  13.056 -0.1616  0.2649  0.0194
 9143TIP3    H148844   1.554   1.586  13.066 -0.3390  0.9205  2.3627
 9143TIP3    H248845   1.427   1.510  13.096 -0.7129  1.1908  1.4930
 9144TIP3   OH248846   5.839   1.806  12.319 -0.2428  0.4270 -0.6721
 9144TIP3    H148847   5.932   1.820  12.333 -0.2192  0.9501 -1.2988
 9144TIP3    H248848   5.807   1.773  12.403  0.1828  1.9057  0.1238
 9145TIP3   OH248849   2.884   1.800  15.341  0.6277 -0.0567 -0.0926
 9145TIP3    H148850   2.948   1.729  15.350 -0.0766 -0.6652  0.1652
 9145TIP3    H248851   2.831   1.776  15.266  0.8534  0.5843 -0.4691
 9146TIP3   OH248852   5.301   3.877  12.346 -0.4391  0.1543  0.1044
 9146TIP3    H148853   5.217   3.907  12.313 -1.1906  1.1562  2.6978
 9146TIP3    H248854   5.307   3.914  12.434  2.7148  0.1019  0.0186
 9147TIP3   OH248855   1.766   4.675  15.260 -1.2302  0.3527 -0.0733
 9147TIP3    H148856   1.683   4.636  15.283 -1.4803  0.6385 -0.4708
 9147TIP3    H248857   1.773   4.663  15.165 -0.6077 -0.0739  0.0210
 9148TIP3   OH248858   1.659   5.236   3.329  0.2357  0.1735  0.1498
 9148TIP3    H148859   1.608   5.288   3.267 -1.8769 -2.0063 -0.0886
 9148TIP3    H248860   1.622   5.257   3.414 -0.2159 -0.4441  0.1147
 9149TIP3   OH248861   5.168   4.893   4.515 -0.5829 -0.3258  0.2034
 9149TIP3    H148862   5.195   4.873   4.425  1.6882  2.4940  0.0972
 9149TIP3    H248863   5.195   4.816   4.566  1.3472 -0.5347 -1.0352
 9150TIP3   OH248864   5.068   0.243   0.808 -0.1507 -0.3561 -0.4817
 9150TIP3    H148865   5.131   0.176   0.782  0.0915 -0.4876  0.4063
 9150TIP3    H248866   5.121   0.318   0.834 -0.4104  0.0476 -1.0963
 9151TIP3   OH248867   6.359   6.701   5.128 -0.1381 -0.3335 -0.2196
 9151TIP3    H148868   6.344   6.788   5.165  0.5268 -0.7217  1.0092
 9151TIP3    H248869   6.446   6.676   5.157  0.9638 -0.1967 -3.0524
 9152TIP3   OH248870   2.781   2.642   1.116  0.2969 -0.6326  0.2167
 9152TIP3    H148871   2.862   2.679   1.080  0.4297  1.2442  2.2493
 9152TIP3    H248872   2.800   2.631   1.209 -2.6448  2.7371  1.4247
 9153TIP3   OH248873   0.750   5.222   6.384 -0.3841 -0.1303 -0.0563
 9153TIP3    H148874   0.790   5.153   6.436 -0.6145  0.5402  1.0225
 9153TIP3    H248875   0.656   5.205   6.391 -0.5072  0.9658  1.1914
 9154TIP3   OH248876   0.917   6.320  15.134  0.2147  0.1433 -0.3647
 9154TIP3    H148877   0.888   6.229  15.127 -0.2261  0.0978  1.4651
 9154TIP3    H248878   0.865   6.357  15.205  1.2027  1.5048 -0.2942
 9155TIP3   OH248879   5.311   2.238   0.224  0.5127 -0.1361 -0.0116
 9155TIP3    H148880   5.260   2.306   0.180 -0.7610 -2.0623 -1.6462
 9155TIP3    H248881   5.383   2.219   0.165  0.0413 -1.1928 -0.2706
 9156TIP3   OH248882   4.359   1.028  15.633  0.5099  0.1542  0.1559
 9156TIP3    H148883   4.435   1.059  15.682  1.2589  0.8214 -1.3771
 9156TIP3    H248884   4.388   1.027  15.542 -0.7803 -1.2442 -0.2730
 9157TIP3   OH248885   5.071   3.528  11.343  0.5626 -0.5349 -0.6282
 9157TIP3    H148886   5.128   3.450  11.343 -0.3236 -1.1989 -0.3503
 9157TIP3    H248887   5.107   3.583  11.413  0.6015 -1.1557 -0.1442
 9158TIP3   OH248888   5.846   2.251   0.743 -0.0125  0.2027  0.1393
 9158TIP3    H148889   5.760   2.293   0.734 -0.9477 -1.7141 -0.3642
 9158TIP3    H248890   5.856   2.237   0.837  1.2404  3.2179  0.5939
 9159TIP3   OH248891   1.820   1.740   2.024 -0.0365  0.2405  0.0703
 9159TIP3    H148892   1.753   1.704   1.967 -1.4769 -0.2809  1.9624
 9159TIP3    H248893   1.874   1.665   2.049 -0.2699  0.2080  0.4837
 9160TIP3   OH248894   3.054   5.528  11.755 -0.1031 -0.3034 -0.6965
 9160TIP3    H148895   3.032   5.599  11.815 -2.1449 -0.6761 -0.9401
 9160TIP3    H248896   3.068   5.452  11.812 -1.7682 -0.5931 -0.6360
 9161TIP3   OH248897   4.913   3.952   5.875 -0.5292 -0.2750  0.1554
 9161TIP3    H148898   4.912   3.917   5.786  0.7433 -0.8646  0.3532
 9161TIP3    H248899   4.928   3.876   5.931  2.6132  0.5140  0.5847
 9162TIP3   OH248900   4.084   3.908   3.604  0.1132  0.3638 -0.0559
 9162TIP3    H148901   4.124   3.878   3.686  1.1433  1.7808  0.0231
 9162TIP3    H248902   4.159   3.926   3.547 -0.5751 -0.1342 -1.1407
 9163TIP3   OH248903   3.272   1.750  11.779  0.7712  0.0474  0.4409
 9163TIP3    H148904   3.278   1.832  11.731 -0.5809 -0.1044 -0.0016
 9163TIP3    H248905   3.312   1.685  11.721 -0.4965 -0.0627 -0.3406
 9164TIP3   OH248906   4.722   6.264  13.411  0.0527 -0.1124  0.3013
 9164TIP3    H148907   4.698   6.319  13.335  2.4302  1.5325  0.6369
 9164TIP3    H248908   4.812   6.237  13.394  0.4269 -0.2312  2.2440
 9165TIP3   OH248909   4.269   3.923   0.820 -0.4574 -0.5162 -0.1740
 9165TIP3    H148910   4.344   3.936   0.762 -0.2604 -0.6121  0.0601
 9165TIP3    H248911   4.200   3.979   0.783 -1.2763 -2.7013 -2.1789
 9166TIP3   OH248912   4.025   0.538  13.478 -0.0178  0.0736 -0.1651
 9166TIP3    H148913   4.101   0.542  13.419 -0.2532  1.6049 -0.4152
 9166TIP3    H248914   3.952   0.570  13.424 -0.4616  0.4051  0.6285
 9167TIP3   OH248915   4.655   6.577   2.169  0.5631  0.0644  0.5350
 9167TIP3    H148916   4.604   6.499   2.192  0.0621  0.5464  1.0892
 9167TIP3    H248917   4.626   6.644   2.231  0.5777  0.8593 -0.2933
 9168TIP3   OH248918   0.963   4.432  15.052 -0.4049 -0.4383 -1.2699
 9168TIP3    H148919   0.896   4.483  15.007 -0.3863  0.2579 -0.5326
 9168TIP3    H248920   0.916   4.390  15.124 -0.1614 -0.4125 -1.0950
 9169TIP3   OH248921   1.104   2.072   3.150  0.1476  0.7150 -0.3683
 9169TIP3    H148922   1.172   2.108   3.207  0.0830  0.2467  0.0106
 9169TIP3    H248923   1.038   2.142   3.145  0.9353  1.4201 -1.2549
 9170TIP3   OH248924   2.497   1.302   2.978  0.3244  0.0175 -0.1423
 9170TIP3    H148925   2.460   1.340   3.058 -1.5070  0.4071 -1.1219
 9170TIP3    H248926   2.544   1.374   2.937  0.2591  0.1424  0.0028
 9171TIP3   OH248927   4.798   5.410   1.430 -0.2030 -0.1499  0.2068
 9171TIP3    H148928   4.803   5.315   1.420 -1.6852 -0.1425 -0.9117
 9171TIP3    H248929   4.888   5.437   1.449  0.7486 -1.4906 -2.0900
 9172TIP3   OH248930   0.510   4.450  12.581 -0.0951 -0.3377  0.0566
 9172TIP3    H148931   0.447   4.521  12.569 -0.7652 -0.9150  0.1490
 9172TIP3    H248932   0.579   4.489  12.636 -0.0571  0.4693 -0.5452
 9173TIP3   OH248933   3.402   1.166   4.259  0.0060 -0.2584 -0.1741
 9173TIP3    H148934   3.309   1.187   4.251 -0.0924 -0.4267  0.5095
 9173TIP3    H248935   3.438   1.186   4.173 -0.7382 -0.5616 -0.5654
 9174TIP3   OH248936   3.460   0.860  11.940  0.1584  0.2476  0.8044
 9174TIP3    H148937   3.549   0.833  11.963  0.6635 -0.7519 -1.9724
 9174TIP3    H248938   3.411   0.779  11.935 -0.3368  0.5765  0.1612
 9175TIP3   OH248939   6.641   6.201   0.315 -0.2917  0.0769 -0.5332
 9175TIP3    H148940   6.659   6.111   0.344 -1.5398 -0.8041 -2.2691
 9175TIP3    H248941   6.579   6.190   0.242 -1.6734  2.4440  0.1907
 9176TIP3   OH248942   4.081   1.079   5.021 -0.7292  0.2189 -0.5107
 9176TIP3    H148943   4.015   1.131   4.976  0.0689 -0.4338 -2.5192
 9176TIP3    H248944   4.163   1.100   4.977  0.2085 -0.0205  1.0447
 9177TIP3   OH248945   5.387   0.069   2.775  0.2193  0.2702 -0.2157
 9177TIP3    H148946   5.410   0.133   2.707 -0.4960  0.6105 -0.1568
 9177TIP3    H248947   5.294   0.085   2.791  0.2766 -0.1149  0.5255
 9178TIP3   OH248948   6.033   4.351   2.867 -0.4058  0.0242  0.1907
 9178TIP3    H148949   6.106   4.295   2.893  2.1314  2.5486 -0.9059
 9178TIP3    H248950   5.995   4.381   2.949 -0.0616 -1.1383  0.8003
 9179TIP3   OH248951   3.140   5.778  10.501 -0.7895  0.0616 -0.1218
 9179TIP3    H148952   3.153   5.725  10.423 -0.0819  1.1284 -0.7524
 9179TIP3    H248953   3.045   5.791  10.505 -0.8810 -0.4681 -0.4759
 9180TIP3   OH248954   2.580   6.200   4.962  0.0406 -0.1178 -0.0315
 9180TIP3    H148955   2.659   6.167   4.920  1.0834  0.4919  1.3522
 9180TIP3    H248956   2.566   6.286   4.922 -0.3072 -0.4990 -0.7382
 9181TIP3   OH248957   0.366   5.545   5.608  0.0718 -0.3666  0.7312
 9181TIP3    H148958   0.435   5.487   5.640 -0.2604 -1.5899 -0.6379
 9181TIP3    H248959   0.405   5.632   5.608  3.0221 -1.3928 -3.3723
 9182TIP3   OH248960   4.715   0.436   4.826  0.3089  0.0411 -0.4232
 9182TIP3    H148961   4.638   0.381   4.842  1.1714 -0.4270  2.8473
 9182TIP3    H248962   4.679   0.522   4.806 -1.1013 -0.2566  0.6705
 9183TIP3   OH248963   2.346   4.478  15.321 -0.1036 -0.0647 -0.0197
 9183TIP3    H148964   2.379   4.390  15.338  2.0494  0.6717 -0.0919
 9183TIP3    H248965   2.398   4.509  15.246  0.3861  1.8414  1.0408
 9184TIP3   OH248966   1.988   6.647   2.702  0.1225  0.9175 -0.0403
 9184TIP3    H148967   1.905   6.659   2.656 -0.2174  2.9217  0.9684
 9184TIP3    H248968   2.054   6.684   2.643  0.2541 -0.1603 -0.5957
 9185TIP3   OH248969   2.197   1.750  14.592 -0.5083  0.0609 -0.3672
 9185TIP3    H148970   2.182   1.658  14.573 -2.3738 -0.0358  1.3223
 9185TIP3    H248971   2.287   1.753  14.625 -0.2293 -1.0307 -0.9846
 9186TIP3   OH248972   3.144   6.386  15.853  0.0891 -0.0349 -0.2916
 9186TIP3    H148973   3.192   6.445  15.911 -0.1823 -2.0236  2.1174
 9186TIP3    H248974   3.059   6.375  15.895 -0.1000 -1.6229 -1.0214
 9187TIP3   OH248975   6.140   1.646  10.244 -0.0754 -0.1931 -0.1014
 9187TIP3    H148976   6.150   1.562  10.287 -0.6464 -0.5297 -0.6144
 9187TIP3    H248977   6.228   1.684  10.245  0.7378 -1.8493 -1.9863
 9188TIP3   OH248978   4.718   2.285  10.687 -0.6632  0.3465 -0.0066
 9188TIP3    H148979   4.814   2.289  10.685 -0.4396 -0.5368 -5.1033
 9188TIP3    H248980   4.699   2.218  10.753  2.0511  1.3265  1.9858
 9189TIP3   OH248981   4.251   0.840  14.661 -0.9253 -0.4195 -0.0326
 9189TIP3    H148982   4.269   0.865  14.570  2.0586  0.9274  0.8343
 9189TIP3    H248983   4.213   0.918  14.700  1.3663  0.3743  0.7658
 9190TIP3   OH248984   0.602   1.263  15.184 -0.2949  0.2057  0.1136
 9190TIP3    H148985   0.524   1.218  15.218 -0.4850  1.4727  1.4447
 9190TIP3    H248986   0.600   1.245  15.090 -2.9658  1.2771 -0.1338
 9191TIP3   OH248987   1.677   2.877  17.010 -0.0175 -0.2332 -0.6841
 9191TIP3    H148988   1.668   2.843  17.100  0.5124 -0.0780 -0.5731
 9191TIP3    H248989   1.725   2.808  16.964 -1.2286 -0.8086 -1.1388
 9192TIP3   OH248990   0.866   1.046   5.909 -0.2478 -0.6896 -0.3064
 9192TIP3    H148991   0.780   1.048   5.953  0.3928 -0.6439  1.0071
 9192TIP3    H248992   0.929   1.040   5.981  0.8126 -1.8628 -1.2882
 9193TIP3   OH248993   0.037   0.013   2.839  0.1621 -0.0176 -0.6122
 9193TIP3    H148994  -0.015  -0.063   2.815 -1.1907  0.7560 -0.2380
 9193TIP3    H248995  -0.021   0.067   2.893  0.8471  1.5982 -1.3994
 9194TIP3   OH248996   0.885   4.306  11.590  0.0444 -0.5493 -0.5931
 9194TIP3    H148997   0.812   4.351  11.546 -1.2871 -1.3166  0.7494
 9194TIP3    H248998   0.952   4.299  11.523 -1.3821 -0.4325 -2.0992
 9195TIP3   OH248999   2.756   5.037   1.149 -0.0269  0.2307  0.0190
 9195TIP3    H149000   2.694   5.015   1.079 -0.5318  0.3413  0.4320
 9195TIP3    H249001   2.766   4.956   1.199  0.6237  0.0466 -0.3959
 9196TIP3   OH249002   4.032   0.646  14.716 -0.0794  0.6271 -0.2600
 9196TIP3    H149003   3.948   0.677  14.752 -0.1172  0.5149 -0.2519
 9196TIP3    H249004   4.081   0.726  14.698 -1.3354  0.8923 -3.1012
 9197TIP3   OH249005   2.496   1.921  11.661  0.0293 -0.0168  0.2186
 9197TIP3    H149006   2.531   1.990  11.718  2.4031 -2.1788  1.5480
 9197TIP3    H249007   2.532   1.941  11.574 -0.7429  1.3104  0.1606
 9198TIP3   OH249008   5.043   2.055   1.053 -0.3720 -0.0521  0.1177
 9198TIP3    H149009   5.077   2.099   1.131 -0.3125 -0.0279  0.0783
 9198TIP3    H249010   4.954   2.089   1.043 -0.8507 -1.0216  0.9223
 9199TIP3   OH249011   2.955   2.473  13.155  0.3254  0.0779  0.7405
 9199TIP3    H149012   3.015   2.548  13.162 -1.8509  1.7646  2.5348
 9199TIP3    H249013   2.916   2.482  13.068  1.8569 -0.4590 -0.0380
 9200TIP3   OH249014   2.422   3.683   1.712 -0.3240 -0.2827 -0.3415
 9200TIP3    H149015   2.467   3.704   1.794 -0.3970 -0.3072 -0.2951
 9200TIP3    H249016   2.455   3.597   1.689 -2.0176 -1.3156  0.8711
 9201TIP3   OH249017   3.006   2.877   6.447 -0.5776  0.0347  0.0143
 9201TIP3    H149018   3.069   2.904   6.379 -1.7070  2.7571 -0.0890
 9201TIP3    H249019   2.923   2.867   6.400 -1.0886  0.6322  0.7655
 9202TIP3   OH249020   3.387   4.326   5.342  0.4296 -0.0933 -0.3728
 9202TIP3    H149021   3.460   4.370   5.299  0.0895 -1.3183 -2.3202
 9202TIP3    H249022   3.310   4.375   5.316  0.2016 -0.9513 -1.3562
 9203TIP3   OH249023   5.145   3.834   2.093 -0.4380  0.1257 -0.1135
 9203TIP3    H149024   5.240   3.848   2.089 -0.4844  0.5710  0.2067
 9203TIP3    H249025   5.117   3.882   2.171 -0.7429 -1.1395  0.5792
 9204TIP3   OH249026   5.607   3.286  16.035  0.0080 -0.4185  0.2299
 9204TIP3    H149027   5.648   3.357  16.085  0.4890 -0.0365 -0.6923
 9204TIP3    H249028   5.575   3.225  16.102  1.5347 -0.4240  0.9919
 9205TIP3   OH249029   3.385   1.792   3.249  0.2993  0.6241  0.3042
 9205TIP3    H149030   3.413   1.702   3.233  2.5454  1.0789  1.3318
 9205TIP3    H249031   3.374   1.797   3.344  2.6102  2.0023  0.5704
 9206TIP3   OH249032   0.899   3.304  15.853  0.3641  0.2075 -0.2463
 9206TIP3    H149033   0.844   3.233  15.887  1.1460 -0.5895 -0.5940
 9206TIP3    H249034   0.921   3.356  15.931  1.9797 -1.4841  0.5157
 9207TIP3   OH249035   5.668   2.811   3.597 -0.8520  0.2858 -0.1600
 9207TIP3    H149036   5.573   2.804   3.609 -1.0757  0.7015 -1.5576
 9207TIP3    H249037   5.689   2.743   3.533 -0.2631  0.4401 -0.1332
 9208TIP3   OH249038   0.339   2.255   4.620 -0.3980  0.4951 -0.0797
 9208TIP3    H149039   0.271   2.226   4.680 -0.4857  0.1217 -0.3551
 9208TIP3    H249040   0.338   2.350   4.627 -1.1623  0.5082 -0.3158
 9209TIP3   OH249041   4.225   0.585  13.152 -0.4538  0.2591  0.0800
 9209TIP3    H149042   4.241   0.676  13.179  0.5830  0.2553 -0.4696
 9209TIP3    H249043   4.131   0.580  13.139 -0.5339  1.2382  0.2147
 9210TIP3   OH249044   2.485   0.901  11.792 -0.1369 -0.1206  0.1421
 9210TIP3    H149045   2.430   0.848  11.734 -0.9182  1.6704 -0.8234
 9210TIP3    H249046   2.530   0.961  11.733  3.6886 -2.0953  0.7616
 9211TIP3   OH249047   0.979   2.937   3.814  0.0634 -0.5553 -0.7961
 9211TIP3    H149048   0.973   2.842   3.826 -0.4090 -0.4178  0.1994
 9211TIP3    H249049   1.070   2.958   3.836 -0.3177 -0.5552  0.9398
 9212TIP3   OH249050   0.614   6.774  12.276  0.7280 -0.2818 -0.5392
 9212TIP3    H149051   0.660   6.714  12.217 -0.3841 -0.6864 -1.0203
 9212TIP3    H249052   0.580   6.842  12.220  0.8080  0.0683 -0.1692
 9213TIP3   OH249053   0.808   2.475  13.564 -0.0626 -0.6120  0.2984
 9213TIP3    H149054   0.798   2.433  13.479 -0.8602  0.5786 -0.2093
 9213TIP3    H249055   0.861   2.552  13.547 -1.4959  0.4707  0.5759
 9214TIP3   OH249056   5.352   6.619  13.710  0.4854 -0.1112 -0.0291
 9214TIP3    H149057   5.263   6.637  13.679  1.2601  0.7925 -1.8170
 9214TIP3    H249058   5.351   6.526  13.731 -0.3884 -0.5372 -1.7875
 9215TIP3   OH249059   0.625   3.611  13.302 -0.0536 -0.1687  0.2632
 9215TIP3    H149060   0.568   3.687  13.313 -1.1445 -0.7421 -1.0725
 9215TIP3    H249061   0.676   3.607  13.382 -1.3431  0.8433  1.1790
 9216TIP3   OH249062   3.681   0.589  13.118 -0.1763 -0.6878 -0.3894
 9216TIP3    H149063   3.632   0.506  13.121 -0.0479 -0.7544 -0.0048
 9216TIP3    H249064   3.642   0.637  13.045 -0.3955 -1.0014 -0.4835
 9217TIP3   OH249065   3.387   2.039   4.129  0.1668  0.0441 -0.1654
 9217TIP3    H149066   3.409   2.067   4.041 -1.2636  1.9752  0.0421
 9217TIP3    H249067   3.471   2.014   4.168  1.3751  2.7141 -0.8658
 9218TIP3   OH249068   2.046   6.333  15.685 -0.1567  0.2395  0.0623
 9218TIP3    H149069   2.094   6.416  15.683  0.6109 -0.2182 -1.6053
 9218TIP3    H249070   2.058   6.301  15.775 -1.1109  2.2660  0.9905
 9219TIP3   OH249071   0.271   2.231   4.332 -0.3871 -0.3946  0.8571
 9219TIP3    H149072   0.229   2.146   4.324 -0.3439 -0.3323 -0.2582
 9219TIP3    H249073   0.316   2.228   4.416  0.8772 -2.0528  0.1867
 9220TIP3   OH249074   1.780   3.002   1.903 -0.3947 -0.0589  0.1569
 9220TIP3    H149075   1.849   2.946   1.938 -0.3607 -1.3106 -1.7997
 9220TIP3    H249076   1.712   2.942   1.873 -0.6918  0.9637 -1.3172
 9221TIP3   OH249077   5.765   1.481  12.695 -0.2784 -0.1341  0.0950
 9221TIP3    H149078   5.748   1.417  12.764 -0.0036 -0.5812 -0.2483
 9221TIP3    H249079   5.679   1.502  12.659 -0.4322  0.1589  0.6161
 9222TIP3   OH249080   4.306   2.838  14.780 -0.0701 -0.5045  0.6447
 9222TIP3    H149081   4.382   2.782  14.789  0.1303 -0.1735  1.0857
 9222TIP3    H249082   4.333   2.922  14.818 -0.3945 -0.1383  0.0891
 9223TIP3   OH249083   0.199   5.191   0.801  0.1631 -0.6653 -0.5182
 9223TIP3    H149084   0.164   5.221   0.885 -0.2485 -0.9781 -0.5756
 9223TIP3    H249085   0.282   5.238   0.792  0.8664 -1.6079  0.6801
 9224TIP3   OH249086   5.306   0.229  14.037  0.0948  0.6533  0.1714
 9224TIP3    H149087   5.315   0.135  14.055  1.4874  0.5089 -1.0962
 9224TIP3    H249088   5.220   0.237  13.996  1.0301 -0.5338 -2.1879
 9225TIP3   OH249089   0.911   1.845   4.752 -0.3710 -0.3995 -0.1443
 9225TIP3    H149090   0.832   1.860   4.701  0.1664  0.9213 -0.6402
 9225TIP3    H249091   0.889   1.880   4.839 -0.4152 -0.2437 -0.2169
 9226TIP3   OH249092   1.503   5.042  12.641  0.6554  0.5424  0.0756
 9226TIP3    H149093   1.464   5.053  12.554  0.6659 -0.3599 -0.0563
 9226TIP3    H249094   1.590   5.006  12.623  0.2366 -0.7302  0.4894
 9227TIP3   OH249095   5.512   6.583   4.813 -1.1088  0.1777  0.0305
 9227TIP3    H149096   5.553   6.576   4.899  3.8223  0.2176 -1.9848
 9227TIP3    H249097   5.468   6.500   4.800 -1.1761 -0.1665  2.2004
 9228TIP3   OH249098   5.942   4.925   4.262 -0.3416  0.0107  0.1930
 9228TIP3    H149099   5.920   4.875   4.340  0.9455 -1.4146 -0.3014
 9228TIP3    H249100   6.032   4.899   4.242  0.3773  2.4458 -0.1841
 9229TIP3   OH249101   1.604   1.535   0.940 -0.0817  0.1026 -0.2688
 9229TIP3    H149102   1.592   1.442   0.923  2.2389 -0.4759  0.9160
 9229TIP3    H249103   1.543   1.555   1.011  0.8300 -1.0353  0.8727
 9230TIP3   OH249104   6.088   5.237  15.081  0.0963  0.1623  0.3931
 9230TIP3    H149105   6.154   5.258  15.015 -0.2428  1.2580  0.3950
 9230TIP3    H249106   6.004   5.256  15.039 -0.3111 -1.8904  0.1387
 9231TIP3   OH249107   1.000   5.368  17.006 -0.3905 -0.3325 -0.0272
 9231TIP3    H149108   0.910   5.358  16.973 -0.4718 -0.5646  0.2602
 9231TIP3    H249109   0.995   5.442  17.066  0.1402  1.3023 -1.8969
 9232TIP3   OH249110   5.344   1.136  15.712 -0.1157  0.3556 -0.6209
 9232TIP3    H149111   5.387   1.084  15.780 -0.4114 -1.2623 -1.6243
 9232TIP3    H249112   5.252   1.110  15.717 -0.2379  0.6388 -1.2712
 9233TIP3   OH249113   2.348   6.203   2.778  0.1045  0.8915  0.1441
 9233TIP3    H149114   2.265   6.207   2.732 -0.1785  0.4762  0.6154
 9233TIP3    H249115   2.331   6.150   2.856  1.3848 -1.2878 -0.9493
 9234TIP3   OH249116   3.093   5.019   1.397  0.0515  0.3441 -0.2951
 9234TIP3    H149117   3.107   5.087   1.331 -1.5891  1.8087  0.7535
 9234TIP3    H249118   3.076   4.940   1.346 -0.3990  1.2584 -1.6300
 9235TIP3   OH249119   3.845   1.991   5.826 -0.1351  0.1390 -0.1979
 9235TIP3    H149120   3.831   1.915   5.883  0.2696 -0.1815 -0.5208
 9235TIP3    H249121   3.779   2.054   5.854 -0.9689 -0.6127 -0.4004
 9236TIP3   OH249122   3.211   5.313   0.638 -0.0305 -0.5105  0.0382
 9236TIP3    H149123   3.202   5.303   0.733  1.2375  1.5779  0.4379
 9236TIP3    H249124   3.285   5.257   0.614  0.1746 -0.4067  0.4223
 9237TIP3   OH249125   1.140   3.706   5.623 -0.2363 -0.4993  0.6907
 9237TIP3    H149126   1.198   3.630   5.621  1.3778  0.6676 -0.4451
 9237TIP3    H249127   1.073   3.687   5.557  0.3333 -0.8111  0.1922
 9238TIP3   OH249128   5.677   2.753  16.277 -0.0644 -0.6506 -0.2032
 9238TIP3    H149129   5.758   2.799  16.300  0.1830 -1.5309  0.7344
 9238TIP3    H249130   5.607   2.808  16.311  0.2904 -2.4512  3.9860
 9239TIP3   OH249131   4.677   1.778  13.610 -0.1515 -0.3331 -0.0920
 9239TIP3    H149132   4.733   1.849  13.641  1.5835 -1.0926 -1.3087
 9239TIP3    H249133   4.681   1.783  13.515  0.7783 -2.5350 -0.2469
 9240TIP3   OH249134   4.890   1.253   0.515  0.1976 -0.6477  0.1191
 9240TIP3    H149135   4.868   1.325   0.456  0.7631 -1.1257 -0.6851
 9240TIP3    H249136   4.808   1.234   0.560  0.6411  2.6055  2.7677
 9241TIP3   OH249137   2.216   3.101  16.277 -0.0329 -0.3762 -0.0168
 9241TIP3    H149138   2.187   3.069  16.362 -0.0744  1.4728  0.6985
 9241TIP3    H249139   2.135   3.121  16.230 -0.0405 -2.1750 -0.8551
 9242TIP3   OH249140   6.683   0.685   3.366 -0.0349  0.0577  0.0334
 9242TIP3    H149141   6.625   0.615   3.397 -0.1674  0.1179 -0.0812
 9242TIP3    H249142   6.757   0.683   3.428 -0.0094 -0.2202 -0.0004
 9243TIP3   OH249143   1.871   2.337   3.453 -0.1370  0.3447  0.6341
 9243TIP3    H149144   1.787   2.338   3.407 -0.0440  0.0244  0.4573
 9243TIP3    H249145   1.926   2.277   3.403  0.7836  1.8847 -0.2598
 9244TIP3   OH249146   5.349   1.455  14.999  0.1184 -0.9685 -0.0054
 9244TIP3    H149147   5.425   1.479  15.052  1.2396 -1.8427 -1.1660
 9244TIP3    H249148   5.297   1.397  15.056 -0.0002  0.0719  0.9896
 9245TIP3   OH249149   1.278   1.527   0.994  0.0217  0.3771  1.2280
 9245TIP3    H149150   1.233   1.607   1.018  0.5070  0.5848  1.4592
 9245TIP3    H249151   1.259   1.466   1.066  0.5743  0.6505  1.6202
 9246TIP3   OH249152   2.742   3.914  10.011 -0.1810 -0.2913  0.5066
 9246TIP3    H149153   2.719   3.955  10.095 -1.3830 -0.5971  0.3362
 9246TIP3    H249154   2.775   3.827  10.035  1.0747  0.2253  0.7634
 9247TIP3   OH249155   1.653   3.343   3.933 -0.0646  0.3838 -0.1865
 9247TIP3    H149156   1.618   3.417   3.982 -0.8609  1.2801 -2.0023
 9247TIP3    H249157   1.625   3.266   3.982 -0.8629  1.2290  0.7310
 9248TIP3   OH249158   0.354   5.741  10.528 -0.1780  0.0952  0.1353
 9248TIP3    H149159   0.358   5.723  10.622 -0.7069  0.9117  0.3210
 9248TIP3    H249160   0.404   5.669  10.488 -0.7738 -0.8077  0.9687
 9249TIP3   OH249161   1.113   1.002  13.701 -0.8161 -0.1954 -0.1929
 9249TIP3    H149162   1.159   1.083  13.720 -3.4355  1.1153  1.0570
 9249TIP3    H249163   1.093   1.008  13.607 -1.7571  1.0805  0.0640
 9250TIP3   OH249164   2.234   4.818  15.894 -0.1892 -0.3572  0.3089
 9250TIP3    H149165   2.160   4.865  15.856  0.4045  1.1612  0.9622
 9250TIP3    H249166   2.294   4.886  15.923  0.9184 -1.5351  0.9049
 9251TIP3   OH249167   6.402   0.751  16.516  0.0111 -0.6266 -0.4884
 9251TIP3    H149168   6.386   0.843  16.538 -0.4743 -0.4378 -1.5751
 9251TIP3    H249169   6.366   0.741  16.428  0.4890 -1.7439 -0.5688
 9252TIP3   OH249170   1.240   6.192  15.217  0.1965 -0.2999  0.3903
 9252TIP3    H149171   1.150   6.219  15.202  0.4975  0.1163 -0.7726
 9252TIP3    H249172   1.288   6.274  15.230  0.6025 -0.4474 -0.1577
 9253TIP3   OH249173   1.439   5.436  15.039  0.3210 -0.1639 -0.1439
 9253TIP3    H149174   1.505   5.405  14.977  2.1521  2.3680  0.3700
 9253TIP3    H249175   1.474   5.411  15.125  0.9080  1.5323  0.1583
 9254TIP3   OH249176   0.337   6.240   3.848 -0.1502  0.2598  0.5517
 9254TIP3    H149177   0.416   6.233   3.794 -0.5004 -0.6607  0.1392
 9254TIP3    H249178   0.368   6.234   3.938  0.3998  1.4088  0.4550
 9255TIP3   OH249179   4.179   2.468  14.211  0.3749 -0.6358  0.1390
 9255TIP3    H149180   4.158   2.401  14.146  0.1417  0.0037 -0.4568
 9255TIP3    H249181   4.106   2.466  14.273  0.4416 -1.0301  0.2049
 9256TIP3   OH249182   3.957   4.432  15.346  0.1608  0.2277  0.1158
 9256TIP3    H149183   3.958   4.525  15.324  1.7243  1.3505  3.9995
 9256TIP3    H249184   4.044   4.400  15.322 -0.1987 -0.1334 -0.7400
 9257TIP3   OH249185   0.740   5.101   0.476 -0.0904 -0.1927  0.3347
 9257TIP3    H149186   0.750   5.073   0.385  0.9052 -1.0407  0.6826
 9257TIP3    H249187   0.669   5.047   0.510 -1.1666  0.8611 -0.2195
 9258TIP3   OH249188   1.377   5.040   4.220 -0.1015  0.4459  0.0754
 9258TIP3    H149189   1.426   5.116   4.189  1.3518 -0.9704 -1.3296
 9258TIP3    H249190   1.411   5.025   4.309  0.6789  0.5734 -0.1928
 9259TIP3   OH249191   5.128   5.369   3.810 -0.4728 -0.3204  0.5161
 9259TIP3    H149192   5.112   5.362   3.715 -0.7948  0.5169  0.5000
 9259TIP3    H249193   5.106   5.282   3.844 -0.9929 -0.4373 -0.0883
 9260TIP3   OH249194   4.164   5.487  13.545  0.6183  0.0437  0.0697
 9260TIP3    H149195   4.132   5.577  13.533  0.5493 -0.1174 -1.0636
 9260TIP3    H249196   4.202   5.464  13.460  1.0744 -0.8337  0.4998
 9261TIP3   OH249197   0.337   0.618  10.658  0.3034  0.4085 -0.6658
 9261TIP3    H149198   0.407   0.618  10.723 -0.3079  1.3125  0.0226
 9261TIP3    H249199   0.381   0.635  10.575  1.3032 -2.3144 -0.7850
 9262TIP3   OH249200   4.894   3.792   3.080  0.3724 -0.6695 -0.0749
 9262TIP3    H149201   4.972   3.740   3.063  0.6903 -0.4062  0.5540
 9262TIP3    H249202   4.921   3.856   3.146 -1.0892 -2.3757  2.3117
 9263TIP3   OH249203   3.292   2.910  11.560 -0.1011  0.5309 -0.1509
 9263TIP3    H149204   3.233   2.892  11.633 -0.3488 -0.2236 -0.5353
 9263TIP3    H249205   3.255   2.987  11.518  0.8312  1.8726  1.3541
 9264TIP3   OH249206   3.723   4.929  14.414  0.0516 -0.0011  0.2063
 9264TIP3    H149207   3.632   4.919  14.440  0.0286 -4.8214 -0.7254
 9264TIP3    H249208   3.719   4.969  14.327 -1.0492  1.0460  0.7206
 9265TIP3   OH249209   1.650   2.950  11.853 -0.7204 -0.3256 -0.0580
 9265TIP3    H149210   1.658   3.043  11.830 -1.6200 -0.1597  0.2794
 9265TIP3    H249211   1.634   2.951  11.948  1.4636 -0.9308  0.3801
 9266TIP3   OH249212   0.689   4.222  11.169  0.0400  0.7284 -0.1684
 9266TIP3    H149213   0.654   4.141  11.206  0.0731  0.2179 -1.2091
 9266TIP3    H249214   0.611   4.269  11.137 -0.0544  1.4797  1.1198
 9267TIP3   OH249215   3.504   0.899  16.576  0.2316  0.1864 -0.2663
 9267TIP3    H149216   3.522   0.835  16.644 -0.5868  0.3145  0.0788
 9267TIP3    H249217   3.461   0.850  16.507 -3.1573  0.7960  1.2108
 9268TIP3   OH249218   3.195   0.547  16.684  0.0330  0.2636  0.0625
 9268TIP3    H149219   3.102   0.528  16.694 -0.0761  0.7268 -0.0299
 9268TIP3    H249220   3.197   0.635  16.646  0.5026  0.1096 -0.2769
 9269TIP3   OH249221   1.984   2.559   1.756  0.0643 -0.4627 -0.0637
 9269TIP3    H149222   2.067   2.606   1.763 -1.1065  2.0393 -1.5011
 9269TIP3    H249223   1.971   2.547   1.661 -1.6084  0.0508  0.0596
 9270TIP3   OH249224   6.619   5.509  10.475 -0.1756  0.3276  0.5594
 9270TIP3    H149225   6.668   5.496  10.394 -0.3433 -2.1576  0.7921
 9270TIP3    H249226   6.679   5.558  10.531  0.8984 -0.0869 -0.1985
 9271TIP3   OH249227   5.713   2.122  12.860  0.0307 -0.4249 -0.6719
 9271TIP3    H149228   5.720   2.159  12.948  1.7406 -0.2543 -0.8488
 9271TIP3    H249229   5.750   2.189  12.802 -1.3174 -0.4135 -1.5813
 9272TIP3   OH249230   5.911   1.957   4.566  0.1234  0.1877  0.6339
 9272TIP3    H149231   5.828   1.913   4.589 -0.2199  0.8538  0.6895
 9272TIP3    H249232   5.926   1.933   4.475 -1.1627  1.6419 -0.0014
 9273TIP3   OH249233   6.021   2.217   1.739 -0.0639  0.1321 -0.3558
 9273TIP3    H149234   6.048   2.227   1.831 -2.0378  0.6016  0.2144
 9273TIP3    H249235   6.084   2.155   1.703 -0.0267 -1.1217  1.6836
 9274TIP3   OH249236   4.582   3.866  10.440 -0.6151 -0.1358 -0.5586
 9274TIP3    H149237   4.597   3.959  10.426 -0.5746  0.1553  1.1611
 9274TIP3    H249238   4.596   3.826  10.354 -1.5798  1.5432 -1.5546
 9275TIP3   OH249239   5.947   3.892  16.737 -0.1134  0.1470 -0.8404
 9275TIP3    H149240   6.028   3.843  16.722 -0.5270 -0.5227 -0.9186
 9275TIP3    H249241   5.911   3.853  16.817  0.6036  1.7295  0.2945
 9276TIP3   OH249242   0.997   3.084  12.479 -0.2766  0.0834 -0.2031
 9276TIP3    H149243   1.040   3.072  12.394 -0.2013  0.9405 -0.2943
 9276TIP3    H249244   0.945   3.163  12.468 -0.0823  0.3299  0.6244
 9277TIP3   OH249245   1.695   1.325  15.118 -0.3121  0.3994  0.2458
 9277TIP3    H149246   1.646   1.370  15.048  1.7074  2.6553  0.1441
 9277TIP3    H249247   1.628   1.303  15.183 -2.0943 -0.7390 -1.8048
 9278TIP3   OH249248   4.166   5.959  12.908 -0.3207 -0.3448 -0.0222
 9278TIP3    H149249   4.185   5.891  12.973 -0.1512 -0.3643 -0.0914
 9278TIP3    H249250   4.189   6.041  12.951 -0.3655 -0.3452  0.0018
 9279TIP3   OH249251   5.811   5.815   1.450 -0.0901 -0.5354 -0.2269
 9279TIP3    H149252   5.775   5.812   1.539  1.8610  1.3012  0.7184
 9279TIP3    H249253   5.820   5.724   1.424 -1.9211 -1.0888  0.9119
 9280TIP3   OH249254   2.442   5.507  14.753  0.4126  0.2989 -0.2632
 9280TIP3    H149255   2.498   5.556  14.693 -0.3400 -1.8378 -2.9202
 9280TIP3    H249256   2.379   5.462  14.696 -1.7666 -0.2161  2.3282
 9281TIP3   OH249257   0.904   2.064  16.068 -0.3948  0.3764 -0.0252
 9281TIP3    H149258   0.978   2.026  16.021  0.3393  0.8640  0.6939
 9281TIP3    H249259   0.880   2.141  16.017 -0.3077  0.2976 -0.1844
 9282TIP3   OH249260   3.233   3.203   3.183  0.5033 -0.4932  0.6257
 9282TIP3    H149261   3.260   3.216   3.093  1.9297 -0.7279  0.9919
 9282TIP3    H249262   3.306   3.237   3.235 -0.4486 -0.0314  1.6974
 9283TIP3   OH249263   3.823   3.105   5.311  0.0260  0.6421 -0.7226
 9283TIP3    H149264   3.801   3.197   5.300 -0.8580  0.1600 -3.7093
 9283TIP3    H249265   3.882   3.085   5.238  0.7376 -1.0167  0.2453
 9284TIP3   OH249266   2.699   1.348   1.969  0.5090 -0.0544  0.1083
 9284TIP3    H149267   2.758   1.273   1.965 -0.9859 -1.5008  2.9531
 9284TIP3    H249268   2.614   1.314   1.942 -0.1838  0.5916  1.4044
 9285TIP3   OH249269   4.030   4.372   0.285 -0.2106  0.6527  0.0090
 9285TIP3    H149270   3.954   4.431   0.283  0.0337  1.0284  1.1619
 9285TIP3    H249271   4.090   4.408   0.220 -1.1434  0.1516 -1.1805
 9286TIP3   OH249272   0.823   0.863  11.040  0.5855  0.3076  0.3813
 9286TIP3    H149273   0.858   0.851  10.952 -2.3753 -1.5899 -0.7088
 9286TIP3    H249274   0.734   0.895  11.027  0.5273  1.3672  2.7819
 9287TIP3   OH249275   6.586   0.584  15.713 -0.4052  0.0029 -0.2916
 9287TIP3    H149276   6.568   0.613  15.802 -2.0039  1.9698 -1.1705
 9287TIP3    H249277   6.505   0.543  15.684  0.1323 -0.7088 -0.8345
 9288TIP3   OH249278   2.041   1.773   3.774 -0.5748 -0.0940 -0.0873
 9288TIP3    H149279   2.024   1.691   3.727 -0.3276  0.6854 -1.6182
 9288TIP3    H249280   1.957   1.818   3.775 -0.3340  0.4063 -0.8772
 9289TIP3   OH249281   2.626   1.196   4.797  0.3169  0.2906  0.3637
 9289TIP3    H149282   2.608   1.282   4.759 -2.2552  1.1361  3.0664
 9289TIP3    H249283   2.544   1.147   4.785  0.2532 -0.2235  2.4814
 9290TIP3   OH249284   3.299   1.706  13.884 -0.3329  0.5707  0.1111
 9290TIP3    H149285   3.297   1.618  13.846 -0.7306  1.1012 -1.1475
 9290TIP3    H249286   3.361   1.754  13.830 -0.6843  1.2671  0.3177
 9291TIP3   OH249287   6.106   6.297  10.563 -0.6201  0.7443  0.6152
 9291TIP3    H149288   6.055   6.233  10.613  0.1204 -0.4140 -0.0830
 9291TIP3    H249289   6.058   6.306  10.481 -0.1272  0.2275  0.2648
 9292TIP3   OH249290   3.822   5.588  15.608 -0.3085 -0.3144  0.7218
 9292TIP3    H149291   3.891   5.560  15.668  0.5511  1.1022  0.4547
 9292TIP3    H249292   3.756   5.628  15.664 -0.6690 -1.1992  0.9335
 9293TIP3   OH249293   3.303   3.274   2.941 -0.3618  0.1111  0.6441
 9293TIP3    H149294   3.394   3.297   2.921 -0.6031 -0.0262 -0.7717
 9293TIP3    H249295   3.281   3.207   2.876 -1.5838  0.3962  0.7366
 9294TIP3   OH249296   2.123   5.907   0.676 -0.3349 -0.3578  0.3286
 9294TIP3    H149297   2.031   5.888   0.694 -0.6919 -0.0372 -1.0626
 9294TIP3    H249298   2.144   5.853   0.600  0.1966  0.7054 -0.2878
 9295TIP3   OH249299   5.709   1.101  15.265  0.1204 -0.1278 -0.0701
 9295TIP3    H149300   5.766   1.173  15.290 -0.8995  1.5095 -2.1334
 9295TIP3    H249301   5.637   1.104  15.328  1.1352 -0.7967  1.1733
 9296TIP3   OH249302   6.578   5.879  12.408  0.1273  0.5168 -0.2717
 9296TIP3    H149303   6.639   5.818  12.367 -0.6974 -0.4015 -0.1768
 9296TIP3    H249304   6.633   5.942  12.453  1.0079 -0.2426 -0.2625
 9297TIP3   OH249305   4.225   6.710  13.140 -0.1878  0.3544 -0.0163
 9297TIP3    H149306   4.145   6.712  13.192  0.0742  0.9454  0.3716
 9297TIP3    H249307   4.212   6.638  13.079 -0.7852  0.0927  0.4125
 9298TIP3   OH249308   4.733   2.097   6.299  0.0256 -0.4807  0.5440
 9298TIP3    H149309   4.712   2.162   6.233 -0.7803 -2.5588 -1.3759
 9298TIP3    H249310   4.827   2.081   6.288  0.0290 -0.3311  0.3585
 9299TIP3   OH249311   4.566   3.803  13.744  0.6607  0.2358 -0.4037
 9299TIP3    H149312   4.644   3.797  13.799  1.5333  0.6894 -1.5682
 9299TIP3    H249313   4.588   3.754  13.665 -0.4725 -0.1566 -0.5025
 9300TIP3   OH249314   5.375   1.927   2.588  0.2408 -0.4566  0.0109
 9300TIP3    H149315   5.425   1.847   2.573  1.6937  0.6490 -1.2925
 9300TIP3    H249316   5.303   1.922   2.525  0.4071 -0.6574 -0.1634
 9301TIP3   OH249317   4.780   6.052  16.490 -0.1195 -0.0652 -0.0738
 9301TIP3    H149318   4.767   5.959  16.509  0.5696 -0.2945 -0.6764
 9301TIP3    H249319   4.806   6.090  16.573  0.2811 -0.5512  0.0328
 9302TIP3   OH249320   6.458   3.312   3.515  0.0646 -0.2235  0.0452
 9302TIP3    H149321   6.389   3.334   3.453  2.1626  3.3180 -1.3094
 9302TIP3    H249322   6.417   3.320   3.601 -2.1764 -2.4532 -0.7092
 9303TIP3   OH249323   6.104   0.539  13.689 -0.3507 -0.0835  0.7964
 9303TIP3    H149324   6.055   0.598  13.747  0.9036  0.5169  1.2939
 9303TIP3    H249325   6.125   0.464  13.744 -3.0355 -1.6752 -0.1817
 9304TIP3   OH249326   4.795   5.782  16.566  0.5236  0.2618  0.5943
 9304TIP3    H149327   4.715   5.749  16.607  0.1272 -0.3329 -0.6134
 9304TIP3    H249328   4.866   5.735  16.610 -0.0007 -2.0152 -0.7926
 9305TIP3   OH249329   2.811   4.680   1.727  0.3282  0.0582 -0.5334
 9305TIP3    H149330   2.837   4.591   1.753 -0.9819 -0.2381 -0.1715
 9305TIP3    H249331   2.858   4.695   1.645 -0.0473 -1.2942 -1.0253
 9306TIP3   OH249332   2.058   2.460  16.112 -0.4534 -0.3439 -0.6973
 9306TIP3    H149333   2.147   2.431  16.092 -0.5493 -1.4962  0.4153
 9306TIP3    H249334   2.069   2.526  16.180 -0.4749 -1.2504  0.2153
 9307TIP3   OH249335   0.639   3.833   2.179 -0.2949  0.0155 -0.0152
 9307TIP3    H149336   0.577   3.824   2.252  1.4877  1.1717  1.7366
 9307TIP3    H249337   0.717   3.872   2.218  0.8858  0.3446 -2.5015
 9308TIP3   OH249338   4.648   1.228   3.590 -0.0103  0.1311 -0.5511
 9308TIP3    H149339   4.591   1.152   3.587 -2.3072  1.7512 -0.5602
 9308TIP3    H249340   4.633   1.267   3.676  0.7584  0.8274 -0.7176
 9309TIP3   OH249341   6.130   4.650  15.136 -0.7073  0.0899  0.0004
 9309TIP3    H149342   6.054   4.645  15.194 -0.4187 -0.1242  0.3674
 9309TIP3    H249343   6.202   4.614  15.188 -0.8436 -2.0520 -1.2066
 9310TIP3   OH249344   4.339   1.352   6.140 -0.3292 -0.0790 -0.1242
 9310TIP3    H149345   4.383   1.267   6.143  0.1203  0.1848  1.2586
 9310TIP3    H249346   4.270   1.346   6.205 -0.3856  0.5675 -0.1172
 9311TIP3   OH249347   2.191   1.172  15.905  0.5207 -0.1254 -0.2235
 9311TIP3    H149348   2.114   1.229  15.901  0.2121 -0.5241  0.0188
 9311TIP3    H249349   2.224   1.184  15.995  0.6153 -0.1185 -0.2598
 9312TIP3   OH249350   4.557   6.311  11.802 -0.8953 -0.2831 -0.0786
 9312TIP3    H149351   4.591   6.397  11.827 -1.6719  0.2020 -0.6392
 9312TIP3    H249352   4.536   6.268  11.885  2.0359 -1.0583  0.3946
 9313TIP3   OH249353   0.059   3.274  12.244  0.0057  0.5256 -0.0847
 9313TIP3    H149354   0.140   3.321  12.224  0.4879 -0.2105  0.0641
 9313TIP3    H249355   0.044   3.218  12.167  1.1381 -1.3241  0.9450
 9314TIP3   OH249356   5.282   2.651   0.785 -0.3476  0.4532  0.3665
 9314TIP3    H149357   5.200   2.667   0.738  0.1032  2.2431  0.1096
 9314TIP3    H249358   5.327   2.736   0.783  1.4202 -0.4418  0.6785
 9315TIP3   OH249359   6.645   2.521   5.681  0.0159  0.1837  0.0260
 9315TIP3    H149360   6.715   2.468   5.643 -1.2199 -0.4067 -1.5369
 9315TIP3    H249361   6.628   2.482   5.766  0.4166 -0.7510 -0.3179
 9316TIP3   OH249362   5.669   1.810   3.850  1.0166  0.2746 -0.0105
 9316TIP3    H149363   5.743   1.856   3.890  0.2090  1.1160  0.5416
 9316TIP3    H249364   5.593   1.840   3.899  0.1593  0.3079 -1.3255
 9317TIP3   OH249365   2.393   1.897   0.123 -0.2736 -0.2176  0.0711
 9317TIP3    H149366   2.407   1.843   0.045  1.5735  1.6976 -1.0066
 9317TIP3    H249367   2.393   1.834   0.195  2.9341 -1.6958 -1.0012
 9318TIP3   OH249368   4.949   1.215  15.502 -0.0201 -0.2843 -0.5539
 9318TIP3    H149369   4.905   1.157  15.440  0.3207 -0.5754 -0.5292
 9318TIP3    H249370   4.996   1.155  15.561 -0.8902 -0.0360  0.4014
 9319TIP3   OH249371   1.110   4.306  10.575  0.0216 -0.9305  0.4722
 9319TIP3    H149372   1.083   4.218  10.552 -1.5617 -0.0656 -1.2877
 9319TIP3    H249373   1.030   4.359  10.568  0.9577  0.6884  1.2473
 9320TIP3   OH249374   0.197   3.873  14.972 -0.2815 -0.3949 -0.0410
 9320TIP3    H149375   0.205   3.967  14.956 -0.3617 -0.3225  0.3476
 9320TIP3    H249376   0.149   3.866  15.054  0.8579 -0.7650  0.6076
 9321TIP3   OH249377   6.166   4.249  11.182 -0.2256 -0.4844 -0.1106
 9321TIP3    H149378   6.260   4.247  11.197 -0.1331 -1.7704 -0.7136
 9321TIP3    H249379   6.146   4.165  11.141 -1.8013 -0.7257  1.0200
 9322TIP3   OH249380   3.004   6.256  16.803  0.1888 -0.2925 -0.5184
 9322TIP3    H149381   2.929   6.304  16.840  1.1135 -0.1001  1.2169
 9322TIP3    H249382   3.079   6.311  16.823  1.0785 -1.6445 -0.0216
 9323TIP3   OH249383   3.472   1.916   0.150  0.1471 -0.3336  0.3210
 9323TIP3    H149384   3.399   1.961   0.108  0.5027  0.3050  0.3759
 9323TIP3    H249385   3.494   1.970   0.225  1.9161  0.5545 -0.7601
 9324TIP3   OH249386   2.420   1.761  16.854 -0.3444 -0.1425 -0.1315
 9324TIP3    H149387   2.389   1.788  16.767  1.9799 -1.0852 -1.3466
 9324TIP3    H249388   2.380   1.675  16.868 -0.6971 -0.0068 -0.2949
 9325TIP3   OH249389   2.267   1.059  11.883 -0.3171 -0.2316 -0.0159
 9325TIP3    H149390   2.243   1.097  11.798 -1.4497  1.3647  0.9751
 9325TIP3    H249391   2.353   1.020  11.868  0.2989  1.5537 -1.4754
 9326TIP3   OH249392   1.473   4.188   0.882  0.1780  0.2801 -0.6109
 9326TIP3    H149393   1.492   4.276   0.913 -0.2483  0.1234  0.1253
 9326TIP3    H249394   1.394   4.163   0.930  0.3479 -0.5344 -0.7504
 9327TIP3   OH249395   4.073   4.108  14.418 -0.3626 -0.3812 -0.0958
 9327TIP3    H149396   4.038   4.196  14.432  0.1680 -0.3037  0.8116
 9327TIP3    H249397   4.085   4.073  14.506  0.1833 -1.0582 -0.4320
 9328TIP3   OH249398   4.798   5.283  12.519 -0.2486 -0.4144  0.2874
 9328TIP3    H149399   4.864   5.351  12.531 -1.2077  0.4688  0.6529
 9328TIP3    H249400   4.793   5.271  12.424  1.5792 -1.6692  0.2884
 9329TIP3   OH249401   5.610   6.391   5.284 -0.0986  0.0074  0.2947
 9329TIP3    H149402   5.648   6.370   5.370  1.8621 -1.1395 -0.7758
 9329TIP3    H249403   5.593   6.306   5.244  0.0207  0.5123 -0.8607
 9330TIP3   OH249404   5.558   6.418   2.977 -0.0644  0.1549 -0.0768
 9330TIP3    H149405   5.648   6.423   3.010 -0.1922 -1.1588  0.5814
 9330TIP3    H249406   5.514   6.493   3.016  0.3332 -0.1648  1.0325
 9331TIP3   OH249407   5.533   4.937  11.553  0.4566 -0.6728  0.2217
 9331TIP3    H149408   5.605   4.877  11.533  3.6136  3.2758 -1.3822
 9331TIP3    H249409   5.566   4.991  11.625 -1.4691  0.4160  0.3463
 9332TIP3   OH249410   6.104   3.606   4.024  0.4619 -0.4046  0.3411
 9332TIP3    H149411   6.100   3.669   3.951  0.8502  0.3913  0.9928
 9332TIP3    H249412   6.073   3.524   3.986  1.9234 -0.3409 -1.0977
 9333TIP3   OH249413   1.052   6.077  13.667  0.1834  0.1058  0.0162
 9333TIP3    H149414   1.085   6.086  13.577 -0.9464 -1.7887 -0.6468
 9333TIP3    H249415   0.966   6.037  13.657 -1.2975  2.5012  1.8267
 9334TIP3   OH249416   4.012   2.646  13.484  0.4899  0.6078  0.7280
 9334TIP3    H149417   4.025   2.734  13.448 -1.3248  0.4572 -0.4845
 9334TIP3    H249418   3.927   2.651  13.528  0.5168 -0.4517  0.9238
 9335TIP3   OH249419   0.551   6.332  12.597  0.3096 -0.2899  0.1282
 9335TIP3    H149420   0.556   6.295  12.508 -0.6618  4.2730 -2.1251
 9335TIP3    H249421   0.641   6.353  12.620  0.4718 -0.6541 -0.1578
 9336TIP3   OH249422   6.127   3.661  13.909 -0.2937  0.0302 -0.2404
 9336TIP3    H149423   6.220   3.644  13.925  0.2354  1.6927 -1.3268
 9336TIP3    H249424   6.106   3.608  13.832  0.4327  1.4869 -1.4870
 9337TIP3   OH249425   1.672   5.370   0.347 -0.0587  0.2992 -0.0314
 9337TIP3    H149426   1.753   5.374   0.296  0.0404  0.0447  0.1063
 9337TIP3    H249427   1.642   5.280   0.336 -0.0028  0.2267  0.4197
 9338TIP3   OH249428   3.364   6.089   3.749 -0.1271  0.2725 -0.0065
 9338TIP3    H149429   3.426   6.155   3.779 -2.2184  2.9237 -1.1059
 9338TIP3    H249430   3.333   6.122   3.664 -1.2686 -2.1615 -0.6263
 9339TIP3   OH249431   0.748   6.471  14.461 -0.4710 -0.0537  0.0038
 9339TIP3    H149432   0.723   6.390  14.505 -0.7019  0.1436  0.2390
 9339TIP3    H249433   0.712   6.540  14.516  2.4016  0.3527  1.5749
 9340TIP3   OH249434   4.014   3.145   4.869  0.4844  0.2321 -0.2843
 9340TIP3    H149435   4.020   3.117   4.960 -0.9774  0.6749 -0.0336
 9340TIP3    H249436   3.959   3.079   4.827 -1.0661  1.4206 -0.2106
 9341TIP3   OH249437   2.300   3.980   2.915 -0.2084  0.0096 -0.0155
 9341TIP3    H149438   2.289   4.072   2.939  0.2871  0.4521 -1.3604
 9341TIP3    H249439   2.212   3.953   2.886  0.1486  0.8838 -2.1398
 9342TIP3   OH249440   2.293   3.809   3.730 -0.4989 -0.6633  0.1065
 9342TIP3    H149441   2.244   3.873   3.783  1.4178  1.7262 -0.8493
 9342TIP3    H249442   2.229   3.778   3.666 -0.9615  2.2353 -1.0045
 9343TIP3   OH249443   5.787   1.407  15.496 -0.2332  0.3665 -0.4855
 9343TIP3    H149444   5.836   1.450  15.565  0.9799  1.2012 -1.8062
 9343TIP3    H249445   5.696   1.405  15.527  0.2700  0.7945  1.0537
 9344TIP3   OH249446   5.950   1.628   0.238  0.5698  0.5547  0.2249
 9344TIP3    H149447   5.930   1.681   0.160  2.2933 -0.8364 -1.2579
 9344TIP3    H249448   5.945   1.690   0.311 -0.9132  1.9512 -0.9747
 9345TIP3   OH249449   2.775   2.110  15.861 -0.3857 -0.1668  0.0425
 9345TIP3    H149450   2.839   2.109  15.791 -1.3469  1.1508 -0.9276
 9345TIP3    H249451   2.788   2.194  15.905 -1.8665  0.4594 -0.6310
 9346TIP3   OH249452   1.286   4.180  11.723  0.0967 -0.2713 -0.2894
 9346TIP3    H149453   1.310   4.159  11.813  0.0353  0.8486  0.0013
 9346TIP3    H249454   1.258   4.096  11.686  1.1558 -0.9478  0.3931
 9347TIP3   OH249455   4.443   6.757   4.197  0.0756 -0.3282  0.2932
 9347TIP3    H149456   4.383   6.805   4.140  0.4362  0.2697  0.4127
 9347TIP3    H249457   4.402   6.762   4.284  1.1761  1.6602  0.7477
 9348TIP3   OH249458   5.422   1.948  11.452  0.1151 -0.0937 -0.3128
 9348TIP3    H149459   5.476   2.017  11.414  1.8410 -1.4729 -0.4723
 9348TIP3    H249460   5.375   1.991  11.524  1.6960  1.0735  0.0660
 9349TIP3   OH249461   5.218   2.805   2.100 -0.5127 -0.1755  0.0706
 9349TIP3    H149462   5.204   2.836   2.011  0.0240  3.1468  0.9970
 9349TIP3    H249463   5.292   2.857   2.132  0.2745 -2.3134  2.0207
 9350TIP3   OH249464   2.458   3.202   0.039  0.6399  0.7893 -0.4763
 9350TIP3    H149465   2.367   3.180   0.020  0.1882  1.4089  0.8885
 9350TIP3    H249466   2.508   3.134  -0.006 -0.5203 -0.0170 -0.6093
 9351TIP3   OH249467   5.933   4.732  12.572  0.0367  0.6754  1.0284
 9351TIP3    H149468   5.993   4.783  12.518  2.1587 -1.3331  1.3193
 9351TIP3    H249469   5.980   4.651  12.590 -3.1780 -1.4690  0.5100
 9352TIP3   OH249470   6.536   5.457   5.813  0.3815 -0.0670 -0.0277
 9352TIP3    H149471   6.530   5.376   5.864 -1.6102  1.1989  1.9248
 9352TIP3    H249472   6.451   5.498   5.824  1.4505  2.4700 -0.6793
 9353TIP3   OH249473   2.616   5.112   2.505  0.0064  0.6603 -0.1301
 9353TIP3    H149474   2.631   5.161   2.586 -1.3723 -0.8648  1.1084
 9353TIP3    H249475   2.704   5.095   2.471  0.7628 -0.3250  2.0945
 9354TIP3   OH249476   0.022   4.743  14.391 -0.1517 -0.2555 -0.8962
 9354TIP3    H149477   0.051   4.659  14.427  0.1535 -0.1466 -0.8859
 9354TIP3    H249478   0.002   4.723  14.300 -1.4451 -0.6504 -0.5421
 9355TIP3   OH249479   2.166   1.997  14.459 -0.5018  0.2076  0.3597
 9355TIP3    H149480   2.074   2.019  14.447 -0.0476  2.0373 -0.0055
 9355TIP3    H249481   2.164   1.914  14.508 -2.3376 -1.1560 -1.8049
 9356TIP3   OH249482   2.589   1.184   0.472  0.2132 -0.3025 -0.4848
 9356TIP3    H149483   2.595   1.266   0.520  1.8750 -1.0107  0.6200
 9356TIP3    H249484   2.658   1.191   0.405 -1.4286  0.2702 -2.1900
 9357TIP3   OH249485   2.917   5.494   2.646 -0.1159 -0.2838  0.5471
 9357TIP3    H149486   2.957   5.407   2.646 -1.0769 -0.7355  0.2484
 9357TIP3    H249487   2.988   5.552   2.675  0.5085 -1.1693  0.8630
 9358TIP3   OH249488   4.970   1.949  11.869  0.1178  0.3117 -0.2053
 9358TIP3    H149489   5.010   2.027  11.910  2.1548  0.3124 -2.0143
 9358TIP3    H249490   4.938   1.981  11.785  1.3655 -0.8476 -1.1545
 9359TIP3   OH249491   0.158   0.371   1.801  0.7050 -0.0896  0.7956
 9359TIP3    H149492   0.095   0.419   1.854 -1.1010  1.3674 -2.3346
 9359TIP3    H249493   0.242   0.383   1.845 -0.6754  0.7075  3.3823
 9360TIP3   OH249494   6.786   5.976  13.909 -0.7303 -0.7645  0.0543
 9360TIP3    H149495   6.803   6.062  13.945 -0.3343 -0.5693 -0.5860
 9360TIP3    H249496   6.869   5.929  13.917 -1.0613 -1.2413  0.8027
 9361TIP3   OH249497   0.585   2.223  15.143 -0.0930 -0.8168 -0.0025
 9361TIP3    H149498   0.557   2.136  15.173 -0.1925 -1.4416 -1.7683
 9361TIP3    H249499   0.667   2.239  15.189 -0.6976 -1.2781  1.2898
 9362TIP3   OH249500   1.686   6.576   5.656  0.6392 -0.0522 -0.6049
 9362TIP3    H149501   1.731   6.652   5.618 -0.1680  0.9816  0.4390
 9362TIP3    H249502   1.719   6.572   5.746 -1.4840  0.9210  0.2930
 9363TIP3   OH249503   5.967   5.651  12.178 -0.0859  0.4881 -0.2932
 9363TIP3    H149504   6.041   5.653  12.240 -0.6479  0.5033  0.3925
 9363TIP3    H249505   5.911   5.724  12.205 -0.8071 -0.0823 -0.2131
 9364TIP3   OH249506   6.541   6.135  14.404  0.6293  0.1323 -0.6063
 9364TIP3    H149507   6.528   6.049  14.364  0.8841  0.2900 -1.0434
 9364TIP3    H249508   6.625   6.128  14.449  1.1244  0.4411 -1.4583
 9365TIP3   OH249509   2.213   4.270  10.594 -0.2941 -0.3955 -0.6211
 9365TIP3    H149510   2.257   4.321  10.527 -1.7881  0.3504 -1.0894
 9365TIP3    H249511   2.138   4.231  10.550 -0.5055 -1.0736  0.2896
 9366TIP3   OH249512   5.341   0.655  17.170 -0.0689 -0.2631  0.3149
 9366TIP3    H149513   5.333   0.751  17.171  0.7341 -0.1337 -1.7454
 9366TIP3    H249514   5.387   0.634  17.251  2.5803  1.4311 -0.6106
 9367TIP3   OH249515   5.722   0.105  12.105 -0.3319 -0.5437 -0.2750
 9367TIP3    H149516   5.646   0.140  12.150  0.2428  0.2336  0.1139
 9367TIP3    H249517   5.729   0.155  12.024 -0.5444 -0.9816 -0.5690
 9368TIP3   OH249518   3.754   1.960   2.572  0.0772  0.2318 -0.1594
 9368TIP3    H149519   3.670   1.915   2.572  0.3478 -0.3849 -1.9548
 9368TIP3    H249520   3.790   1.946   2.659 -1.1361 -0.5477  0.2272
 9369TIP3   OH249521   3.739   3.521   3.537 -0.3784  0.0206  0.2326
 9369TIP3    H149522   3.674   3.545   3.604 -1.0210 -1.3765  0.1563
 9369TIP3    H249523   3.739   3.594   3.476  1.4111  2.1337  2.5555
 9370TIP3   OH249524   1.478   1.057  14.343 -1.0046  0.3065 -0.2151
 9370TIP3    H149525   1.530   1.137  14.340  2.0189 -1.5261 -1.2798
 9370TIP3    H249526   1.465   1.033  14.251 -0.1102 -1.4298  0.0813
 9371TIP3   OH249527   5.931   5.647   0.784 -0.3067  0.1972  0.5362
 9371TIP3    H149528   5.876   5.678   0.712  0.1534  0.7979  0.4310
 9371TIP3    H249529   5.895   5.562   0.807  1.0133 -1.1847 -2.0203
 9372TIP3   OH249530   3.774   0.077  12.423 -0.0922  0.9432 -0.3294
 9372TIP3    H149531   3.829   0.111  12.352 -2.9556  4.1336 -1.3109
 9372TIP3    H249532   3.778   0.144  12.491  0.0454 -0.5249  1.1781
 9373TIP3   OH249533   0.464   3.608   5.292 -0.0262 -0.0754 -0.4481
 9373TIP3    H149534   0.418   3.653   5.363  0.0372 -1.9798  0.8786
 9373TIP3    H249535   0.520   3.675   5.253 -0.4750  1.1559  0.9403
 9374TIP3   OH249536   0.084   0.048  16.060 -0.1261 -0.3731  0.5880
 9374TIP3    H149537   0.132  -0.017  16.110  1.5987  0.5203  0.1728
 9374TIP3    H249538   0.098   0.130  16.107 -1.1058 -0.0520  0.3432
 9375TIP3   OH249539   2.655   1.977  16.216  0.2368  0.3885  0.3195
 9375TIP3    H149540   2.701   2.020  16.289 -1.5230 -0.5997  2.1327
 9375TIP3    H249541   2.593   1.919  16.259 -0.5549 -0.6057 -2.0359
 9376TIP3   OH249542   5.335   2.644   3.391 -0.4639 -0.3095 -0.3025
 9376TIP3    H149543   5.342   2.705   3.464 -1.4121  0.1209 -0.5593
 9376TIP3    H249544   5.396   2.574   3.413 -0.5840 -0.0897  0.8022
 9377TIP3   OH249545   4.830   2.150  13.056 -0.3170  0.5134 -0.8593
 9377TIP3    H149546   4.870   2.068  13.085 -1.0119  0.1840 -0.8175
 9377TIP3    H249547   4.736   2.136  13.067 -0.3865  1.9531  0.8929
 9378TIP3   OH249548   5.646   6.253   5.529  0.0260  0.1839  0.3416
 9378TIP3    H149549   5.692   6.171   5.513  1.3243  1.1706 -1.2788
 9378TIP3    H249550   5.706   6.304   5.582 -0.1860  0.6084  0.1771
 9379TIP3   OH249551   0.371   4.622   4.903 -0.0455  0.3177 -0.1152
 9379TIP3    H149552   0.384   4.535   4.942  0.5448  0.0991 -0.7822
 9379TIP3    H249553   0.459   4.658   4.896 -0.2787  0.9204  0.0256
 9380TIP3   OH249554   6.356   2.034   4.935 -0.0315 -0.7074  0.1084
 9380TIP3    H149555   6.402   2.081   5.005 -0.3568 -1.4178  0.8104
 9380TIP3    H249556   6.273   2.081   4.925  0.2328 -0.2953 -0.1576
 9381TIP3   OH249557   6.544   1.276  13.701 -0.0339  0.0764  0.6737
 9381TIP3    H149558   6.493   1.201  13.731  0.4782  0.2933  2.1513
 9381TIP3    H249559   6.551   1.264  13.606 -1.9603 -0.4816  0.5498
 9382TIP3   OH249560   1.065   1.780  12.441 -0.2943 -0.3520  0.2183
 9382TIP3    H149561   1.086   1.864  12.482 -0.8511 -0.0219 -0.1601
 9382TIP3    H249562   1.136   1.765  12.379 -1.0808  0.7068 -0.9834
 9383TIP3   OH249563   0.277   3.599   5.027  0.5024 -0.6448  0.1139
 9383TIP3    H149564   0.277   3.661   5.100  1.7150  0.3241 -0.6668
 9383TIP3    H249565   0.353   3.543   5.044  1.1711 -0.0183 -0.6803
 9384TIP3   OH249566   5.454   0.567  13.495  0.3822  0.2519  0.6414
 9384TIP3    H149567   5.398   0.621  13.551  0.2030 -0.2916  0.9900
 9384TIP3    H249568   5.503   0.511  13.556  0.0605 -0.4644  0.2609
 9385TIP3   OH249569   6.465   1.605  15.610 -0.1717 -0.1453 -0.5287
 9385TIP3    H149570   6.434   1.689  15.643 -1.6779 -0.7584 -0.3357
 9385TIP3    H249571   6.456   1.545  15.684  0.6661 -0.5484 -0.7376
 9386TIP3   OH249572   0.504   6.514   3.859  0.3978  0.2502  0.0811
 9386TIP3    H149573   0.592   6.549   3.877  1.2895 -1.6308 -0.3419
 9386TIP3    H249574   0.520   6.430   3.815 -1.6274 -0.1606  0.0238
 9387TIP3   OH249575   1.095   0.932   1.041 -0.0908 -0.4953 -0.0503
 9387TIP3    H149576   1.148   0.907   1.117  0.5797 -0.9253 -0.6495
 9387TIP3    H249577   1.074   0.849   0.998 -2.0131 -0.4226  0.6519
 9388TIP3   OH249578   1.376   6.270   3.597 -0.5001  0.0804 -0.1182
 9388TIP3    H149579   1.458   6.265   3.548 -0.6688  0.6589 -0.4746
 9388TIP3    H249580   1.371   6.361   3.628  0.4910 -0.6939  2.5831
 9389TIP3   OH249581   1.096   3.551   1.403  0.5094  0.5436  0.0637
 9389TIP3    H149582   1.045   3.471   1.420  1.4625 -0.3509 -1.1029
 9389TIP3    H249583   1.161   3.524   1.339  2.7197  1.5782  1.7698
 9390TIP3   OH249584   3.477   3.819  13.816  0.3044 -0.4114 -0.2509
 9390TIP3    H149585   3.491   3.728  13.790  2.4445 -0.7132  1.5940
 9390TIP3    H249586   3.412   3.814  13.886  1.0453 -0.6798  0.4429
 9391TIP3   OH249587   1.245   4.705  11.699 -0.4775 -0.0188  0.3097
 9391TIP3    H149588   1.249   4.665  11.612  0.9023 -3.6869  1.8519
 9391TIP3    H249589   1.152   4.700  11.724 -0.5574 -0.8690 -0.1413
 9392TIP3   OH249590   2.026   5.125   1.899 -0.5263  0.1438 -0.0534
 9392TIP3    H149591   2.035   5.140   1.805 -2.1314  0.4495 -0.1827
 9392TIP3    H249592   2.114   5.138   1.934 -0.3980  2.8664 -1.1463
 9393TIP3   OH249593   4.333   4.615   0.944 -0.2164  0.4300  0.0162
 9393TIP3    H149594   4.369   4.703   0.958 -2.5229  1.3030  0.9572
 9393TIP3    H249595   4.284   4.596   1.024 -1.3269 -0.9108 -0.9215
 9394TIP3   OH249596   2.999   3.374  17.090  0.1173 -0.2768  0.1971
 9394TIP3    H149597   2.948   3.326  17.156  1.4601 -0.9320  0.8008
 9394TIP3    H249598   2.966   3.342  17.006 -1.4676  0.4038  0.5162
 9395TIP3   OH249599   2.820   2.880  12.026  0.0443  0.0535  0.4651
 9395TIP3    H149600   2.915   2.889  12.013  0.2009 -1.4446  0.4880
 9395TIP3    H249601   2.782   2.902  11.941  0.5153 -0.8462  0.0147
 9396TIP3   OH249602   0.802   6.739   2.698 -0.3717 -0.0458 -0.1318
 9396TIP3    H149603   0.822   6.681   2.771  0.1093 -1.4955 -1.3653
 9396TIP3    H249604   0.722   6.703   2.659  1.2172 -1.4317 -2.3681
 9397TIP3   OH249605   4.248   6.097   0.548 -0.7911  0.8376 -0.2743
 9397TIP3    H149606   4.244   6.114   0.454  0.7111  0.8342 -0.3627
 9397TIP3    H249607   4.273   6.005   0.554  0.6320  1.2292  0.0961
 9398TIP3   OH249608   6.030   5.590   3.896 -0.3388 -0.5801 -0.4206
 9398TIP3    H149609   6.103   5.585   3.834 -0.3046  1.6351 -0.6211
 9398TIP3    H249610   5.965   5.528   3.861  0.4965 -0.8742 -1.5244
 9399TIP3   OH249611   6.126   5.050   2.577  0.9329 -0.7630  0.1646
 9399TIP3    H149612   6.087   5.109   2.513  0.5258 -1.2890 -0.0764
 9399TIP3    H249613   6.143   5.105   2.654  1.2406 -0.1776 -0.3207
 9400TIP3   OH249614   1.060   4.148   1.518  1.1398 -0.5413 -0.2894
 9400TIP3    H149615   1.144   4.104   1.526  0.6060 -1.2969  2.0999
 9400TIP3    H249616   1.062   4.215   1.587  0.3064  0.3793 -1.1240
 9401TIP3   OH249617   6.260   3.084   5.011 -0.1502  0.1393 -0.1363
 9401TIP3    H149618   6.344   3.082   4.965  0.4679  3.1160  0.6585
 9401TIP3    H249619   6.194   3.094   4.942  0.5975  2.5369 -0.6041
 9402TIP3   OH249620   1.049   0.847   2.591 -0.0686 -0.0748 -0.0287
 9402TIP3    H149621   1.067   0.900   2.669 -0.3704 -1.1704  0.8019
 9402TIP3    H249622   1.095   0.764   2.607  0.2897 -0.1314 -1.2521
 9403TIP3   OH249623   0.722   6.624   5.680 -0.4166 -0.3483  0.2109
 9403TIP3    H149624   0.732   6.543   5.731 -1.3406  0.8903  2.5022
 9403TIP3    H249625   0.629   6.646   5.690  0.0030  1.4476  0.3626
 9404TIP3   OH249626   0.116   5.662  11.232 -0.0398 -0.0967  0.1781
 9404TIP3    H149627   0.204   5.686  11.201  0.4315 -1.6000  0.2329
 9404TIP3    H249628   0.124   5.661  11.327  0.0273 -0.6572  0.1730
 9405TIP3   OH249629   3.594   3.377  11.435  0.3437 -0.2558  0.6187
 9405TIP3    H149630   3.684   3.364  11.464 -0.1162 -0.1905  2.2023
 9405TIP3    H249631   3.546   3.395  11.516 -1.0959 -0.3328 -0.1921
 9406TIP3   OH249632   0.635   3.003  16.744  0.2799 -0.1427  0.0902
 9406TIP3    H149633   0.691   3.052  16.804 -0.0992  1.8819 -1.1438
 9406TIP3    H249634   0.558   3.057  16.732 -1.3133 -2.1753  0.5363
 9407TIP3   OH249635   6.315   2.550  12.108 -0.0297 -0.1692 -0.4503
 9407TIP3    H149636   6.400   2.507  12.110 -0.5953 -1.3535 -0.9102
 9407TIP3    H249637   6.334   2.641  12.131  1.2591 -0.5525  0.1018
 9408TIP3   OH249638   2.234   2.538  14.185 -0.1470  0.2272 -0.3489
 9408TIP3    H149639   2.245   2.518  14.278  2.5271 -0.3284 -0.7008
 9408TIP3    H249640   2.205   2.629  14.184  0.1312  0.3644  1.0329
 9409TIP3   OH249641   4.549   1.924   5.143  0.1264  0.6869  0.2595
 9409TIP3    H149642   4.636   1.949   5.172  0.3935  0.2924 -0.1971
 9409TIP3    H249643   4.506   1.889   5.222  0.9696 -0.7184  0.1243
 9410TIP3   OH249644   2.558   0.327  11.261 -0.2799 -0.1452 -0.0750
 9410TIP3    H149645   2.567   0.299  11.352  1.6643 -1.6888 -0.6735
 9410TIP3    H249646   2.486   0.390  11.262 -0.4984 -0.3485  2.4626
 9411TIP3   OH249647   2.886   1.579   0.381  0.3684 -0.0265  0.7298
 9411TIP3    H149648   2.927   1.494   0.367 -0.1041 -0.4076  1.5657
 9411TIP3    H249649   2.886   1.591   0.476 -2.5031 -0.6258  0.9034
 9412TIP3   OH249650   3.662   1.844  16.348 -0.1567 -0.5785 -0.0259
 9412TIP3    H149651   3.603   1.905  16.303 -0.7992 -0.1361  1.3508
 9412TIP3    H249652   3.749   1.867  16.315 -0.6819 -1.0900 -1.9302
 9413TIP3   OH249653   1.494   5.047   1.478  0.0786  0.5087  0.4781
 9413TIP3    H149654   1.575   4.999   1.459  0.3877  0.7909  1.0379
 9413TIP3    H249655   1.473   5.092   1.396  0.5775  0.5553  0.3693
 9414TIP3   OH249656   2.226   1.355  13.725 -0.2722  0.1127 -0.0278
 9414TIP3    H149657   2.159   1.305  13.678 -0.1590 -0.7180  0.6856
 9414TIP3    H249658   2.279   1.289  13.770  0.1295  0.8507  0.6007
 9415TIP3   OH249659   4.013   5.772  11.307  0.2727 -0.1663 -0.6327
 9415TIP3    H149660   4.008   5.854  11.258 -0.8287 -0.1813 -0.5757
 9415TIP3    H249661   4.053   5.796  11.390  3.3888 -0.3717 -1.9497
 9416TIP3   OH249662   0.260   0.570  16.167 -0.1503  0.4326 -0.5561
 9416TIP3    H149663   0.244   0.659  16.199 -0.1779 -0.0025  0.6793
 9416TIP3    H249664   0.352   0.571  16.140  0.8380  0.0151  2.4437
 9417TIP3   OH249665   1.065   6.161  13.935 -0.0865 -0.1631  0.0976
 9417TIP3    H149666   0.975   6.185  13.960  0.2839  1.8927 -0.3850
 9417TIP3    H249667   1.065   6.162  13.840  0.0288 -1.9798  0.0466
 9418TIP3   OH249668   6.467   3.858   5.686 -0.6389 -0.6294 -0.2269
 9418TIP3    H149669   6.469   3.899   5.773  2.1948  2.0289 -1.3636
 9418TIP3    H249670   6.401   3.906   5.638 -1.1824 -1.1283  0.0110
 9419TIP3   OH249671   3.009   1.254  15.938  0.2573  0.0337  0.2701
 9419TIP3    H149672   2.990   1.176  15.886 -1.6723 -1.0114  2.3925
 9419TIP3    H249673   2.924   1.297  15.948  0.5553  0.2088  2.4871
 9420TIP3   OH249674   4.117   3.004  13.672 -0.2186 -0.4159 -0.4763
 9420TIP3    H149675   4.192   3.062  13.661 -1.3608  0.9471 -1.5287
 9420TIP3    H249676   4.044   3.051  13.631 -1.3396 -2.3512 -0.8465
 9421TIP3   OH249677   2.726   3.764   4.961 -0.4243  0.1568 -0.6706
 9421TIP3    H149678   2.760   3.853   4.956  1.3845 -0.5190 -1.0725
 9421TIP3    H249679   2.662   3.759   4.889 -0.4052  1.0500 -0.7662
 9422TIP3   OH249680   0.429   4.074  11.551  0.0609 -0.0151 -0.2594
 9422TIP3    H149681   0.344   4.078  11.595 -0.1966 -0.0436 -0.7401
 9422TIP3    H249682   0.487   4.129  11.604 -1.2186  3.3554 -2.0485
 9423TIP3   OH249683   0.462   2.905  15.046 -0.1158 -0.0756  0.0689
 9423TIP3    H149684   0.369   2.927  15.042  0.0211  0.5987  0.5123
 9423TIP3    H249685   0.476   2.872  15.135 -0.5304 -3.0579 -0.8333
 9424TIP3   OH249686   1.613   2.931   5.589 -0.2342 -0.2972 -0.1038
 9424TIP3    H149687   1.599   2.979   5.507 -2.4962  0.7758  0.8187
 9424TIP3    H249688   1.529   2.886   5.604  0.7692 -1.9736  0.7098
 9425TIP3   OH249689   0.099   5.049  14.320 -0.0641 -0.2008  0.5637
 9425TIP3    H149690   0.075   4.960  14.295  1.1952 -1.0364  2.0777
 9425TIP3    H249691   0.176   5.069  14.267 -0.8824  0.3875 -0.4446
 9426TIP3   OH249692   4.351   0.127   6.104  0.1254 -0.0600  0.3271
 9426TIP3    H149693   4.354   0.159   6.014 -1.3245 -1.0244 -0.0923
 9426TIP3    H249694   4.263   0.150   6.135 -0.1069 -1.4872  0.8136
 9427TIP3   OH249695   0.767   5.070  16.704  0.5169 -0.4217 -0.2473
 9427TIP3    H149696   0.671   5.065  16.699  0.4163  0.1908  0.7650
 9427TIP3    H249697   0.785   5.077  16.797  1.5397 -0.1885 -0.4569
 9428TIP3   OH249698   2.626   4.101  13.580  0.1667  0.1735 -0.4519
 9428TIP3    H149699   2.628   4.152  13.499 -2.5237  1.3057  0.0985
 9428TIP3    H249700   2.642   4.165  13.649 -1.3146 -0.0511  0.1259
 9429TIP3   OH249701   2.277   1.991   2.820  0.2790  0.0786  0.0872
 9429TIP3    H149702   2.217   1.919   2.838  1.1368 -0.6366  0.1911
 9429TIP3    H249703   2.261   2.014   2.729 -2.1770  1.8763  0.8852
 9430TIP3   OH249704   2.543   6.083  15.506  0.3541 -0.2925 -0.3272
 9430TIP3    H149705   2.452   6.083  15.537  0.4778 -0.6918  0.0538
 9430TIP3    H249706   2.559   5.992  15.479  1.2598 -0.7129  1.4993
 9431TIP3   OH249707   4.166   2.598   4.570 -0.5393 -0.9682  0.8033
 9431TIP3    H149708   4.166   2.610   4.475 -1.4639  2.5178  1.1003
 9431TIP3    H249709   4.257   2.583   4.593 -0.1616 -0.7885 -0.5145
 9432TIP3   OH249710   0.054   6.450   3.352 -0.7488  0.1330 -0.1162
 9432TIP3    H149711   0.011   6.522   3.306 -1.1679 -0.3012 -0.4174
 9432TIP3    H249712   0.015   6.450   3.440  0.6806  1.5199  0.5786
 9433TIP3   OH249713   1.873   6.508  10.953 -0.2327  0.0131 -0.6990
 9433TIP3    H149714   1.954   6.532  10.998 -0.6871  1.9053 -0.8139
 9433TIP3    H249715   1.826   6.455  11.016 -0.7779  2.4541  1.0989
 9434TIP3   OH249716   0.071   3.512   2.252 -0.1065  1.1326  0.2711
 9434TIP3    H149717   0.083   3.538   2.343  1.2179  1.9062 -0.0958
 9434TIP3    H249718   0.021   3.430   2.257 -1.5695  2.0570  1.5901
 9435TIP3   OH249719   4.122   5.940  10.375 -0.4661  0.0598  0.0224
 9435TIP3    H149720   4.073   5.868  10.413 -1.2767  0.4104 -0.3343
 9435TIP3    H249721   4.062   6.014  10.377  0.3616  0.7457  0.4168
 9436TIP3   OH249722   4.884   0.484  17.004  0.1837  0.0575  0.3287
 9436TIP3    H149723   4.911   0.501  17.094 -0.4956  1.3353  0.3261
 9436TIP3    H249724   4.963   0.453  16.960  0.9352  0.9815  0.9892
 9437TIP3   OH249725   6.308   3.189  13.238 -0.2903  0.2099 -0.3017
 9437TIP3    H149726   6.401   3.167  13.238 -0.5645 -0.9900  0.0359
 9437TIP3    H249727   6.302   3.267  13.182  0.8853  0.2073 -0.4528
 9438TIP3   OH249728   1.262   5.863   5.995 -0.0526 -0.5329 -0.2806
 9438TIP3    H149729   1.181   5.825   6.028 -0.3820 -0.2510 -0.7601
 9438TIP3    H249730   1.295   5.799   5.932  0.3680 -0.8846  0.2880
 9439TIP3   OH249731   1.142   2.673  10.757 -0.1997  0.0818 -0.4888
 9439TIP3    H149732   1.218   2.726  10.782 -0.9532 -0.0286  2.3879
 9439TIP3    H249733   1.157   2.589  10.800 -1.1259 -0.5673 -1.3946
 9440TIP3   OH249734   6.048   3.335  13.547  0.0067  0.5222 -0.1133
 9440TIP3    H149735   6.009   3.354  13.462 -1.5317  1.8099  0.8306
 9440TIP3    H249736   5.978   3.295  13.598  0.7727  0.1593  0.7033
 9441TIP3   OH249737   3.025   1.954  15.022 -0.3720 -0.7010 -0.1191
 9441TIP3    H149738   2.973   2.027  14.989  0.7274  0.0753 -0.1783
 9441TIP3    H249739   2.960   1.888  15.046 -1.4124  0.4340  0.3007
 9442TIP3   OH249740   2.450   6.804   3.219 -0.5653  1.0551 -0.2620
 9442TIP3    H149741   2.463   6.837   3.130  0.8118 -0.0267 -0.4879
 9442TIP3    H249742   2.456   6.709   3.211 -2.6494  0.7763  0.6642
 9443TIP3   OH249743   2.562   3.066   1.232  0.2215  0.2090 -0.3730
 9443TIP3    H149744   2.501   3.072   1.159  0.4270  0.4901 -0.5211
 9443TIP3    H249745   2.565   2.972   1.253  1.3916 -0.0994 -1.7720
 9444TIP3   OH249746   5.281   3.748   4.280 -0.4590  0.5285 -0.0200
 9444TIP3    H149747   5.203   3.704   4.248 -0.2062  0.1579 -0.1342
 9444TIP3    H249748   5.270   3.839   4.253 -1.2888  0.6873  0.7763
 9445TIP3   OH249749   0.486   2.042  13.223  0.7847  0.4937  0.4423
 9445TIP3    H149750   0.450   1.965  13.179 -0.2080  0.9337  0.4575
 9445TIP3    H249751   0.471   2.114  13.162 -1.1637  1.2222  1.6971
 9446TIP3   OH249752   6.367   4.979  14.527 -0.2423  0.5581 -0.2936
 9446TIP3    H149753   6.458   4.957  14.508 -0.3366 -0.3179  0.1975
 9446TIP3    H249754   6.364   4.985  14.622 -1.0776 -1.2895 -0.1654
 9447TIP3   OH249755   3.924   0.294  12.971 -0.3219 -0.4089 -0.2604
 9447TIP3    H149756   3.893   0.341  12.893  0.6287 -0.6817 -0.8187
 9447TIP3    H249757   3.849   0.244  13.000 -0.9636  0.4072 -0.4554
 9448TIP3   OH249758   5.855   0.111  11.763  0.5345 -0.0883 -0.5406
 9448TIP3    H149759   5.944   0.083  11.741  0.7717  0.1067  0.1391
 9448TIP3    H249760   5.811   0.030  11.791  1.8228  0.3710  3.4278
 9449TIP3   OH249761   3.590   5.641   0.636  0.4203  0.4651  0.4087
 9449TIP3    H149762   3.591   5.588   0.556 -0.0835 -0.3486  0.9279
 9449TIP3    H249763   3.681   5.642   0.665  0.8375  1.8155 -0.8332
 9450TIP3   OH249764   2.944   3.270  12.459 -0.4914 -0.1862 -0.1275
 9450TIP3    H149765   2.858   3.228  12.454 -0.6167  0.1009 -0.4522
 9450TIP3    H249766   3.000   3.220  12.401  0.4882 -2.4721  2.5652
 9451TIP3   OH249767   5.758   5.115  14.084  0.2427 -0.0452 -0.2247
 9451TIP3    H149768   5.806   5.091  14.005 -0.2773  2.0913 -1.2734
 9451TIP3    H249769   5.691   5.047  14.093  1.3178 -1.2026 -0.6540
 9452TIP3   OH249770   3.221   3.396   5.461  0.0341  0.3394 -0.1999
 9452TIP3    H149771   3.170   3.452   5.520 -0.5110 -1.4805  1.1527
 9452TIP3    H249772   3.156   3.355   5.404  0.2767  0.0577 -0.2778
 9453TIP3   OH249773   2.180   4.231   4.061 -0.2094 -0.1370  0.1494
 9453TIP3    H149774   2.203   4.239   3.969  0.6848  1.1575  0.4594
 9453TIP3    H249775   2.086   4.213   4.061 -0.5176  1.3070 -0.9830
 9454TIP3   OH249776   1.332   3.389   0.951 -0.1237 -0.1367  0.2216
 9454TIP3    H149777   1.271   3.328   0.909 -1.7718  1.7228 -0.1868
 9454TIP3    H249778   1.326   3.469   0.900  1.8912  0.4689  0.8385
 9455TIP3   OH249779   3.565   0.065  13.968 -0.4177 -0.0648  0.0455
 9455TIP3    H149780   3.578   0.035  14.058 -1.1596  0.7715  0.4477
 9455TIP3    H249781   3.653   0.090  13.939 -0.2660  0.2835  0.7728
 9456TIP3   OH249782   3.454   6.369  14.270 -0.1349 -0.0917 -0.3187
 9456TIP3    H149783   3.500   6.286  14.277  0.9075  0.4881 -0.1335
 9456TIP3    H249784   3.365   6.350  14.298  0.2157 -1.0356  0.1723
 9457TIP3   OH249785   1.856   1.988  15.811  0.0587  0.5477 -0.9473
 9457TIP3    H149786   1.873   2.013  15.720  1.0830  1.3775 -0.5606
 9457TIP3    H249787   1.929   1.931  15.834 -0.9465 -0.8056 -1.0536
 9458TIP3   OH249788   4.808   2.251  11.654 -0.5582  0.8090  0.0711
 9458TIP3    H149789   4.823   2.158  11.670 -1.8811  0.8748  2.1548
 9458TIP3    H249790   4.893   2.285  11.628  0.2483 -0.7666  0.4999
 9459TIP3   OH249791   4.532   4.378   0.606 -0.0253 -0.0890  0.2316
 9459TIP3    H149792   4.589   4.318   0.557 -1.0119  1.5064 -3.2010
 9459TIP3    H249793   4.567   4.465   0.585 -0.4994  0.7154  2.5456
 9460TIP3   OH249794   4.545   0.203  13.404 -0.7392 -0.9259  0.0952
 9460TIP3    H149795   4.456   0.187  13.437 -1.3955  1.2814 -0.4692
 9460TIP3    H249796   4.552   0.298  13.397  1.2566 -1.0960 -1.0447
 9461TIP3   OH249797   4.679   5.034  10.938  0.1131 -0.3359  0.2665
 9461TIP3    H149798   4.758   5.069  10.980  0.8282 -1.3343 -0.1946
 9461TIP3    H249799   4.689   4.939  10.946 -1.8946 -0.5012  1.7576
 9462TIP3   OH249800   6.423   0.518  10.865  0.3070 -0.3476 -0.1128
 9462TIP3    H149801   6.469   0.474  10.793  0.0489 -1.1977  0.2247
 9462TIP3    H249802   6.333   0.487  10.857  0.5012 -1.3742  1.2538
 9463TIP3   OH249803   6.707   5.539   4.990 -0.0119  0.6869 -0.1555
 9463TIP3    H149804   6.614   5.525   5.006  0.6039 -0.5393  3.1181
 9463TIP3    H249805   6.727   5.623   5.031  0.6391 -0.0281  1.0764
 9464TIP3   OH249806   5.387   3.173  17.145 -0.5609 -0.1280  0.1524
 9464TIP3    H149807   5.442   3.211  17.213  0.7692  3.2672 -2.4538
 9464TIP3    H249808   5.301   3.210  17.161 -0.2027  0.8404 -0.0714
 9465TIP3   OH249809   0.867   1.245  12.119 -0.2141  0.1397  0.0450
 9465TIP3    H149810   0.873   1.271  12.211  1.5313 -1.3938  0.4120
 9465TIP3    H249811   0.856   1.328  12.071 -2.5266  0.8659  1.6771
 9466TIP3   OH249812   1.393   6.183  11.619 -0.4029  0.6692  0.1848
 9466TIP3    H149813   1.347   6.245  11.676 -0.5063  0.1176  0.7086
 9466TIP3    H249814   1.332   6.110  11.608 -0.2817  0.6504 -0.4279
 9467TIP3   OH249815   4.477   3.475   5.618 -0.1966 -0.7480  0.5531
 9467TIP3    H149816   4.433   3.560   5.620 -0.3507 -0.8092 -0.1115
 9467TIP3    H249817   4.410   3.412   5.644 -0.0343 -0.6584  1.2265
 9468TIP3   OH249818   5.927   2.137   1.180  0.3682  0.6590 -0.6413
 9468TIP3    H149819   5.845   2.171   1.143  0.0853 -0.4152 -1.0523
 9468TIP3    H249820   5.902   2.054   1.221  1.1844  0.5038 -0.4394
 9469TIP3   OH249821   5.408   4.864  15.795  0.8007 -0.5031 -0.4551
 9469TIP3    H149822   5.320   4.826  15.796  0.1204  0.9557  1.7847
 9469TIP3    H249823   5.450   4.830  15.874  1.2442  0.9695 -0.0259
 9470TIP3   OH249824   6.542   4.760   3.463 -0.2046  0.2073  0.4046
 9470TIP3    H149825   6.520   4.854   3.461 -0.1050  0.2489 -1.6363
 9470TIP3    H249826   6.617   4.752   3.404  0.2277 -1.0776  1.0907
 9471TIP3   OH249827   4.593   4.777   2.551 -0.1166 -0.5205 -0.2646
 9471TIP3    H149828   4.542   4.776   2.632 -0.6174  1.9173 -0.4773
 9471TIP3    H249829   4.683   4.761   2.580 -0.3993 -0.4945  0.6764
 9472TIP3   OH249830   1.770   2.148  16.934 -0.1369 -0.5957  0.3890
 9472TIP3    H149831   1.771   2.059  16.970  1.0188 -0.1957  1.4526
 9472TIP3    H249832   1.740   2.203  17.007  0.3745  0.0160  0.1524
 9473TIP3   OH249833   5.857   5.120  16.070  0.4977  0.7079  0.0324
 9473TIP3    H149834   5.846   5.026  16.055  0.5525  0.6983  0.0546
 9473TIP3    H249835   5.913   5.126  16.148  2.2732  0.7379 -1.1714
 9474TIP3   OH249836   4.600   1.500   3.385 -0.5278 -0.2603 -0.7774
 9474TIP3    H149837   4.637   1.588   3.395  0.1047 -0.6436  0.3564
 9474TIP3    H249838   4.675   1.441   3.391 -1.2107 -1.0181  0.9566
 9475TIP3   OH249839   3.856   1.985  12.399 -0.1182 -0.0373  0.1977
 9475TIP3    H149840   3.900   1.941  12.327  0.2350  0.2519  0.2319
 9475TIP3    H249841   3.832   1.915  12.459 -0.7162 -0.3156 -0.3567
 9476TIP3   OH249842   3.048   2.326  15.902 -0.5700  0.0035  0.3175
 9476TIP3    H149843   2.986   2.356  15.836  0.8713  1.1283 -0.5919
 9476TIP3    H249844   3.023   2.373  15.981 -1.8853 -0.8333  0.4394
 9477TIP3   OH249845   4.024   4.046  16.988 -0.1404  0.3298 -0.2219
 9477TIP3    H149846   3.976   3.971  16.952 -0.3911  1.4628 -2.4133
 9477TIP3    H249847   3.996   4.051  17.079  0.7824 -2.9161  0.3831
 9478TIP3   OH249848   3.163   1.298   2.582  0.3910  0.5208  0.2927
 9478TIP3    H149849   3.087   1.286   2.638 -0.4719  0.8868 -0.7732
 9478TIP3    H249850   3.203   1.211   2.576  1.2748  0.7052  2.4995
 9479TIP3   OH249851   4.751   1.522   0.071  0.4952  0.1920 -0.3111
 9479TIP3    H149852   4.745   1.469  -0.008 -0.8344  1.3183 -1.0007
 9479TIP3    H249853   4.833   1.571   0.061  0.1938  0.5390 -1.1464
 9480TIP3   OH249854   0.067   2.070   4.113  0.1341  0.0957 -0.1699
 9480TIP3    H149855   0.024   2.143   4.068  0.2636  1.0765  1.2135
 9480TIP3    H249856   0.067   1.999   4.049 -0.1245  1.2547 -1.5236
 9481TIP3   OH249857   1.725   4.067   0.158 -0.8464 -0.1418  0.0904
 9481TIP3    H149858   1.809   4.108   0.136 -2.1043  2.4732 -0.1621
 9481TIP3    H249859   1.735   4.041   0.250  1.4926 -3.4385 -0.9206
 9482TIP3   OH249860   2.772   0.863   1.296 -0.0183 -0.2104  0.4431
 9482TIP3    H149861   2.811   0.950   1.291 -0.9649  0.1992  0.0442
 9482TIP3    H249862   2.728   0.851   1.212 -0.3890 -0.8317  0.7188
 9483TIP3   OH249863   4.632   1.481  12.940  0.3442  0.0520 -0.3885
 9483TIP3    H149864   4.576   1.514  13.010  1.7288 -0.8254  1.1855
 9483TIP3    H249865   4.601   1.392  12.924  1.0118 -0.2902  0.1988
 9484TIP3   OH249866   6.125   0.579  15.623 -0.1999  0.3790 -0.9346
 9484TIP3    H149867   6.087   0.577  15.536 -0.6382 -0.5235 -0.7379
 9484TIP3    H249868   6.088   0.503  15.668  3.2776 -1.7970 -1.3264
 9485TIP3   OH249869   2.073   1.410  11.838 -0.7890  0.1862  0.4898
 9485TIP3    H149870   2.067   1.504  11.853  0.2769  0.6387 -1.5792
 9485TIP3    H249871   2.047   1.370  11.922 -1.4457  2.2878  1.3393
 9486TIP3   OH249872   2.335   1.573   2.090  0.4203  0.0992  0.0754
 9486TIP3    H149873   2.268   1.575   2.021 -0.6368  2.6679  1.0797
 9486TIP3    H249874   2.289   1.540   2.167  0.8558 -0.0487  0.2756
 9487TIP3   OH249875   2.061   1.104   6.378 -0.1349  0.0431 -0.2493
 9487TIP3    H149876   2.045   1.180   6.322 -0.3042  0.3595  0.2158
 9487TIP3    H249877   2.089   1.142   6.461  0.2785 -0.4218 -0.1702
 9488TIP3   OH249878   6.024   6.288   2.585  0.6738 -0.6259 -0.0469
 9488TIP3    H149879   6.054   6.311   2.673 -0.4081  0.6519  0.0294
 9488TIP3    H249880   6.026   6.193   2.582  1.7604 -0.6475  0.9806
 9489TIP3   OH249881   3.824   5.369   5.647 -0.0567  0.2118  0.4167
 9489TIP3    H149882   3.874   5.332   5.720 -0.0264  0.5328  0.5602
 9489TIP3    H249883   3.733   5.345   5.667  0.1485 -1.6111 -0.5658
 9490TIP3   OH249884   6.393   1.814  11.381 -0.3117  0.2092 -0.1314
 9490TIP3    H149885   6.444   1.787  11.306  0.6177  0.6677  0.3231
 9490TIP3    H249886   6.445   1.788  11.457  0.7548  3.3305  0.3380
 9491TIP3   OH249887   5.764   3.472  11.268 -0.4506  0.1667  0.8644
 9491TIP3    H149888   5.823   3.438  11.335  0.5883 -1.7337 -0.9159
 9491TIP3    H249889   5.741   3.396  11.215 -0.2247  1.7519 -1.6899
 9492TIP3   OH249890   2.502   4.856   4.503  0.3634  0.1347 -0.3538
 9492TIP3    H149891   2.428   4.884   4.558 -2.0260 -2.2905 -2.0840
 9492TIP3    H249892   2.523   4.933   4.450 -1.3482  0.7351 -0.2241
 9493TIP3   OH249893   1.447   5.398   3.451 -0.4087 -0.3778  0.0918
 9493TIP3    H149894   1.454   5.444   3.535 -1.2702 -0.1250  0.0333
 9493TIP3    H249895   1.377   5.444   3.405 -0.4972 -1.0377 -0.4364
 9494TIP3   OH249896   4.066   0.751  11.321 -0.0592 -0.2210 -0.4468
 9494TIP3    H149897   3.995   0.691  11.342 -0.2567  0.3060  0.4659
 9494TIP3    H249898   4.126   0.744  11.395 -1.0964  2.1760  0.7211
 9495TIP3   OH249899   5.270   5.711   3.590 -0.3542 -0.2217  0.0462
 9495TIP3    H149900   5.189   5.761   3.580 -0.5955 -0.6104  0.0341
 9495TIP3    H249901   5.324   5.740   3.517 -1.2242 -1.3561 -1.0955
 9496TIP3   OH249902   0.345   3.345   2.830 -0.1741  0.5721  0.2747
 9496TIP3    H149903   0.405   3.287   2.877  0.3308  0.4470 -0.4958
 9496TIP3    H249904   0.277   3.367   2.894 -0.1517 -0.5411  0.7076
 9497TIP3   OH249905   4.817   0.953  14.610 -0.1434  0.1537  0.0578
 9497TIP3    H149906   4.817   0.937  14.704 -2.9794 -3.0217 -0.2917
 9497TIP3    H249907   4.858   0.875  14.573  0.2326  1.0046 -1.3728
 9498TIP3   OH249908   3.847   0.519  16.046  0.0525  0.8576  0.3691
 9498TIP3    H149909   3.794   0.583  15.999 -1.1121 -0.4576 -0.1906
 9498TIP3    H249910   3.915   0.493  15.984 -0.9516 -0.2200 -0.3258
 9499TIP3   OH249911   2.492   2.207   4.142 -0.1408 -0.8485  0.0294
 9499TIP3    H149912   2.431   2.140   4.171  0.5478 -0.9818  1.2421
 9499TIP3    H249913   2.498   2.195   4.047 -1.8271 -0.9461 -0.0838
 9500TIP3   OH249914   0.454   2.276  11.380  0.1529  0.2523 -0.1198
 9500TIP3    H149915   0.410   2.313  11.456  0.8673  0.3185  0.2771
 9500TIP3    H249916   0.415   2.190  11.369  0.4291  0.0178  0.6713
 9501TIP3   OH249917   1.013   1.024   6.128 -0.3458  0.0027  0.3142
 9501TIP3    H149918   0.978   0.946   6.172  0.3048  0.2028  1.2140
 9501TIP3    H249919   1.014   1.091   6.196  1.7365  0.0128  0.3365
 9502TIP3   OH249920   4.028   6.137   0.774 -0.0724 -0.3702 -0.3025
 9502TIP3    H149921   3.966   6.081   0.728 -0.7823  0.2476 -0.1030
 9502TIP3    H249922   4.090   6.165   0.706 -0.5345 -0.2690 -0.6844
 9503TIP3   OH249923   5.455   1.654   2.536 -0.3586  0.0479  0.9420
 9503TIP3    H149924   5.435   1.682   2.447  1.3634  0.4099  0.6266
 9503TIP3    H249925   5.486   1.564   2.527 -0.6716 -0.0879  1.2335
 9504TIP3   OH249926   3.578   3.086  14.822  0.0111 -0.2678  0.3445
 9504TIP3    H149927   3.570   3.115  14.731 -1.0683  0.1985  0.5650
 9504TIP3    H249928   3.493   3.107  14.861  0.2438 -1.0226  1.3034
 9505TIP3   OH249929   1.738   0.360   4.289 -0.7358 -0.4447  0.3219
 9505TIP3    H149930   1.680   0.428   4.322 -0.6948  0.5726 -1.6140
 9505TIP3    H249931   1.826   0.390   4.312 -0.6701  0.5347 -1.1065
 9506TIP3   OH249932   0.442   3.736  11.264  0.0877 -0.0015  0.4871
 9506TIP3    H149933   0.528   3.699  11.284 -0.2475 -0.8615  0.3446
 9506TIP3    H249934   0.424   3.709  11.174  0.1828  1.1933  0.0816
 9507TIP3   OH249935   4.847   5.033   3.876 -0.2289  0.3463  0.0472
 9507TIP3    H149936   4.757   5.046   3.905 -0.3866  0.6754 -0.5759
 9507TIP3    H249937   4.858   5.095   3.804  0.3655  0.0088 -0.1570
 9508TIP3   OH249938   1.517   5.289   1.631 -0.0274  0.2739  0.0575
 9508TIP3    H149939   1.612   5.293   1.632 -0.0231  0.3666 -0.4962
 9508TIP3    H249940   1.496   5.208   1.585 -0.2173  1.5971 -2.3448
 9509TIP3   OH249941   0.520   5.777   4.949  0.3562 -0.5289  0.4789
 9509TIP3    H149942   0.573   5.852   4.975 -0.3484 -0.1316  0.8194
 9509TIP3    H249943   0.578   5.723   4.895  0.8181  0.3553  0.0770
 9510TIP3   OH249944   1.255   5.029  11.400  0.1070 -0.0309 -0.4011
 9510TIP3    H149945   1.172   5.041  11.353  0.1367 -0.8069 -0.6571
 9510TIP3    H249946   1.322   5.038  11.333  0.2712  1.1461 -0.0995
 9511TIP3   OH249947   3.550   3.218  17.109 -0.4380  0.3224  0.1194
 9511TIP3    H149948   3.483   3.281  17.136  1.0808  0.7901  3.2294
 9511TIP3    H249949   3.633   3.262  17.128  0.7137 -1.4554 -0.5749
 9512TIP3   OH249950   2.887   4.437  16.544 -0.0976  0.1937 -0.2454
 9512TIP3    H149951   2.871   4.373  16.613 -1.6580 -0.8560 -1.5129
 9512TIP3    H249952   2.809   4.433  16.489  2.4561 -1.7370 -4.1794
 9513TIP3   OH249953   2.349   5.203   5.321  0.3831  0.1480 -0.1957
 9513TIP3    H149954   2.301   5.281   5.291  0.3434 -0.1214 -0.8504
 9513TIP3    H249955   2.371   5.157   5.240  0.8766 -0.2450  0.1627
 9514TIP3   OH249956   4.485   1.457   2.372  0.0920 -0.2209 -0.5001
 9514TIP3    H149957   4.509   1.414   2.454  0.1567 -0.1114 -0.4627
 9514TIP3    H249958   4.494   1.550   2.389  0.1587 -0.1991 -0.6483
 9515TIP3   OH249959   2.335   2.364  14.726 -0.4958  0.1827 -0.4320
 9515TIP3    H149960   2.402   2.354  14.794  1.6729 -0.2706 -2.5091
 9515TIP3    H249961   2.321   2.275  14.692 -0.3140  0.6088 -1.6729
 9516TIP3   OH249962   2.534   0.534   3.681  0.1740 -0.6646  1.0723
 9516TIP3    H149963   2.580   0.613   3.655 -3.1520  0.0422 -4.3398
 9516TIP3    H249964   2.563   0.467   3.619 -1.2373 -2.0171  1.7763
 9517TIP3   OH249965   4.448   5.540  13.578 -0.8888 -0.4537  0.1033
 9517TIP3    H149966   4.376   5.603  13.575  1.6797  2.9971  2.3858
 9517TIP3    H249967   4.438   5.496  13.662  0.4418  1.2862  1.2436
 9518TIP3   OH249968   1.548   4.667  17.063 -0.3288  0.2966  0.1155
 9518TIP3    H149969   1.512   4.718  16.991  1.9766  0.3254 -1.1207
 9518TIP3    H249970   1.478   4.606  17.087 -1.4446  0.8275 -1.6016
 9519TIP3   OH249971   5.418   6.722  16.523  0.0352 -0.4930  0.1765
 9519TIP3    H149972   5.355   6.692  16.589  0.0256 -1.2474 -0.1593
 9519TIP3    H249973   5.413   6.817  16.527  1.3682 -0.4385  2.5598
 9520TIP3   OH249974   2.489   0.845   4.588 -0.1526  0.1311 -0.0528
 9520TIP3    H149975   2.546   0.853   4.512  0.7351 -0.2591  0.5504
 9520TIP3    H249976   2.402   0.868   4.556  0.0949 -0.6423 -1.3272
 9521TIP3   OH249977   4.645   1.384  15.325  0.2805 -0.0739  0.1963
 9521TIP3    H149978   4.559   1.361  15.289 -0.5839  2.3723  0.5658
 9521TIP3    H249979   4.645   1.344  15.412 -0.4346 -0.1813  0.1577
 9522TIP3   OH249980   4.660   6.638  10.874 -0.2213  0.5374  0.1545
 9522TIP3    H149981   4.687   6.729  10.889 -2.2838  1.3619 -0.6699
 9522TIP3    H249982   4.676   6.623  10.781 -1.4521  0.6973 -0.1112
 9523TIP3   OH249983   4.371   1.527  15.550  0.0912 -0.0367 -0.3764
 9523TIP3    H149984   4.389   1.452  15.606 -1.0188  0.9411  1.3861
 9523TIP3    H249985   4.443   1.588  15.568  0.6620 -0.4022 -1.3466
 9524TIP3   OH249986   0.514   3.540   0.919  0.3165 -0.6611  0.0467
 9524TIP3    H149987   0.439   3.595   0.899  1.0800  0.8371  1.1654
 9524TIP3    H249988   0.577   3.598   0.962  1.1913 -2.3724  1.2069
 9525TIP3   OH249989   4.725   5.008   4.440 -0.1472  0.7894  1.0715
 9525TIP3    H149990   4.682   4.924   4.457  0.8378  0.2050  0.7893
 9525TIP3    H249991   4.816   4.993   4.465  0.4118  1.2342 -0.5744
 9526TIP3   OH249992   2.103   6.389  15.362  0.2012  0.3959 -0.5712
 9526TIP3    H149993   2.054   6.416  15.440  0.4141  1.0815 -0.6728
 9526TIP3    H249994   2.191   6.423  15.376 -0.0329  1.4819 -1.6016
 9527TIP3   OH249995   6.261   5.990  11.309  0.2180  0.1881 -0.3868
 9527TIP3    H149996   6.254   6.022  11.399 -2.4190 -1.5307  0.1366
 9527TIP3    H249997   6.230   6.062  11.255 -0.0274  0.5800  0.2627
 9528TIP3   OH249998   5.498   4.201  16.451 -0.1720 -0.2272 -0.1080
 9528TIP3    H149999   5.521   4.230  16.363 -2.0167  0.8245 -0.2816
 9528TIP3    H250000   5.569   4.236  16.506  1.4736 -1.6407 -1.2143
 9529TIP3   OH250001   5.092   3.857  11.349  0.4858  0.0888 -0.0466
 9529TIP3    H150002   5.078   3.947  11.375  3.3563  0.5254  0.3511
 9529TIP3    H250003   5.097   3.860  11.253 -5.2003 -0.7520 -0.7303
 9530TIP3   OH250004   1.311   3.792   1.257 -0.2255 -0.4823  0.0424
 9530TIP3    H150005   1.232   3.739   1.245 -1.0606  0.1759  2.1934
 9530TIP3    H250006   1.346   3.802   1.169 -1.5410 -2.2949 -0.7627
 9531TIP3   OH250007   4.436   5.861  12.790 -0.2399 -0.2927 -0.6574
 9531TIP3    H150008   4.460   5.943  12.746 -0.6534  1.1378  1.6250
 9531TIP3    H250009   4.373   5.887  12.857 -1.0772 -2.6414 -0.4467
 9532TIP3   OH250010   1.672   5.238   0.621  0.3773  0.0126  0.2434
 9532TIP3    H150011   1.761   5.273   0.620  0.0042  1.0102 -1.4629
 9532TIP3    H250012   1.617   5.312   0.594 -0.7063 -1.2145 -1.0430
 9533TIP3   OH250013   6.454   0.880  17.042  0.4227  0.3445  0.2516
 9533TIP3    H150014   6.397   0.817  16.998  0.1022 -0.1786  1.4019
 9533TIP3    H250015   6.533   0.883  16.987 -0.0077 -0.2114 -0.4071
 9534TIP3   OH250016   0.460   3.972  16.271  0.5214 -0.3645  0.2768
 9534TIP3    H150017   0.425   3.989  16.183 -1.9344  4.3323  1.8461
 9534TIP3    H250018   0.552   3.997  16.265 -0.1969  2.4482 -0.5173
 9535TIP3   OH250019   3.088   3.560   4.574  0.2787  0.0872 -0.5887
 9535TIP3    H150020   3.089   3.641   4.626 -0.1785  0.5445 -1.2895
 9535TIP3    H250021   3.181   3.538   4.564  0.3874 -1.4415  2.6023
 9536TIP3   OH250022   6.422   2.316  12.396  0.6385 -0.0614 -0.5009
 9536TIP3    H150023   6.513   2.291  12.380  0.2481 -0.9704 -1.3809
 9536TIP3    H250024   6.371   2.243  12.361 -0.3966 -0.1891  1.2064
 9537TIP3   OH250025   3.462   3.064  12.531  0.0131  0.4885 -0.7378
 9537TIP3    H150026   3.553   3.036  12.526 -0.2463 -0.5968  0.2257
 9537TIP3    H250027   3.412   2.982  12.529 -0.8529  0.9625  0.3441
 9538TIP3   OH250028   0.265   0.154  13.180  0.1408  0.1980 -0.3030
 9538TIP3    H150029   0.300   0.071  13.210  1.7517  0.3923 -1.5423
 9538TIP3    H250030   0.192   0.172  13.240  1.3973 -0.8057  1.6182
 9539TIP3   OH250031   5.159   5.830   1.977 -0.1503 -0.3143 -0.3322
 9539TIP3    H150032   5.132   5.922   1.972  0.2710  0.2313  3.9267
 9539TIP3    H250033   5.252   5.832   1.955  0.4565  0.8055  2.0219
 9540TIP3   OH250034   3.462   0.240   3.590  0.4088  0.3933 -0.7553
 9540TIP3    H150035   3.475   0.192   3.508 -0.3144  1.2635 -1.3978
 9540TIP3    H250036   3.530   0.307   3.591  0.6423  0.1552 -0.4635
 9541TIP3   OH250037   5.041   2.764   0.675 -0.3090  0.2092 -0.7249
 9541TIP3    H150038   5.015   2.787   0.764 -1.1401 -1.2821 -0.5432
 9541TIP3    H250039   4.980   2.811   0.619 -0.4899  0.2925 -0.4594
 9542TIP3   OH250040   4.397   3.241   3.158  0.5447 -0.3462  0.3502
 9542TIP3    H150041   4.375   3.314   3.217  2.3971 -0.1912  0.9067
 9542TIP3    H250042   4.378   3.275   3.071  1.4169  0.8486  0.5981
 9543TIP3   OH250043   6.443   0.076  10.875 -0.2932 -0.0073 -0.4704
 9543TIP3    H150044   6.473  -0.014  10.887 -0.5611  0.0658  0.9258
 9543TIP3    H250045   6.348   0.071  10.884 -0.1594  0.8469  3.4507
 9544TIP3   OH250046   2.673   2.853  14.487  0.2656  0.2393 -0.0188
 9544TIP3    H150047   2.700   2.761  14.489 -1.9534 -0.4466  0.7015
 9544TIP3    H250048   2.755   2.902  14.502  1.3554 -1.6192  0.4543
 9545TIP3   OH250049   0.053   0.387  10.813  0.1390 -0.3327  0.1511
 9545TIP3    H150050   0.085   0.338  10.738 -2.1013 -1.1480 -0.3443
 9545TIP3    H250051  -0.002   0.325  10.861 -1.2235  1.1085  0.5524
 9546TIP3   OH250052   1.288   4.184  10.272  0.2206 -0.4953  0.3336
 9546TIP3    H150053   1.298   4.115  10.207  0.7255  0.0578 -0.1782
 9546TIP3    H250054   1.377   4.212  10.292  0.3907 -2.8733  3.7125
 9547TIP3   OH250055   3.306   1.291   3.346  0.3915  0.1127  0.7476
 9547TIP3    H150056   3.369   1.222   3.326 -1.2197 -1.3885  0.5846
 9547TIP3    H250057   3.286   1.330   3.261 -0.4807 -0.8906  0.4627
 9548TIP3   OH250058   4.472   6.353   2.204  0.7129  0.0168  0.4482
 9548TIP3    H150059   4.463   6.299   2.125  0.5190  0.2353  0.3181
 9548TIP3    H250060   4.456   6.292   2.276 -2.3450  0.4169  0.2382
 9549TIP3   OH250061   6.313   4.576  15.640  0.5365 -0.2897 -0.1882
 9549TIP3    H150062   6.406   4.591  15.626  0.4410 -1.3431 -2.3078
 9549TIP3    H250063   6.303   4.481  15.639 -0.6292 -0.1856 -0.6267
 9550TIP3   OH250064   5.371   2.675   0.033  0.4813 -0.0506  0.0771
 9550TIP3    H150065   5.414   2.680   0.118 -1.9812  3.8212  1.3358
 9550TIP3    H250066   5.410   2.747  -0.017 -1.5921  0.9955 -0.1386
 9551TIP3   OH250067   5.933   4.345   0.900 -0.0323 -0.2081  0.0295
 9551TIP3    H150068   5.846   4.365   0.866  0.6720  0.8254 -1.3132
 9551TIP3    H250069   5.957   4.422   0.952  1.0050  0.6971 -1.6530
 9552TIP3   OH250070   5.965   6.807  13.237  0.0895 -0.0962  0.0623
 9552TIP3    H150071   5.876   6.820  13.271  0.0718 -4.2090  2.2087
 9552TIP3    H250072   5.953   6.775  13.148 -0.5025  0.1895  0.0372
 9553TIP3   OH250073   6.537   1.264  13.424 -0.6049  0.3211  0.4577
 9553TIP3    H150074   6.557   1.312  13.344  1.2270 -0.3691  0.4560
 9553TIP3    H250075   6.543   1.172  13.400  3.3717 -0.0084  2.0132
 9554TIP3   OH250076   0.248   6.090  17.002 -0.1560  0.1947  0.1760
 9554TIP3    H150077   0.185   6.122  16.937  1.3539  1.0899 -0.9174
 9554TIP3    H250078   0.237   6.149  17.076 -0.0239  0.8768 -0.3382
 9555TIP3   OH250079   5.134   6.663   0.476  0.2172 -0.1544  0.2360
 9555TIP3    H150080   5.147   6.626   0.563 -0.3191  1.0929  0.8712
 9555TIP3    H250081   5.216   6.648   0.430  0.7869 -0.1085  1.2312
 9556TIP3   OH250082   5.288   4.250  13.534  0.2614  0.4548 -0.5449
 9556TIP3    H150083   5.211   4.289  13.492 -0.7529 -1.7238 -0.8564
 9556TIP3    H250084   5.263   4.159  13.549  0.7246  0.8475  4.3413
 9557TIP3   OH250085   1.756   2.284  13.562 -0.2294 -0.3652  0.0078
 9557TIP3    H150086   1.781   2.255  13.650  0.3218 -0.6697 -0.2428
 9557TIP3    H250087   1.796   2.219  13.504  1.1556  0.9709 -0.5887
 9558TIP3   OH250088   3.839   1.325   4.641 -0.2753 -0.5736  0.1239
 9558TIP3    H150089   3.887   1.258   4.592 -0.0728 -0.2596 -0.1146
 9558TIP3    H250090   3.894   1.403   4.634 -1.7014  0.3416 -1.7631
 9559TIP3   OH250091   3.020   3.993   2.608 -0.7724 -0.1355  0.2673
 9559TIP3    H150092   3.113   3.975   2.624 -0.2025  2.3019 -0.0265
 9559TIP3    H250093   2.991   4.037   2.687 -1.3174  0.3771 -0.2191
 9560TIP3   OH250094   4.484   2.832   1.672  0.1583  0.5260 -0.3934
 9560TIP3    H150095   4.516   2.756   1.622 -0.0189 -0.1659  0.5090
 9560TIP3    H250096   4.423   2.794   1.736 -0.4319  1.5154 -0.3586
 9561TIP3   OH250097   0.709   3.297   1.679  0.0524 -0.4229  0.1354
 9561TIP3    H150098   0.681   3.375   1.726 -1.0555 -0.2187 -0.8054
 9561TIP3    H250099   0.690   3.317   1.587 -0.4404 -1.8661 -0.1055
 9562TIP3   OH250100   1.714   3.308  14.287 -0.0292 -0.3662 -0.7272
 9562TIP3    H150101   1.630   3.264  14.301  0.7402 -1.7561 -0.3376
 9562TIP3    H250102   1.762   3.250  14.228  1.2311 -0.3495  0.2427
 9563TIP3   OH250103   0.712   6.045  12.355 -0.0944  0.3459  0.0751
 9563TIP3    H150104   0.789   6.101  12.365  0.7065 -0.6020 -0.5475
 9563TIP3    H250105   0.726   6.001  12.271 -1.0470 -0.2724  0.2257
 9564TIP3   OH250106   4.198   5.087  15.271  0.2337 -0.8066  0.0423
 9564TIP3    H150107   4.221   5.078  15.179  2.2749 -1.9048  0.5741
 9564TIP3    H250108   4.220   5.177  15.293  0.4911 -0.7679 -0.3664
 9565TIP3   OH250109   0.350   4.692   4.297  0.1030  0.2843  0.4257
 9565TIP3    H150110   0.391   4.645   4.225 -0.2720  0.6413 -0.0293
 9565TIP3    H250111   0.389   4.654   4.376  1.1088  0.4528  0.0169
 9566TIP3   OH250112   0.285   2.711  12.678 -0.4546  0.4090 -0.1231
 9566TIP3    H150113   0.264   2.694  12.586  0.1878  1.6979 -0.5291
 9566TIP3    H250114   0.343   2.787  12.676  2.1409 -1.3477  1.0991
 9567TIP3   OH250115   1.859   3.169  12.555  0.0645 -0.3935  0.2661
 9567TIP3    H150116   1.917   3.244  12.569 -1.0815  0.4490  0.6126
 9567TIP3    H250117   1.819   3.186  12.470 -1.6701  0.4090  1.2109
 9568TIP3   OH250118   6.152   6.054   2.336  0.1915 -0.0388  0.2954
 9568TIP3    H150119   6.154   6.148   2.354  0.2941  0.5496 -2.2808
 9568TIP3    H250120   6.227   6.039   2.278 -0.7684 -1.3356 -0.6916
 9569TIP3   OH250121   4.490   3.638  12.751  0.2018  0.1392 -0.5651
 9569TIP3    H150122   4.426   3.695  12.795  1.7364  0.9147  0.7592
 9569TIP3    H250123   4.563   3.696  12.730  1.3973 -1.1513 -0.0712
 9570TIP3   OH250124   5.753   4.588   5.772 -0.2018 -0.1309 -0.6117
 9570TIP3    H150125   5.845   4.564   5.781 -0.3976 -0.7530 -0.1985
 9570TIP3    H250126   5.716   4.521   5.715 -0.3900  0.1443 -0.8155
 9571TIP3   OH250127   0.574   5.022   4.967 -0.0185 -0.0845 -0.0228
 9571TIP3    H150128   0.547   5.021   4.875  0.1506 -1.5278 -0.0696
 9571TIP3    H250129   0.669   5.033   4.964  0.2753 -2.2592 -0.1323
 9572TIP3   OH250130   3.911   4.283   4.211  0.5501  0.4909 -0.3850
 9572TIP3    H150131   3.840   4.274   4.147  1.5461 -4.3145 -1.1766
 9572TIP3    H250132   3.982   4.326   4.163  0.4347 -0.8070 -1.7695
 9573TIP3   OH250133   6.145   6.088   1.710  0.4536  0.2163  0.0116
 9573TIP3    H150134   6.143   6.178   1.742  0.0568  0.3169 -0.2913
 9573TIP3    H250135   6.160   6.097   1.616  0.6943 -0.0446  0.0243
 9574TIP3   OH250136   0.124   3.390   4.642 -0.4966  0.2558  0.1466
 9574TIP3    H150137   0.035   3.402   4.675 -0.6886  1.3274 -0.6752
 9574TIP3    H250138   0.169   3.471   4.665  0.8395 -0.9921  2.1791
 9575TIP3   OH250139   3.850   1.961  16.674  0.1697 -1.0377  0.1494
 9575TIP3    H150140   3.836   1.985  16.766 -1.5051 -1.9789  0.1956
 9575TIP3    H250141   3.764   1.974  16.634  1.3074  1.2623 -1.8004
 9576TIP3   OH250142   0.183   1.039  15.786 -0.2626 -0.0484  0.9093
 9576TIP3    H150143   0.273   1.006  15.786  0.0373  0.7064  2.2686
 9576TIP3    H250144   0.135   0.977  15.839 -0.3318  0.0975  1.0172
 9577TIP3   OH250145   2.760   0.216   1.980 -0.1973 -0.8989  0.0111
 9577TIP3    H150146   2.768   0.223   2.075 -0.3606 -1.8195  0.1059
 9577TIP3    H250147   2.680   0.263   1.959  0.4876  0.3711  0.1729
 9578TIP3   OH250148   0.571   5.275  11.206  0.2483  0.0981  0.2896
 9578TIP3    H150149   0.487   5.307  11.240  0.2007 -0.3947  0.6531
 9578TIP3    H250150   0.629   5.351  11.212 -0.4232  0.7292 -0.9033
 9579TIP3   OH250151   4.232   1.614   4.396  0.0549 -0.5281 -0.1151
 9579TIP3    H150152   4.241   1.520   4.380  3.2476 -0.6265  1.4586
 9579TIP3    H250153   4.294   1.655   4.335 -1.8183  0.7039 -1.3099
 9580TIP3   OH250154   0.306   3.705   0.894  0.2586  0.2908 -0.4763
 9580TIP3    H150155   0.308   3.799   0.878 -2.8811  0.4557 -0.5050
 9580TIP3    H250156   0.244   3.694   0.966  1.6165 -1.6945  0.4948
 9581TIP3   OH250157   1.319   4.624  15.663  0.2402 -1.0035  0.5047
 9581TIP3    H150158   1.254   4.560  15.636 -1.3990  1.2023 -1.2024
 9581TIP3    H250159   1.268   4.695  15.703  1.8739 -0.3190  1.5146
 9582TIP3   OH250160   0.877   0.098   5.751  0.6025 -0.5057 -0.1719
 9582TIP3    H150161   0.835   0.099   5.837  1.6677 -0.5112  0.3644
 9582TIP3    H250162   0.834   0.027   5.704 -2.3136  1.5304 -0.8713
 9583TIP3   OH250163   4.575   0.808   2.558 -0.6072 -0.3472  0.6067
 9583TIP3    H150164   4.557   0.756   2.480 -0.0556 -0.6479  0.6759
 9583TIP3    H250165   4.505   0.873   2.560 -1.1806 -0.9487  0.3990
 9584TIP3   OH250166   5.813   2.767   5.366  0.1374 -0.3656 -0.8384
 9584TIP3    H150167   5.801   2.834   5.434  2.3087 -0.6480 -0.0966
 9584TIP3    H250168   5.797   2.684   5.411 -0.4886 -0.4655 -1.2316
 9585TIP3   OH250169   2.061   6.022  14.804  0.3918 -0.2413  0.4041
 9585TIP3    H150170   2.077   5.932  14.833  1.5416 -0.4402 -0.7517
 9585TIP3    H250171   2.127   6.037  14.736  1.1117  1.9374  1.5097
 9586TIP3   OH250172   4.852   3.524  13.192 -0.6268 -0.5079  0.9773
 9586TIP3    H150173   4.923   3.490  13.137 -0.4013  1.7601 -0.2610
 9586TIP3    H250174   4.772   3.496  13.147 -0.4452  0.5230 -0.0521
 9587TIP3   OH250175   1.652   6.743   3.997 -0.3840 -0.5530 -0.4953
 9587TIP3    H150176   1.712   6.813   4.025 -0.3524 -0.3048 -1.1800
 9587TIP3    H250177   1.710   6.669   3.980 -0.3930 -0.6752 -0.0066
 9588TIP3   OH250178   4.793   2.162   1.379 -0.4587  0.2146 -0.0715
 9588TIP3    H150179   4.763   2.154   1.289  0.1517  2.2267 -0.4920
 9588TIP3    H250180   4.887   2.146   1.375 -0.7622 -2.1144  0.6331
 9589TIP3   OH250181   1.887   6.067   5.060 -0.4811  0.7894  0.1309
 9589TIP3    H150182   1.894   6.063   5.156  2.0969 -0.1062 -0.0216
 9589TIP3    H250183   1.793   6.071   5.043 -1.0024  1.3682  2.7030
 9590TIP3   OH250184   3.107   6.386   1.917 -0.6741  0.0563 -0.8047
 9590TIP3    H150185   3.082   6.341   1.836  1.9667 -0.9160 -1.1689
 9590TIP3    H250186   3.074   6.330   1.987  0.5502 -1.2908 -1.2554
 9591TIP3   OH250187   5.483   1.590   6.195 -0.0012 -0.0060  0.3719
 9591TIP3    H150188   5.444   1.677   6.204  1.6939  1.0168 -1.3104
 9591TIP3    H250189   5.420   1.541   6.143 -0.2736  0.7476 -0.0367
 9592TIP3   OH250190   6.065   3.054   2.296  0.0976  0.0385  0.0187
 9592TIP3    H150191   6.102   3.132   2.337 -0.1309 -0.7011  1.6973
 9592TIP3    H250192   6.036   3.084   2.210  1.1300  1.5033  0.1446
 9593TIP3   OH250193   6.535   6.043  13.998 -0.5567  0.0507  0.1285
 9593TIP3    H150194   6.485   6.049  13.917  0.3527  0.3635 -0.4270
 9593TIP3    H250195   6.606   5.982  13.978  0.3291  0.9877  0.3197
 9594TIP3   OH250196   3.216   0.265   1.642  0.1128 -0.1221 -0.1299
 9594TIP3    H150197   3.141   0.205   1.647  0.1328 -0.1387 -0.0230
 9594TIP3    H250198   3.210   0.303   1.555 -0.2609  0.1851  0.0222
 9595TIP3   OH250199   4.889   4.290   4.336 -0.5358 -0.6758  0.1921
 9595TIP3    H150200   4.853   4.362   4.388  0.6241 -0.9708  1.4875
 9595TIP3    H250201   4.845   4.212   4.370 -0.5346 -0.7594  0.0013
 9596TIP3   OH250202   3.078   1.741   4.446  0.2441 -0.2572  0.5507
 9596TIP3    H150203   3.131   1.802   4.396 -1.3138  0.7736  0.1006
 9596TIP3    H250204   3.116   1.743   4.534  1.6562 -0.4598 -0.0226
 9597TIP3   OH250205   3.921   5.959   5.183  0.3323  0.7357  0.3651
 9597TIP3    H150206   4.014   5.946   5.203  0.6726  0.4889 -1.2708
 9597TIP3    H250207   3.918   5.971   5.088 -1.1877  1.8944  0.5169
 9598TIP3   OH250208   2.519   4.373   6.112  0.2106 -0.5944  0.1021
 9598TIP3    H150209   2.487   4.451   6.158 -0.8412 -1.5766  1.0773
 9598TIP3    H250210   2.610   4.365   6.139  0.4008  0.4280 -0.1985
 9599TIP3   OH250211   0.097   1.170   4.271 -0.1469  0.7947 -0.4580
 9599TIP3    H150212   0.098   1.093   4.214  1.5464  0.0928  0.4512
 9599TIP3    H250213   0.005   1.192   4.280 -0.6031 -0.5529 -1.5032
 9600TIP3   OH250214   0.983   5.728  12.614  0.3415  0.7021  0.2175
 9600TIP3    H150215   1.004   5.635  12.612  0.9472  0.8415 -0.7233
 9600TIP3    H250216   0.914   5.739  12.548 -0.9983  0.6496  1.5650
 9601TIP3   OH250217   5.046   0.466  16.316 -0.0987 -0.3082  0.5260
 9601TIP3    H150218   5.039   0.406  16.390 -1.5951 -2.4131 -1.2007
 9601TIP3    H250219   4.957   0.472  16.282  0.7139 -0.2160 -1.7124
 9602TIP3   OH250220   0.628   2.949   1.961  0.5804 -0.1308 -0.2026
 9602TIP3    H150221   0.668   2.867   1.990 -1.3719 -0.4682  1.8262
 9602TIP3    H250222   0.671   2.969   1.878  0.3422 -3.8426 -1.4082
 9603TIP3   OH250223   5.950   3.954   2.682 -0.2511 -0.0534 -0.0400
 9603TIP3    H150224   5.951   3.876   2.627 -2.1338  0.8128 -1.4044
 9603TIP3    H250225   6.013   4.013   2.642  0.7530 -0.6027  0.6655
 9604TIP3   OH250226   4.757   5.836   2.211 -0.4937 -0.0853 -0.6931
 9604TIP3    H150227   4.764   5.861   2.119 -0.0407 -0.8674 -0.8783
 9604TIP3    H250228   4.842   5.796   2.232 -0.3853  0.5769  0.2222
 9605TIP3   OH250229   3.191   0.718   1.275 -0.3437 -0.2623 -0.3565
 9605TIP3    H150230   3.234   0.762   1.347 -0.9474 -0.3278  0.0576
 9605TIP3    H250231   3.098   0.720   1.298 -0.7207  1.0120 -1.8365
 9606TIP3   OH250232   3.289   1.861  11.145 -0.0979  0.3403  0.4176
 9606TIP3    H150233   3.239   1.803  11.202 -0.3514  0.2998  0.1551
 9606TIP3    H250234   3.379   1.829  11.152 -0.4404 -1.0199 -0.8364
 9607TIP3   OH250235   1.959   1.199  14.144 -0.6485  0.5066  0.9148
 9607TIP3    H150236   1.894   1.239  14.086  0.2182 -0.6693 -0.9389
 9607TIP3    H250237   1.945   1.105  14.134 -1.0679  0.2356  3.3664
 9608TIP3   OH250238   5.646   5.638   2.375 -0.0032  0.1234 -0.1062
 9608TIP3    H150239   5.721   5.685   2.411 -0.8124  1.3279  0.0824
 9608TIP3    H250240   5.584   5.630   2.448 -0.1870 -0.6047 -0.3266
 9609TIP3   OH250241   0.581   3.652  14.353 -0.4583 -0.1443  0.0644
 9609TIP3    H150242   0.572   3.695  14.268  0.0023  0.9801  0.5614
 9609TIP3    H250243   0.532   3.570  14.344 -1.2519  0.4164 -0.9682
 9610TIP3   OH250244   5.206   2.118   3.218 -0.0077  0.1970  0.3860
 9610TIP3    H150245   5.248   2.152   3.298 -0.1012 -1.5720  1.2391
 9610TIP3    H250246   5.256   2.158   3.146  3.3716 -1.8695  1.3235
 9611TIP3   OH250247   3.739   1.193   0.665 -0.6814  0.3595  0.7489
 9611TIP3    H150248   3.699   1.107   0.651 -0.9412  0.7601 -1.2923
 9611TIP3    H250249   3.782   1.186   0.750  1.0208 -2.4968 -0.1986
 9612TIP3   OH250250   1.120   0.195   5.640  0.4677  0.1828 -0.5388
 9612TIP3    H150251   1.178   0.123   5.615  0.1059  0.3891 -2.0260
 9612TIP3    H250252   1.043   0.152   5.676 -0.2834 -0.2718 -2.5522
 9613TIP3   OH250253   2.672   0.845  15.336 -0.2017 -0.5389  0.1174
 9613TIP3    H150254   2.716   0.806  15.413 -0.7622 -0.9690  0.2284
 9613TIP3    H250255   2.651   0.770  15.281 -4.0541 -0.8856  1.7187
 9614TIP3   OH250256   3.478   0.551   2.604 -0.1236 -0.2695  0.2057
 9614TIP3    H150257   3.474   0.500   2.685 -0.0181  1.9640  1.6915
 9614TIP3    H250258   3.394   0.535   2.562 -0.2404 -1.3383  0.7977
 9615TIP3   OH250259   5.169   6.451   2.342  0.3975 -0.3422  0.4349
 9615TIP3    H150260   5.224   6.377   2.317  1.3005  0.2448  0.6211
 9615TIP3    H250261   5.213   6.489   2.417 -0.5646 -0.1647  0.9281
 9616TIP3   OH250262   5.657   1.060   6.209 -0.0780  0.2848  0.6176
 9616TIP3    H150263   5.615   0.974   6.202 -0.4777  0.5630 -0.5380
 9616TIP3    H250264   5.585   1.122   6.218  0.0627  0.7050 -0.8307
 9617TIP3   OH250265   6.453   1.492   0.629 -0.5829  0.1584  0.1648
 9617TIP3    H150266   6.390   1.452   0.570 -3.6869  1.3791  2.3605
 9617TIP3    H250267   6.423   1.466   0.717  2.6255  0.0097  1.3452
 9618TIP3   OH250268   3.847   0.011  14.880  0.1141 -0.4310  0.1889
 9618TIP3    H150269   3.942   0.011  14.868  0.3027  1.5273  1.3722
 9618TIP3    H250270   3.834  -0.039  14.960  0.2826  0.4567  0.7794
 9619TIP3   OH250271   3.011   3.824  14.770  0.0236 -0.3683 -0.0394
 9619TIP3    H150272   2.990   3.881  14.697 -0.3704 -0.2643  0.1523
 9619TIP3    H250273   3.069   3.876  14.826  1.6153 -0.9867 -1.0479
 9620TIP3   OH250274   0.565   2.736  16.790 -0.1300 -0.2687 -0.0578
 9620TIP3    H150275   0.590   2.828  16.784 -0.7112 -0.1270 -0.3551
 9620TIP3    H250276   0.618   2.702  16.862  2.2742 -0.4471 -1.7954
 9621TIP3   OH250277   0.829   0.827  12.589  0.2740  0.1653  0.8347
 9621TIP3    H150278   0.811   0.818  12.495  0.3148 -0.7630  0.9131
 9621TIP3    H250279   0.865   0.916  12.597 -1.8478  1.1491  0.3135
 9622TIP3   OH250280   4.211   3.761   3.836 -0.1053 -0.0133  0.2827
 9622TIP3    H150281   4.167   3.680   3.809 -0.0018  0.2462 -0.7285
 9622TIP3    H250282   4.302   3.735   3.849  0.3300  0.2577 -1.8526
 9623TIP3   OH250283   5.208   3.599  11.577  0.2992  0.0031 -0.5967
 9623TIP3    H150284   5.270   3.672  11.581 -0.2598  0.4319  0.6278
 9623TIP3    H250285   5.131   3.631  11.623 -1.3472 -0.0579 -3.0954
 9624TIP3   OH250286   1.570   2.175  15.118  0.2634 -0.2581 -0.0907
 9624TIP3    H150287   1.646   2.227  15.144 -1.7615  2.2992  1.2018
 9624TIP3    H250288   1.527   2.228  15.051 -1.4772 -0.5474  0.7298
 9625TIP3   OH250289   4.606   0.491   5.724  0.0705 -1.2144 -0.5562
 9625TIP3    H150290   4.525   0.534   5.698 -0.5837 -0.8500  1.8032
 9625TIP3    H250291   4.675   0.553   5.702 -0.5452 -0.4193 -0.2943
 9626TIP3   OH250292   3.272   5.836  11.699 -0.6869  0.2338  0.4834
 9626TIP3    H150293   3.229   5.827  11.614 -1.6888 -1.2161  1.0960
 9626TIP3    H250294   3.200   5.830  11.763  0.1944 -0.1463  1.4708
 9627TIP3   OH250295   4.855   0.380  14.042 -0.1407 -0.1723  0.1411
 9627TIP3    H150296   4.853   0.475  14.039  0.4302 -0.1595 -0.0229
 9627TIP3    H250297   4.809   0.357  14.123 -1.6210  0.1714 -0.5748
 9628TIP3   OH250298   0.111   2.730   4.059 -0.2608  0.4354  0.2790
 9628TIP3    H150299   0.113   2.757   3.967  0.1101 -0.2063  0.0889
 9628TIP3    H250300   0.202   2.741   4.088  0.0165 -0.9881  0.0628
 9629TIP3   OH250301   5.443   4.813   5.139 -0.5040  0.0785 -0.2415
 9629TIP3    H150302   5.372   4.811   5.076 -0.2907 -1.3753 -0.4755
 9629TIP3    H250303   5.417   4.879   5.203 -1.4359  0.4839 -1.0171
 9630TIP3   OH250304   4.041   5.178  12.473  0.4822 -0.1434  0.0612
 9630TIP3    H150305   3.962   5.205  12.520  1.0232  0.6180  0.5566
 9630TIP3    H250306   4.092   5.129  12.537  1.9357  2.2067  0.7934
 9631TIP3   OH250307   3.839   2.779  12.660  0.3642 -0.2317  0.3359
 9631TIP3    H150308   3.753   2.746  12.636 -0.1297  2.0403 -1.3715
 9631TIP3    H250309   3.900   2.726  12.609 -0.1701 -0.6449  0.1175
 9632TIP3   OH250310   1.355   4.507  17.171  0.1235 -0.2568 -0.5377
 9632TIP3    H150311   1.359   4.423  17.127  1.4849 -0.5958  0.1935
 9632TIP3    H250312   1.262   4.520  17.190 -0.1555 -1.3397 -1.1108
 9633TIP3   OH250313   4.280   4.650   1.217  0.6514 -0.6266 -0.6227
 9633TIP3    H150314   4.187   4.626   1.222  0.0786  0.9505 -2.3248
 9633TIP3    H250315   4.306   4.664   1.307 -1.2476  0.5066 -0.1989
 9634TIP3   OH250316   4.921   0.534  10.339  0.5077 -0.2693  0.1764
 9634TIP3    H150317   4.958   0.497  10.259  1.8097  0.9375  0.1778
 9634TIP3    H250318   4.865   0.465  10.374 -0.4441 -0.6745 -1.9963
 9635TIP3   OH250319   6.750   6.455   5.318  0.0421  0.0024 -0.9028
 9635TIP3    H150320   6.763   6.430   5.410 -3.4921  2.1382  0.3692
 9635TIP3    H250321   6.671   6.408   5.291 -1.2643  2.3638 -1.4572
 9636TIP3   OH250322   4.731   4.230   0.505  0.3257 -0.5668  0.0793
 9636TIP3    H150323   4.774   4.282   0.438  0.2268 -0.6653 -0.0607
 9636TIP3    H250324   4.701   4.151   0.460 -1.1931  0.0889 -0.1309
 9637TIP3   OH250325   5.058   3.374  13.085 -0.0135 -0.3458 -0.0171
 9637TIP3    H150326   4.996   3.311  13.050  0.5768 -0.8956 -0.0841
 9637TIP3    H250327   5.125   3.383  13.016 -0.3596  0.7447 -0.2335
 9638TIP3   OH250328   6.611   5.951   3.130 -0.1156  0.5577  0.2625
 9638TIP3    H150329   6.553   5.953   3.206 -2.5101  0.2416 -1.4424
 9638TIP3    H250330   6.698   5.934   3.166 -0.6286  3.1621  3.1598
 9639TIP3   OH250331   4.469   3.380  13.988 -0.0818 -0.1707 -0.4495
 9639TIP3    H150332   4.411   3.442  13.945 -0.4772  0.7923  1.3713
 9639TIP3    H250333   4.543   3.372  13.928 -0.6622  1.0026 -1.3762
 9640TIP3   OH250334   4.956   2.803   2.511  0.1286  0.1036 -0.0743
 9640TIP3    H150335   4.887   2.770   2.453 -2.1895  0.7439  2.1342
 9640TIP3    H250336   4.933   2.768   2.598  2.2401  0.8849  0.8746
 9641TIP3   OH250337   5.704   0.944   5.883  0.3359 -0.3733  0.1615
 9641TIP3    H150338   5.618   0.951   5.841 -0.0950  0.6428  1.1306
 9641TIP3    H250339   5.697   1.003   5.959  1.1748 -1.8923  1.4692
 9642TIP3   OH250340   5.003   1.978   4.650 -0.0918 -0.0385 -0.4383
 9642TIP3    H150341   5.000   1.907   4.714  0.4566 -1.7507 -2.1968
 9642TIP3    H250342   4.920   2.023   4.660 -0.4135 -0.8554  0.8084
 9643TIP3   OH250343   5.432   4.264   5.764 -0.3452 -0.0592  0.1406
 9643TIP3    H150344   5.380   4.285   5.842 -0.4922 -0.8495  0.2604
 9643TIP3    H250345   5.501   4.207   5.797 -1.5352 -2.0163 -0.6109
 9644TIP3   OH250346   0.129   0.093   2.390  0.1841  0.3249 -0.4547
 9644TIP3    H150347   0.209   0.139   2.419 -0.0706  0.3061  0.3164
 9644TIP3    H250348   0.159   0.005   2.367  0.8994  1.2057 -3.2061
 9645TIP3   OH250349   5.522   0.691  13.235  0.3739 -0.2739  0.8993
 9645TIP3    H150350   5.557   0.694  13.324  0.8963  1.3460  0.6752
 9645TIP3    H250351   5.451   0.627  13.238 -0.4853  0.7173  2.7975
 9646TIP3   OH250352   5.231   3.633   0.505  0.5246 -0.0223  0.1330
 9646TIP3    H150353   5.162   3.651   0.442  1.0387 -0.8778 -0.7146
 9646TIP3    H250354   5.311   3.632   0.452  1.6204  3.4974  1.4294
 9647TIP3   OH250355   4.737   6.300  16.992 -0.1288  0.0587 -0.6739
 9647TIP3    H150356   4.783   6.246  17.056 -1.5805  0.4911  0.8133
 9647TIP3    H250357   4.646   6.301  17.022 -0.7557  0.7766 -2.4244
 9648TIP3   OH250358   3.036   6.657   5.561  0.1387  0.0520  0.2959
 9648TIP3    H150359   3.074   6.669   5.648  0.4183 -1.8340  0.4765
 9648TIP3    H250360   2.944   6.634   5.579 -0.0257  0.4914  0.0402
 9649TIP3   OH250361   2.118   2.629  11.440  0.3084  0.0860 -0.3384
 9649TIP3    H150362   2.112   2.541  11.477  2.9884  0.7437  2.0777
 9649TIP3    H250363   2.028   2.659  11.434 -0.7767 -3.0794 -2.1713
 9650TIP3   OH250364   6.213   1.043   4.727 -0.3771  0.1338  0.6117
 9650TIP3    H150365   6.164   1.054   4.808  0.5107 -0.7793  1.3019
 9650TIP3    H250366   6.286   1.105   4.734 -0.8814  0.8228  0.0053
 9651TIP3   OH250367   3.001   3.052   4.241 -0.0090 -0.1949 -0.6778
 9651TIP3    H150368   2.911   3.070   4.214 -0.0994  0.3520 -0.0281
 9651TIP3    H250369   3.000   2.960   4.267 -0.6077  0.0437  0.1887
 9652TIP3   OH250370   2.268   5.763  12.111 -0.1138 -0.2244 -0.2121
 9652TIP3    H150371   2.353   5.731  12.082  1.9013  2.1853  2.4852
 9652TIP3    H250372   2.274   5.859  12.102 -2.8664 -0.0093 -0.6156
 9653TIP3   OH250373   3.447   0.081  12.655 -0.6701 -0.1533  0.0700
 9653TIP3    H150374   3.367   0.103  12.608 -1.3950 -0.2520  1.2397
 9653TIP3    H250375   3.455  -0.014  12.646 -0.0522 -0.0180 -1.0078
 9654TIP3   OH250376   4.889   0.552  12.501 -0.2563  0.3761 -0.1347
 9654TIP3    H150377   4.807   0.531  12.457 -0.4345 -0.7675  0.6815
 9654TIP3    H250378   4.955   0.552  12.432 -0.7733  0.1830 -0.6311
 9655TIP3   OH250379   0.690   5.143   5.555  0.0609  0.6940  0.0212
 9655TIP3    H150380   0.616   5.201   5.576  0.3227  1.3926 -0.9254
 9655TIP3    H250381   0.680   5.070   5.616  0.8798  2.6409  2.7081
 9656TIP3   OH250382   6.217   5.281  17.127 -0.0703  0.2903  0.2108
 9656TIP3    H150383   6.159   5.345  17.085 -1.9265 -1.1141  0.5150
 9656TIP3    H250384   6.284   5.334  17.170 -1.4324  2.0185  0.3151
 9657TIP3   OH250385   0.496   0.584   0.911 -0.0548  0.2280 -0.1702
 9657TIP3    H150386   0.404   0.555   0.911  0.1307 -0.4127 -0.8775
 9657TIP3    H250387   0.493   0.672   0.873 -0.2030 -0.5346 -2.0565
 9658TIP3   OH250388   4.891   1.934  11.209  0.5077 -0.6118 -0.1278
 9658TIP3    H150389   4.957   1.866  11.219 -0.3396 -1.1752  2.2205
 9658TIP3    H250390   4.809   1.892  11.235 -0.6254  0.4240 -1.7625
 9659TIP3   OH250391   4.583   0.217   2.543  0.4087  0.2132 -0.1580
 9659TIP3    H150392   4.653   0.180   2.489  0.8334  1.0522 -0.2063
 9659TIP3    H250393   4.599   0.181   2.630  2.1715  1.9122  0.3242
 9660TIP3   OH250394   3.522   4.517   5.103 -0.0306 -0.3992  0.3342
 9660TIP3    H150395   3.520   4.608   5.072  0.4543  0.1184  1.7615
 9660TIP3    H250396   3.465   4.470   5.042  0.0583  0.7702 -0.6970
 9661TIP3   OH250397   0.114   6.749  13.640  0.0010 -0.3062  0.0371
 9661TIP3    H150398   0.112   6.838  13.604  0.3873  0.1962  1.2210
 9661TIP3    H250399   0.206   6.733  13.660 -0.0500 -1.0279 -0.2850
 9662TIP3   OH250400   5.695   3.385   2.986  0.5774  0.1338  0.4705
 9662TIP3    H150401   5.606   3.410   3.010  0.7433 -0.1887  1.4794
 9662TIP3    H250402   5.749   3.459   3.013  0.5755  0.5320 -0.5747
 9663TIP3   OH250403   2.653   4.808   6.303 -0.2200  0.1329 -0.1122
 9663TIP3    H150404   2.668   4.837   6.213 -0.1531  0.1240 -0.1034
 9663TIP3    H250405   2.740   4.791   6.338 -0.2202  0.5582  0.0953
 9664TIP3   OH250406   5.465   3.866  12.589  0.0772  0.5880  0.6209
 9664TIP3    H150407   5.446   3.905  12.674 -0.9018 -0.0502  0.7164
 9664TIP3    H250408   5.559   3.852  12.588  0.7602  4.2840 -0.0052
 9665TIP3   OH250409   1.956   6.785   0.012 -0.1752 -0.3074 -0.6185
 9665TIP3    H150410   1.971   6.794   0.106  0.5259 -0.0934 -0.7438
 9665TIP3    H250411   1.868   6.822  -0.002  0.2308  0.8657 -0.2296
 9666TIP3   OH250412   2.051   5.429  16.290 -0.4137  0.0265 -0.0462
 9666TIP3    H150413   1.991   5.372  16.339 -1.7140  1.0748 -0.3429
 9666TIP3    H250414   2.030   5.412  16.198  0.2248 -0.0917 -0.1710
 9667TIP3   OH250415   4.941   2.554   5.069  0.2205  0.1368  0.2653
 9667TIP3    H150416   5.022   2.570   5.021  0.3792 -1.9050 -0.2373
 9667TIP3    H250417   4.969   2.514   5.151 -0.2295  0.3599  0.5316
 9668TIP3   OH250418   3.261   2.352  15.317 -0.0183 -0.2050 -0.0769
 9668TIP3    H150419   3.230   2.278  15.265  0.4124 -0.5881  0.2099
 9668TIP3    H250420   3.304   2.312  15.393 -0.2811  0.3422  0.3692
 9669TIP3   OH250421   0.164   2.457  16.967  0.1403 -0.2252 -0.0733
 9669TIP3    H150422   0.094   2.490  16.910  0.3365 -3.2090 -2.2671
 9669TIP3    H250423   0.129   2.375  17.003  2.5379 -2.0187 -1.5600
 9670TIP3   OH250424   6.102   6.759   0.606  0.8202 -0.0763 -0.1556
 9670TIP3    H150425   6.007   6.766   0.600  0.4404 -2.3511  1.8324
 9670TIP3    H250426   6.127   6.829   0.666  0.4088  0.3623 -0.4803
 9671TIP3   OH250427   0.668   0.663   4.372  0.2990 -0.0011 -0.3599
 9671TIP3    H150428   0.700   0.730   4.310  1.8411 -0.6150 -0.2828
 9671TIP3    H250429   0.608   0.610   4.320  0.2183  0.5366 -0.8372
 9672TIP3   OH250430   3.579   4.758   4.627 -0.1151  0.2570  0.3790
 9672TIP3    H150431   3.606   4.846   4.603  0.2982 -0.1256 -0.6411
 9672TIP3    H250432   3.560   4.762   4.720 -0.8765  1.6142  0.1838
 9673TIP3   OH250433   4.432   5.844   1.387 -0.4448 -0.3114  1.0827
 9673TIP3    H150434   4.429   5.908   1.315 -0.4084 -2.2367 -0.7161
 9673TIP3    H250435   4.514   5.863   1.432  0.7470 -0.5487 -0.8775
 9674TIP3   OH250436   2.419   4.734  14.015 -0.0863  0.2157 -0.0601
 9674TIP3    H150437   2.480   4.766  13.949  1.2340 -1.5363  0.2571
 9674TIP3    H250438   2.332   4.754  13.980  0.6175  2.4174 -0.6970
 9675TIP3   OH250439   3.064   4.003   4.004  0.2617 -0.4620  0.1233
 9675TIP3    H150440   3.010   4.016   4.082 -1.8009  0.5657 -1.3957
 9675TIP3    H250441   3.129   4.073   4.009 -1.7816  1.6107 -0.5627
 9676TIP3   OH250442   0.246   5.803   4.038 -0.7088  0.1416  0.1444
 9676TIP3    H150443   0.246   5.867   4.109  0.6095  0.1057  0.2128
 9676TIP3    H250444   0.200   5.846   3.966 -0.1307  1.0570  0.2980
 9677TIP3   OH250445   0.328   5.856   0.376  0.6692 -0.6974 -0.1736
 9677TIP3    H150446   0.417   5.882   0.401  0.3972 -0.1746  0.2761
 9677TIP3    H250447   0.273   5.929   0.404  0.2604 -0.3418 -1.7653
 9678TIP3   OH250448   3.992   4.623  16.444  0.1721  0.0604  0.6743
 9678TIP3    H150449   3.921   4.597  16.503  1.4149  0.0067  2.1896
 9678TIP3    H250450   3.953   4.690  16.388 -1.1909 -0.2737  1.1797
 9679TIP3   OH250451   3.014   0.986   5.614  0.5036  0.1278  0.1706
 9679TIP3    H150452   3.021   1.034   5.696  1.2347  0.7202 -0.2190
 9679TIP3    H250453   2.995   0.896   5.639 -1.9180  0.7836  0.8913
 9680TIP3   OH250454   3.715   4.075  14.660 -0.5337 -0.1103  0.2609
 9680TIP3    H150455   3.640   4.128  14.685 -1.4844 -1.4136  0.2816
 9680TIP3    H250456   3.678   3.990  14.636  0.9751 -0.9659  0.7904
 9681TIP3   OH250457   0.108   5.880   3.256  0.3002 -0.1019  0.5953
 9681TIP3    H150458   0.182   5.845   3.207 -0.6450 -0.5817 -0.5565
 9681TIP3    H250459   0.146   5.920   3.334  1.6375 -1.6298  0.7666
 9682TIP3   OH250460   6.567   1.423  12.604  0.3295  0.0446 -0.1396
 9682TIP3    H150461   6.510   1.457  12.535 -0.3322  0.3401  0.5485
 9682TIP3    H250462   6.538   1.332  12.616  0.4038  0.0119 -0.2070
 9683TIP3   OH250463   4.409   5.860  14.265 -0.1513  0.0940  0.3645
 9683TIP3    H150464   4.327   5.823  14.296  0.4097 -0.1252  1.6555
 9683TIP3    H250465   4.467   5.859  14.342  0.9961  0.4161 -0.4628
 9684TIP3   OH250466   2.370   2.928  12.150  0.5019  0.1428  0.0105
 9684TIP3    H150467   2.277   2.948  12.149  0.3344 -0.5842 -0.7784
 9684TIP3    H250468   2.376   2.845  12.198  0.5600 -0.5186 -1.1015
 9685TIP3   OH250469   1.837   3.853   5.683 -0.2978  0.2014  0.4303
 9685TIP3    H150470   1.817   3.861   5.590  1.0473 -0.5985  0.0476
 9685TIP3    H250471   1.854   3.943   5.712 -1.7019  0.5832  0.1762
 9686TIP3   OH250472   2.676   1.832   3.425  0.3604  0.0995  0.1784
 9686TIP3    H150473   2.716   1.915   3.451  1.6078 -0.5709  0.4994
 9686TIP3    H250474   2.750   1.773   3.414 -0.1730 -0.0907 -3.4355
 9687TIP3   OH250475   0.585   0.517  14.599 -0.3655  0.5651  0.1088
 9687TIP3    H150476   0.640   0.459  14.652 -0.9413 -0.8903 -0.8389
 9687TIP3    H250477   0.496   0.487  14.614 -0.5716  0.3620 -1.3800
 9688TIP3   OH250478   2.195   3.290  13.132 -0.6445  0.0798 -0.1724
 9688TIP3    H150479   2.269   3.323  13.182  0.3943  0.8318 -2.0714
 9688TIP3    H250480   2.216   3.199  13.114 -0.1479  0.2822 -0.6796
 9689TIP3   OH250481   1.601   2.806   2.470  0.3655  0.0917 -0.7855
 9689TIP3    H150482   1.507   2.816   2.459  0.4687  0.2093 -1.6069
 9689TIP3    H250483   1.637   2.816   2.382  1.2546  1.2435 -0.3256
 9690TIP3   OH250484   2.662   0.888  17.171 -0.3038 -0.1339  0.6160
 9690TIP3    H150485   2.573   0.921  17.186 -0.5884 -0.2866 -0.6218
 9690TIP3    H250486   2.709   0.908  17.252 -1.5719 -0.4254  1.4634
 9691TIP3   OH250487   6.362   1.457  13.465  0.1866  0.0237 -0.4292
 9691TIP3    H150488   6.441   1.407  13.482  1.2253  1.2866 -1.3932
 9691TIP3    H250489   6.390   1.549  13.469 -1.5951  0.5831  1.0062
 9692TIP3   OH250490   4.838   1.825  15.569  0.3078  0.3747 -0.1109
 9692TIP3    H150491   4.853   1.770  15.492 -1.1768 -0.0193 -0.1641
 9692TIP3    H250492   4.877   1.910  15.546  1.6214 -0.3072 -0.4832
 9693TIP3   OH250493   4.853   5.200  15.937 -0.2988  0.2278  0.4871
 9693TIP3    H150494   4.863   5.197  16.032  2.5285  1.9395  0.3439
 9693TIP3    H250495   4.820   5.288  15.919  2.2623  1.1006 -0.2412
 9694TIP3   OH250496   0.482   5.523   4.621 -0.0805 -0.7779  0.1380
 9694TIP3    H150497   0.559   5.516   4.678  0.1240 -0.8537 -0.1440
 9694TIP3    H250498   0.409   5.536   4.681  0.5368  2.8949  0.3137
 9695TIP3   OH250499   4.954   5.571  13.127  0.3875 -0.1888  0.2168
 9695TIP3    H150500   4.870   5.531  13.150  0.3824  0.8168  2.1463
 9695TIP3    H250501   4.951   5.579  13.031 -1.9916  0.4135  0.2738
 9696TIP3   OH250502   1.985   6.155   1.356 -0.6395  0.3584 -0.1227
 9696TIP3    H150503   2.067   6.178   1.400 -1.3296  0.7788  0.9976
 9696TIP3    H250504   1.919   6.210   1.398 -1.1968  1.6776 -2.5129
 9697TIP3   OH250505   3.842   5.147  14.821 -0.4020 -0.1554  0.2325
 9697TIP3    H150506   3.890   5.228  14.834 -0.6688 -0.0646  0.6523
 9697TIP3    H250507   3.853   5.127  14.728  0.4846 -0.1608  0.3271
 9698TIP3   OH250508   4.740   1.555  14.155  0.4388 -0.1418 -0.7795
 9698TIP3    H150509   4.701   1.472  14.128  0.6937 -0.1826 -1.0291
 9698TIP3    H250510   4.833   1.546  14.134  0.2168  0.8358 -2.4409
 9699TIP3   OH250511   5.019   1.697   1.201 -0.8494  0.5864  0.2432
 9699TIP3    H150512   5.064   1.742   1.129 -2.0583  0.7376 -0.4514
 9699TIP3    H250513   5.088   1.677   1.264  0.2569  0.3639 -1.0055
 9700TIP3   OH250514   4.529   4.686  14.424  0.0355 -0.1854 -0.2877
 9700TIP3    H150515   4.547   4.760  14.366 -2.8222 -1.5322 -3.1899
 9700TIP3    H250516   4.477   4.724  14.495  0.7510  0.9830 -0.3660
 9701TIP3   OH250517   4.975   3.086   4.967 -0.0808  0.3696  0.2947
 9701TIP3    H150518   4.954   2.995   4.944  0.9906  0.3814 -0.8549
 9701TIP3    H250519   5.058   3.080   5.014  3.0647  0.9994 -4.4270
 9702TIP3   OH250520   6.247   0.396   5.300 -0.4770  0.7131 -0.3084
 9702TIP3    H150521   6.290   0.466   5.349 -2.6985  2.1282 -0.2857
 9702TIP3    H250522   6.316   0.331   5.287  1.2032  2.0890  1.2069
 9703TIP3   OH250523   2.692   0.169  15.148  0.3243  0.2291 -0.0326
 9703TIP3    H150524   2.777   0.205  15.174  1.1520 -1.1199 -0.7499
 9703TIP3    H250525   2.713   0.108  15.078 -1.0030 -1.6481  1.1386
 9704TIP3   OH250526   2.163   3.255   4.838  0.0630 -0.4062  0.0481
 9704TIP3    H150527   2.195   3.294   4.757 -1.7521  1.4641  0.1412
 9704TIP3    H250528   2.107   3.183   4.810 -2.5393  1.7352 -0.5890
 9705TIP3   OH250529   5.923   1.540   2.182  0.1139 -0.3919  0.0049
 9705TIP3    H150530   6.014   1.519   2.202  0.0439 -1.4494 -0.6915
 9705TIP3    H250531   5.927   1.627   2.142  0.9497 -0.8237 -0.8953
 9706TIP3   OH250532   1.915   4.203  11.192  0.2503  0.3776 -0.5857
 9706TIP3    H150533   2.006   4.195  11.161  0.7738  1.5664  0.5468
 9706TIP3    H250534   1.893   4.295  11.177 -0.7722  0.1104 -0.8044
 9707TIP3   OH250535   3.361   5.269  13.009 -0.0418 -0.4524  0.1181
 9707TIP3    H150536   3.367   5.180  12.975 -0.5590  0.6333 -3.2671
 9707TIP3    H250537   3.269   5.281  13.031 -0.3090 -0.3401 -0.9701
 9708TIP3   OH250538   6.808   4.949   4.337  0.5614  0.0863 -0.4750
 9708TIP3    H150539   6.848   5.034   4.316  2.9429 -0.4856  1.2939
 9708TIP3    H250540   6.865   4.912   4.403 -1.2948 -2.2638 -0.0607
 9709TIP3   OH250541   3.195   6.699  11.416  0.1013 -0.0690  0.1478
 9709TIP3    H150542   3.134   6.629  11.441 -0.0691 -0.5588 -1.5384
 9709TIP3    H250543   3.158   6.734  11.335  0.6721  1.3902  0.5040
 9710TIP3   OH250544   0.748   6.554  16.162  0.4132 -0.2396 -0.2961
 9710TIP3    H150545   0.759   6.460  16.154 -1.8920 -0.5705 -0.2426
 9710TIP3    H250546   0.829   6.585  16.204  0.9352 -2.2588  0.2638
 9711TIP3   OH250547   6.479   0.665  11.500 -0.5033 -0.4093 -0.0396
 9711TIP3    H150548   6.570   0.670  11.473 -0.3146 -1.1029  0.4554
 9711TIP3    H250549   6.459   0.753  11.533  0.0685 -0.3316  0.1062
 9712TIP3   OH250550   2.735   3.368  11.550 -0.1998 -0.3730 -0.3358
 9712TIP3    H150551   2.642   3.388  11.548  0.0898  1.0316 -0.9567
 9712TIP3    H250552   2.764   3.380  11.460  0.7451  0.1218  0.0182
 9713TIP3   OH250553   0.298   5.911   2.884  0.4369  0.9861 -0.4244
 9713TIP3    H150554   0.248   5.895   2.804 -0.9595 -1.5891  0.8344
 9713TIP3    H250555   0.238   5.962   2.939  1.6439  3.3499 -1.1563
 9714TIP3   OH250556   1.356   5.782   0.883 -0.0959 -0.3308 -0.0166
 9714TIP3    H150557   1.366   5.691   0.857 -3.3699 -0.6349 -0.5725
 9714TIP3    H250558   1.352   5.780   0.979  1.2802 -0.5360  0.0578
 9715TIP3   OH250559   3.785   5.927  13.384 -0.3961 -0.2214 -0.3946
 9715TIP3    H150560   3.874   5.896  13.403 -0.3721 -0.5569 -1.0501
 9715TIP3    H250561   3.756   5.874  13.310 -0.7725  0.5609 -0.8234
 9716TIP3   OH250562   1.875   6.564  11.277  0.5667  0.0648  0.3161
 9716TIP3    H150563   1.964   6.536  11.258  0.5060  0.3443 -0.4251
 9716TIP3    H250564   1.821   6.488  11.255  0.5209  0.3011 -0.4474
 9717TIP3   OH250565   2.335   3.064  12.757 -0.1521 -0.7467  0.0654
 9717TIP3    H150566   2.303   3.069  12.667 -2.3583  0.1380  0.8378
 9717TIP3    H250567   2.319   2.973  12.782 -1.0506 -0.5943  0.0699
 9718TIP3   OH250568   5.560   6.766  11.350  0.7707  0.0745  0.3149
 9718TIP3    H150569   5.592   6.807  11.430  0.4778  0.7943  0.0687
 9718TIP3    H250570   5.631   6.707  11.324  1.9362  1.6169 -0.2005
 9719TIP3   OH250571   3.117   0.710  13.548 -0.7327  0.2890 -0.3743
 9719TIP3    H150572   3.101   0.693  13.455 -0.1484 -0.3661 -0.3692
 9719TIP3    H250573   3.109   0.623  13.589 -0.0878  0.4237  0.0455
 9720TIP3   OH250574   2.958   1.022   3.965 -0.2099  0.1701 -0.3990
 9720TIP3    H150575   2.914   1.103   3.992  1.1474  0.7725  0.1019
 9720TIP3    H250576   2.988   1.040   3.876 -0.8821 -0.2067 -0.7065
 9721TIP3   OH250577   2.484   3.852  13.607 -0.1035 -0.1721  0.0070
 9721TIP3    H150578   2.420   3.854  13.679 -1.7073 -0.5438 -1.3368
 9721TIP3    H250579   2.521   3.940  13.607 -0.4031 -0.0238  1.0037
 9722TIP3   OH250580   3.459   3.251   4.371  0.5288 -0.7366  0.1519
 9722TIP3    H150581   3.369   3.232   4.346 -0.0188  0.5750  1.0082
 9722TIP3    H250582   3.503   3.273   4.288 -0.4789  0.5817 -0.0648
 9723TIP3   OH250583   3.955   4.745   4.479  0.4654  0.1193 -0.0734
 9723TIP3    H150584   3.947   4.839   4.492 -1.5293 -0.1045  0.5993
 9723TIP3    H250585   3.958   4.708   4.567  0.4044 -0.5090 -0.3301
 9724TIP3   OH250586   5.648   2.993   1.853 -0.3796 -0.1470 -0.6187
 9724TIP3    H150587   5.648   3.066   1.914  1.0643 -2.5673  2.5250
 9724TIP3    H250588   5.738   2.961   1.854 -1.0596 -2.2677 -1.4932
 9725TIP3   OH250589   6.332   5.246   3.724  0.6041 -0.2429 -0.7555
 9725TIP3    H150590   6.255   5.298   3.746 -0.1148 -1.3092 -0.7018
 9725TIP3    H250591   6.375   5.229   3.808  3.2747  3.7835 -1.0253
 9726TIP3   OH250592   1.400   2.848  12.481  0.2873  0.4442  0.3840
 9726TIP3    H150593   1.468   2.819  12.542  1.6788  3.2099  0.2919
 9726TIP3    H250594   1.321   2.851  12.534  0.8268 -0.1295  1.2556
 9727TIP3   OH250595   2.946   3.126   1.106  0.2699 -0.3325 -0.1780
 9727TIP3    H150596   2.923   3.072   1.031  0.2921 -0.7829  0.1396
 9727TIP3    H250597   2.963   3.064   1.177  0.3220  0.0851  0.1812
 9728TIP3   OH250598   3.909   2.201  13.166 -0.5407  0.0648  0.0768
 9728TIP3    H150599   3.873   2.248  13.091  0.8476  1.6872  0.3603
 9728TIP3    H250600   3.899   2.263  13.239  0.8035 -0.2991  0.5960
 9729TIP3   OH250601   3.052   0.063  14.106  0.4460  0.6608 -0.6684
 9729TIP3    H150602   2.975   0.010  14.124  1.5347 -1.4778 -1.8266
 9729TIP3    H250603   3.076   0.101  14.191 -1.3601  0.7051 -0.1423
 9730TIP3   OH250604   3.969   5.968  13.990  0.0555  0.4194  0.4443
 9730TIP3    H150605   4.009   5.882  14.006 -0.2034  0.4246  1.1660
 9730TIP3    H250606   3.891   5.948  13.937  0.4913  0.3116 -0.1651
 9731TIP3   OH250607   1.341   2.170  13.324  0.2495  0.6878 -0.4195
 9731TIP3    H150608   1.355   2.249  13.376  1.4063  0.7981 -0.8761
 9731TIP3    H250609   1.377   2.191  13.238 -1.5350  0.4736 -1.2736
 9732TIP3   OH250610   6.538   3.897  13.513  0.0896  0.1226  0.6195
 9732TIP3    H150611   6.626   3.912  13.546  0.0780 -1.5544  1.5492
 9732TIP3    H250612   6.541   3.808  13.476 -0.9665  0.4119 -0.2142
 9733TIP3   OH250613   1.405   3.564  14.174  0.3496 -0.6020  0.1656
 9733TIP3    H150614   1.319   3.524  14.185  0.2783 -0.2089  1.1543
 9733TIP3    H250615   1.454   3.538  14.252  0.6366  0.3769  0.3276
 9734TIP3   OH250616   5.061   1.875  16.857  0.4548 -0.2415  0.0444
 9734TIP3    H150617   5.045   1.782  16.868 -0.3079 -0.2257 -0.7823
 9734TIP3    H250618   5.154   1.882  16.836 -0.0824 -1.1629 -3.1056
 9735TIP3   OH250619   6.225   4.653   0.382 -0.0330  0.0334 -0.3204
 9735TIP3    H150620   6.204   4.668   0.290  0.3988  1.3207 -0.2277
 9735TIP3    H250621   6.179   4.572   0.404  1.2983 -1.2840 -2.1284
 9736TIP3   OH250622   0.119   6.339  10.476 -0.7437 -0.5942  0.1448
 9736TIP3    H150623   0.070   6.296  10.546 -2.8678  0.2560 -0.7384
 9736TIP3    H250624   0.127   6.430  10.505 -0.8312 -0.4434 -0.2984
 9737TIP3   OH250625   1.989   3.697  17.031 -0.2590 -0.5345  0.2119
 9737TIP3    H150626   1.931   3.622  17.020 -1.1026 -0.0879  1.4161
 9737TIP3    H250627   1.957   3.761  16.967 -0.5854 -0.5863  0.3228
 9738TIP3   OH250628   2.955   4.984   3.204 -0.8840  0.1477 -0.0577
 9738TIP3    H150629   2.865   5.016   3.206 -0.3183  1.9737 -1.3573
 9738TIP3    H250630   3.005   5.055   3.165  0.9006 -1.3803 -0.7013
 9739TIP3   OH250631   0.158   4.353  13.205  0.0506  0.2446 -0.1216
 9739TIP3    H150632   0.186   4.443  13.189 -0.6655  0.4699 -0.1701
 9739TIP3    H250633   0.236   4.308  13.238  0.5555  0.7423 -0.6221
 9740TIP3   OH250634   6.699   5.517   2.846  0.3473 -0.3354  0.6404
 9740TIP3    H150635   6.691   5.518   2.941  0.5032 -2.8028  0.7335
 9740TIP3    H250636   6.614   5.548   2.815  0.7106  1.7237  1.5231
 9741TIP3   OH250637   4.931   3.797  15.105 -0.5557  0.2410 -0.0110
 9741TIP3    H150638   4.974   3.730  15.051 -0.2727 -0.4961  1.0980
 9741TIP3    H250639   4.994   3.869  15.109  1.3911 -1.4249  2.8663
 9742TIP3   OH250640   4.422   5.572   3.566  0.1222  0.3225  0.5976
 9742TIP3    H150641   4.389   5.545   3.481  0.2945 -0.4344  0.7667
 9742TIP3    H250642   4.416   5.494   3.621 -1.4261  1.1673  1.7358
 9743TIP3   OH250643   4.825   5.193  16.222 -0.5942 -0.1195  0.2803
 9743TIP3    H150644   4.863   5.194  16.309  0.0232  1.8956  0.0275
 9743TIP3    H250645   4.735   5.161  16.236 -0.8480  1.1398  1.8254
 9744TIP3   OH250646   2.954   5.064   1.641  0.0069 -0.5672  0.4620
 9744TIP3    H150647   2.999   5.038   1.561 -1.4089 -1.8486  0.0441
 9744TIP3    H250648   2.994   5.011   1.710  0.0406 -0.7338  0.3135
 9745TIP3   OH250649   6.761   5.771   5.103  0.0983  0.2486 -0.4414
 9745TIP3    H150650   6.854   5.790   5.115  0.5194 -2.4679  1.4090
 9745TIP3    H250651   6.717   5.852   5.130  1.8597  1.6193 -1.4548
 9746TIP3   OH250652   2.622   3.881  15.599 -0.6304 -0.3703 -0.2756
 9746TIP3    H150653   2.545   3.920  15.558 -1.5734  1.7600  3.1058
 9746TIP3    H250654   2.629   3.925  15.684  4.8170  0.1626 -0.6147
 9747TIP3   OH250655   1.431   2.329  12.771  0.2604 -0.4287  0.4545
 9747TIP3    H150656   1.403   2.325  12.679 -0.1198 -0.6341  0.5760
 9747TIP3    H250657   1.485   2.250  12.782  0.9247 -0.0198  0.2134
 9748TIP3   OH250658   6.467   5.507   5.138 -0.6289  0.3340  0.1589
 9748TIP3    H150659   6.494   5.565   5.210 -1.9335  0.8172  0.3063
 9748TIP3    H250660   6.409   5.443   5.180 -1.1702  0.4445 -0.4002
 9749TIP3   OH250661   1.346   2.240   3.590  0.9291 -0.2997 -0.2907
 9749TIP3    H150662   1.425   2.277   3.630  0.9311 -0.2657 -0.3257
 9749TIP3    H250663   1.324   2.301   3.519  0.0203  0.5086  0.6561
 9750TIP3   OH250664   0.097   6.807   3.824  0.0227  0.2121 -0.7243
 9750TIP3    H150665   0.149   6.729   3.845 -0.1980  0.4937  0.9794
 9750TIP3    H250666   0.027   6.774   3.768 -1.5783 -1.3619  1.9924
 9751TIP3   OH250667   2.717   4.552  15.117  0.3341 -0.4630  0.4872
 9751TIP3    H150668   2.706   4.458  15.102 -0.1940 -0.5061  1.0946
 9751TIP3    H250669   2.717   4.561  15.213 -0.6801  0.2628  0.4314
 9752TIP3   OH250670   0.062   0.003  12.233 -0.5192 -0.1403 -0.2219
 9752TIP3    H150671   0.134   0.048  12.277 -1.3516  0.4293  0.6029
 9752TIP3    H250672   0.022   0.069  12.177  0.2598 -0.7474 -1.5380
 9753TIP3   OH250673   2.501   0.725   5.389 -0.1425  0.1302 -0.1694
 9753TIP3    H150674   2.461   0.693   5.470 -0.8568  3.3101  0.8870
 9753TIP3    H250675   2.464   0.670   5.320 -0.2632 -2.0370  1.5132
 9754TIP3   OH250676   2.370   2.247   6.373  0.3297  0.2886  0.3280
 9754TIP3    H150677   2.408   2.233   6.286  0.6863  1.6586  0.2437
 9754TIP3    H250678   2.440   2.222   6.433  0.4146  0.2450  0.2125
 9755TIP3   OH250679   5.877   2.213  12.192  0.4906 -0.3541  0.3693
 9755TIP3    H150680   5.889   2.151  12.120  1.2158 -1.9355  1.8132
 9755TIP3    H250681   5.787   2.198  12.222  0.1994  0.2837 -0.1334
 9756TIP3   OH250682   3.080   2.897  12.345  0.0016 -0.1254 -0.0823
 9756TIP3    H150683   2.995   2.941  12.342  1.6446  3.6972  2.2972
 9756TIP3    H250684   3.086   2.863  12.434  0.6510 -1.1824 -0.5104
 9757TIP3   OH250685   0.296   0.557  16.767 -0.2463 -0.2752  0.3677
 9757TIP3    H150686   0.215   0.505  16.765 -0.0734 -0.6254  1.6192
 9757TIP3    H250687   0.362   0.497  16.803  0.3914  0.2533  0.1016
 9758TIP3   OH250688   2.873   0.965  11.858  0.0458 -0.5506  0.1881
 9758TIP3    H150689   2.908   1.001  11.940  0.3693 -0.0479 -0.1593
 9758TIP3    H250690   2.780   0.985  11.862  0.1245 -0.1773  0.2634
 9759TIP3   OH250691   1.739   3.320  14.965  0.5666  0.0821 -0.0371
 9759TIP3    H150692   1.666   3.311  15.026 -0.1567 -1.2627 -1.0600
 9759TIP3    H250693   1.726   3.405  14.924  0.4641  0.5298  0.8891
 9760TIP3   OH250694   3.402   0.256  16.958 -0.4415 -0.2556  0.1586
 9760TIP3    H150695   3.476   0.273  16.900  0.3337  0.0838  1.2039
 9760TIP3    H250696   3.329   0.306  16.920  0.3704  0.9458  0.1334
 9761TIP3   OH250697   2.258   2.246  15.056 -0.1738  0.3025 -0.2010
 9761TIP3    H150698   2.215   2.181  15.000  0.6816  0.2338 -0.7864
 9761TIP3    H250699   2.256   2.207  15.144  1.0761 -0.9141 -0.6754
 9762TIP3   OH250700   2.597   1.876   1.393  0.0598  0.1978 -0.1130
 9762TIP3    H150701   2.537   1.871   1.319 -1.1011 -0.6626  0.8488
 9762TIP3    H250702   2.572   1.955   1.439  0.7354  0.6940 -0.5679
 9763TIP3   OH250703   0.358   6.667  16.497  0.7640 -0.2827  0.7486
 9763TIP3    H150704   0.386   6.703  16.413  0.7117 -1.5058  0.1897
 9763TIP3    H250705   0.349   6.744  16.554 -0.5726  0.7374 -0.7432
 9764TIP3   OH250706   1.433   3.829  15.216 -0.3157  0.4100  0.0783
 9764TIP3    H150707   1.523   3.828  15.250  0.8087  1.7926 -2.5655
 9764TIP3    H250708   1.427   3.750  15.161 -0.5428  0.5744 -0.1372
 9765TIP3   OH250709   2.275   3.817   2.460  0.3262 -0.7809  0.7108
 9765TIP3    H150710   2.212   3.861   2.403  0.7513 -1.9009 -0.6674
 9765TIP3    H250711   2.359   3.858   2.441  0.4503 -1.0730  0.6188
 9766TIP3   OH250712   1.979   0.302  14.364  0.1934  0.5451 -0.0708
 9766TIP3    H150713   1.888   0.276  14.347  0.5164 -2.6011  2.2611
 9766TIP3    H250714   2.032   0.234  14.323  1.3500  0.3610  1.6569
 9767TIP3   OH250715   1.990   2.739  13.595  0.1178 -0.2716 -0.6127
 9767TIP3    H150716   1.898   2.718  13.613  0.6975 -3.0375 -0.5472
 9767TIP3    H250717   1.990   2.769  13.504 -1.0863  1.8636  0.0126
 9768TIP3   OH250718   5.705   4.803  13.842 -0.4418 -0.0523 -0.1009
 9768TIP3    H150719   5.755   4.848  13.774  0.4212  0.5162  0.8890
 9768TIP3    H250720   5.753   4.722  13.857 -1.1036 -0.5758 -0.7490
 9769TIP3   OH250721   4.721   1.573  14.481  0.4388 -0.6154 -0.1369
 9769TIP3    H150722   4.628   1.561  14.497  0.4575  0.5378  0.9414
 9769TIP3    H250723   4.728   1.580  14.385 -0.7644  0.5474 -0.1683
 9770TIP3   OH250724   3.112   0.831  12.586  0.1171 -0.3814 -0.2212
 9770TIP3    H150725   3.031   0.859  12.544 -0.4364 -0.6415  0.6449
 9770TIP3    H250726   3.102   0.856  12.678  1.0800 -0.2951 -0.1243
 9771TIP3   OH250727   2.217   3.411   3.086 -0.1460  0.2460 -0.5212
 9771TIP3    H150728   2.132   3.368   3.075  0.0921 -0.2689 -0.3690
 9771TIP3    H250729   2.259   3.400   3.001 -0.0964  0.2010 -0.4909
 9772TIP3   OH250730   2.552   2.534  11.730  0.0234  0.1389  0.4607
 9772TIP3    H150731   2.469   2.555  11.772  0.6528 -0.5193  2.1157
 9772TIP3    H250732   2.608   2.503  11.801  0.1846 -4.0286 -1.1987
 9773TIP3   OH250733   1.666   4.364   4.323 -0.1794 -0.2411 -1.0124
 9773TIP3    H150734   1.644   4.420   4.249  0.3998 -0.0950 -1.0730
 9773TIP3    H250735   1.612   4.397   4.395  0.6024  0.7960 -0.8776
 9774TIP3   OH250736   2.525   4.913   3.152  0.1500 -0.4453  0.3470
 9774TIP3    H150737   2.460   4.873   3.210  1.8360 -0.5454  2.3068
 9774TIP3    H250738   2.476   4.941   3.075 -2.1905 -0.4936  1.7388
 9775TIP3   OH250739   0.164   4.342   1.040  0.3869  0.0284 -0.2127
 9775TIP3    H150740   0.161   4.438   1.046  1.0155  0.0239  0.3294
 9775TIP3    H250741   0.076   4.314   1.063  0.6114  0.4230  1.2620
 9776TIP3   OH250742   2.937   1.766   3.409  0.7393 -0.2275 -0.0195
 9776TIP3    H150743   2.975   1.842   3.365  1.9998 -0.6158  0.3614
 9776TIP3    H250744   3.007   1.732   3.463 -0.1750 -0.9742  0.7288
 9777TIP3   OH250745   2.523   2.886   4.347  0.6110  0.0198  0.7173
 9777TIP3    H150746   2.611   2.917   4.327  1.2795 -0.9277  2.0002
 9777TIP3    H250747   2.535   2.793   4.366 -1.0266 -0.6527 -1.2000
 9778TIP3   OH250748   5.267   0.776  16.850 -0.3335 -0.1846 -0.3453
 9778TIP3    H150749   5.196   0.834  16.823 -0.2070 -0.0121 -0.3086
 9778TIP3    H250750   5.257   0.769  16.945 -0.9800 -1.0548 -0.4597
 9779TIP3   OH250751   4.830   3.958   0.112  0.5236  0.2980 -0.2190
 9779TIP3    H150752   4.873   3.876   0.088  0.1143 -0.4259  1.3551
 9779TIP3    H250753   4.900   4.014   0.143  0.6846  0.1829 -0.3706
 9780TIP3   OH250754   0.905   4.658   4.162 -0.4328  0.3542 -0.3276
 9780TIP3    H150755   0.873   4.569   4.181 -0.8049  0.5292 -0.1211
 9780TIP3    H250756   0.828   4.714   4.174 -0.2934  0.6607 -0.8482
 9781TIP3   OH250757   6.044   5.231   5.417 -0.0105  0.2416 -0.0404
 9781TIP3    H150758   5.986   5.276   5.356 -1.3041  0.7687  1.4826
 9781TIP3    H250759   5.984   5.180   5.473  1.1847 -0.9126  0.2398
 9782TIP3   OH250760   3.763   3.298   2.136 -0.2286  1.0502 -0.1633
 9782TIP3    H150761   3.682   3.348   2.127 -1.1614 -0.3336  0.2412
 9782TIP3    H250762   3.738   3.208   2.115  1.0669  0.4965  0.5571
 9783TIP3   OH250763   0.023   5.065  16.174  0.4654  0.2472 -0.3218
 9783TIP3    H150764  -0.026   5.013  16.112 -1.6439 -0.2937  1.6828
 9783TIP3    H250765   0.110   5.025  16.176 -0.5484 -2.0914 -0.1881
 9784TIP3   OH250766   3.293   4.297  13.575 -0.4746  0.5870  0.7887
 9784TIP3    H150767   3.203   4.264  13.567 -0.7420  1.4696 -0.0261
 9784TIP3    H250768   3.287   4.366  13.641 -0.0365 -0.4968  2.0166
 9785TIP3   OH250769   1.418   4.374   0.260 -0.2533 -0.0911  0.2163
 9785TIP3    H150770   1.487   4.421   0.214  0.1746  0.6775  1.5797
 9785TIP3    H250771   1.365   4.442   0.300 -0.9958 -0.7153  0.3202
 9786TIP3   OH250772   3.845   4.853  12.789 -0.8898  0.0784  0.4460
 9786TIP3    H150773   3.809   4.884  12.706 -1.5732 -0.6235  0.4733
 9786TIP3    H250774   3.930   4.816  12.766 -1.9235 -1.9992 -0.3102
 9787TIP3   OH250775   6.125   1.290   3.075 -0.2402 -0.1291 -0.0648
 9787TIP3    H150776   6.091   1.201   3.066  1.6506 -1.0502  1.2541
 9787TIP3    H250777   6.071   1.342   3.015 -0.6212 -2.3556 -1.8009
 9788TIP3   OH250778   6.471   5.087  15.720 -0.1626 -0.1475  0.0322
 9788TIP3    H150779   6.564   5.110  15.713  0.1199 -1.4515 -0.7600
 9788TIP3    H250780   6.425   5.163  15.683  0.5593  0.6409  0.7155
 9789TIP3   OH250781   5.397   5.874   6.205  0.2113  0.4095  0.5038
 9789TIP3    H150782   5.432   5.893   6.292  0.8749 -0.5125  0.4574
 9789TIP3    H250783   5.303   5.886   6.214  0.0765 -1.3322  1.8324
 9790TIP3   OH250784   3.290   1.022  12.497 -0.1886  0.3957  0.1661
 9790TIP3    H150785   3.339   0.960  12.443  0.3455  0.8699  0.0971
 9790TIP3    H250786   3.237   0.967  12.554 -0.9872 -0.1006 -1.0345
 9791TIP3   OH250787   1.101   0.384  13.189 -0.4240 -0.2971 -0.0045
 9791TIP3    H150788   1.116   0.469  13.228 -1.3014  0.0321 -0.3603
 9791TIP3    H250789   1.008   0.384  13.166 -0.4817 -1.4168  0.1584
 9792TIP3   OH250790   2.419   4.213   2.473 -0.1467 -0.4288 -0.0750
 9792TIP3    H150791   2.329   4.207   2.506 -1.0863  2.6904 -1.6836
 9792TIP3    H250792   2.464   4.270   2.535  1.3825 -3.3260  1.6939
 9793TIP3   OH250793   3.453   1.468  11.281  0.1572  0.3716 -0.0653
 9793TIP3    H150794   3.505   1.415  11.341 -0.8592 -0.6444 -0.0416
 9793TIP3    H250795   3.374   1.489  11.330 -2.6465 -3.9046 -2.1497
 9794TIP3   OH250796   5.467   5.203  16.408 -0.1685 -0.1346 -0.3218
 9794TIP3    H150797   5.488   5.149  16.332  0.7718 -1.2146  0.6852
 9794TIP3    H250798   5.550   5.216  16.453 -0.7035  0.5194  0.5130
 9795TIP3   OH250799   5.203   2.018  13.180  0.5867 -0.4064 -0.3003
 9795TIP3    H150800   5.123   1.966  13.182 -0.6113  1.3915  0.9922
 9795TIP3    H250801   5.239   2.012  13.268 -0.6019  2.3453  0.4899
 9796TIP3   OH250802   1.647   4.801   0.841  0.2011  0.5818  0.1974
 9796TIP3    H150803   1.556   4.771   0.834  0.1072  0.8088  0.4307
 9796TIP3    H250804   1.668   4.792   0.934  0.8702 -0.7533 -0.0589
 9797TIP3   OH250805   0.468   3.601  16.265  0.3286 -0.6883  0.1066
 9797TIP3    H150806   0.406   3.657  16.313 -0.0942 -2.2351  1.4689
 9797TIP3    H250807   0.482   3.647  16.182 -3.0641 -0.4744 -0.5061
 9798TIP3   OH250808   4.826   5.354  14.430  0.6775  0.0415 -0.0440
 9798TIP3    H150809   4.749   5.307  14.461  0.6840 -0.5726 -0.9183
 9798TIP3    H250810   4.800   5.390  14.345  1.0973  0.5182  0.0206
 9799TIP3   OH250811   5.672   6.781  13.349 -0.4832 -0.0308 -0.1845
 9799TIP3    H150812   5.644   6.848  13.412  0.8328 -0.0215  0.4224
 9799TIP3    H250813   5.591   6.748  13.312 -1.3053  0.0171  1.4769
 9800TIP3   OH250814   6.300   5.905   0.764 -0.2068 -0.3997 -0.2176
 9800TIP3    H150815   6.396   5.904   0.768 -0.0337 -3.5281 -1.6235
 9800TIP3    H250816   6.274   5.837   0.827 -1.5732  0.7447  0.4957
 9801TIP3   OH250817   1.568   4.398  11.038 -0.4669  0.3170 -0.3927
 9801TIP3    H150818   1.542   4.339  11.109  0.6002 -0.2654 -0.4546
 9801TIP3    H250819   1.654   4.430  11.065  0.8172 -1.3304 -2.2240
 9802TIP3   OH250820   4.703   0.362  15.577 -0.4183  0.4136 -0.6565
 9802TIP3    H150821   4.718   0.278  15.621 -0.8322 -0.5965 -2.3921
 9802TIP3    H250822   4.682   0.422  15.649  1.7953 -0.4532  0.8543
 9803TIP3   OH250823   2.926   5.471  12.244 -0.0768 -0.8035 -0.0867
 9803TIP3    H150824   3.010   5.492  12.203 -0.4298 -0.1125 -0.4504
 9803TIP3    H250825   2.948   5.401  12.306  0.5425 -1.5423 -1.1074
 9804TIP3   OH250826   1.606   3.234   1.778 -0.5720 -0.0264 -0.9174
 9804TIP3    H150827   1.677   3.171   1.788 -0.6208 -0.1316 -1.2261
 9804TIP3    H250828   1.534   3.197   1.828 -0.8077 -0.5364 -1.6225
 9805TIP3   OH250829   3.544   1.063   2.885 -0.1160  0.6731  0.7422
 9805TIP3    H150830   3.562   0.976   2.851  0.8978  1.5093 -1.0168
 9805TIP3    H250831   3.629   1.107   2.883 -0.9553  2.3404 -0.3955
 9806TIP3   OH250832   3.754   3.803   5.490  0.2278 -0.5527  0.0678
 9806TIP3    H150833   3.751   3.899   5.483 -2.1348 -0.5711 -0.0494
 9806TIP3    H250834   3.720   3.785   5.578 -1.6855 -1.2931 -0.7526
 9807TIP3   OH250835   4.879   1.307  12.143 -0.5658  0.0790  0.1063
 9807TIP3    H150836   4.949   1.267  12.093 -0.3414  1.1290 -0.4532
 9807TIP3    H250837   4.911   1.395  12.164 -1.4886  0.3802  0.3138
 9808TIP3   OH250838   0.310   1.193  14.051 -0.0501 -0.0196  0.1916
 9808TIP3    H150839   0.362   1.179  14.130  0.0188 -0.6378  0.0435
 9808TIP3    H250840   0.231   1.141  14.066  1.4687 -3.0857 -1.6106
 9809TIP3   OH250841   3.088   4.559   0.847  0.1194 -0.0349  0.1870
 9809TIP3    H150842   3.004   4.515   0.860  0.2808 -0.7847 -1.0864
 9809TIP3    H250843   3.067   4.636   0.794 -0.0333  0.9879  1.6614
 9810TIP3   OH250844   2.469   1.123   1.690  0.1272  0.1987  0.0036
 9810TIP3    H150845   2.424   1.046   1.655 -0.9711  0.6909  0.2973
 9810TIP3    H250846   2.509   1.093   1.771 -2.5702  0.5378  1.5627
 9811TIP3   OH250847   4.389   3.720   4.271 -0.3400 -0.2164 -0.8582
 9811TIP3    H150848   4.354   3.793   4.220 -0.2831  0.2473 -0.2405
 9811TIP3    H250849   4.478   3.707   4.238  1.1982  2.6353  1.6674
 9812TIP3   OH250850   1.053   5.746  11.666 -0.2042 -0.6523 -0.6323
 9812TIP3    H150851   1.020   5.830  11.699 -0.2756 -1.2610  0.9369
 9812TIP3    H250852   1.003   5.730  11.586  2.2040  2.4420 -2.9920
 9813TIP3   OH250853   2.006   4.215  15.402 -0.1323 -0.4424 -0.1676
 9813TIP3    H150854   2.027   4.147  15.467  1.6153 -0.9190 -1.1573
 9813TIP3    H250855   1.920   4.247  15.429  1.1328  0.5315  3.3385
 9814TIP3   OH250856   6.223   1.127   1.816  0.2418  0.5727  0.1179
 9814TIP3    H150857   6.134   1.160   1.805 -0.0482 -0.2935 -0.2460
 9814TIP3    H250858   6.273   1.202   1.847 -0.5203  1.1847 -0.1062
 9815TIP3   OH250859   1.690   4.456  11.366 -0.3964  0.1740 -0.2680
 9815TIP3    H150860   1.752   4.400  11.413  0.9161  0.5083 -1.4971
 9815TIP3    H250861   1.645   4.506  11.434 -1.5199 -2.2202  0.8637
 9816TIP3   OH250862   0.408   0.295  12.551  0.3245  0.5473 -0.4425
 9816TIP3    H150863   0.460   0.246  12.615  0.5913  0.8030 -0.4622
 9816TIP3    H250864   0.328   0.317  12.598 -0.9027 -1.9836 -1.1567
 9817TIP3   OH250865   4.279   4.934  12.933 -0.0915 -0.3150 -0.0644
 9817TIP3    H150866   4.350   4.873  12.917 -0.3873 -0.4654 -0.8448
 9817TIP3    H250867   4.204   4.879  12.957 -0.6648 -0.3822 -1.8311
 9818TIP3   OH250868   2.148   4.562  16.171 -0.9320  0.6602  0.2410
 9818TIP3    H150869   2.184   4.643  16.134  1.5699 -0.0755  0.8889
 9818TIP3    H250870   2.096   4.524  16.100  1.2180  0.8161 -1.5173
 9819TIP3   OH250871   4.080   3.423  14.600  0.0149 -0.1302 -0.2869
 9819TIP3    H150872   4.095   3.509  14.562 -1.4845 -0.7781 -2.5440
 9819TIP3    H250873   4.125   3.362  14.541 -0.2124 -1.0074  0.4180
 9820TIP3   OH250874   2.121   6.378  14.059 -0.4695  0.9970 -0.0767
 9820TIP3    H150875   2.153   6.449  14.004  2.8664  0.8122  1.3370
 9820TIP3    H250876   2.152   6.298  14.016 -1.1872  0.6049  0.1144
 9821TIP3   OH250877   4.376   1.146   0.141  0.3290  0.6882 -0.2334
 9821TIP3    H150878   4.318   1.220   0.158 -1.8681 -0.6336 -1.4745
 9821TIP3    H250879   4.320   1.069   0.150  2.1835 -0.7492 -0.4110
 9822TIP3   OH250880   0.819   1.879  16.298  0.0630  0.0830  0.0207
 9822TIP3    H150881   0.803   1.928  16.378 -0.4230  2.3554 -1.3857
 9822TIP3    H250882   0.856   1.943  16.237  0.9758 -1.7057 -1.4097
 9823TIP3   OH250883   6.437   2.393   3.990 -0.7068  0.1748  0.4675
 9823TIP3    H150884   6.503   2.462   4.000 -0.2823 -0.2748  0.8376
 9823TIP3    H250885   6.377   2.407   4.064 -1.5735  1.1507 -0.3836
 9824TIP3   OH250886   5.969   0.034   4.787 -0.4451 -0.3817 -0.1648
 9824TIP3    H150887   5.946   0.119   4.748 -0.2883 -1.4759 -2.9020
 9824TIP3    H250888   6.037   0.055   4.851 -3.0358  1.9455  2.1256
 9825TIP3   OH250889   2.757   5.979   2.546 -0.2652 -0.4768  0.0925
 9825TIP3    H150890   2.759   5.884   2.556  0.5930 -0.5148 -0.3989
 9825TIP3    H250891   2.671   5.996   2.506  0.5703 -1.3093 -2.2292
 9826TIP3   OH250892   0.181   2.816   2.317 -0.5145 -0.3166  0.3269
 9826TIP3    H150893   0.124   2.882   2.358  1.1335  1.5770 -0.2902
 9826TIP3    H250894   0.263   2.821   2.367  0.0436 -1.0624 -0.4941
 9827TIP3   OH250895   4.899   6.111   0.205  0.3699  0.3777  0.2750
 9827TIP3    H150896   4.862   6.039   0.155 -0.5083  0.4644  0.7720
 9827TIP3    H250897   4.989   6.086   0.222 -0.2101 -1.1265  1.3628
 9828TIP3   OH250898   0.759   5.353   3.786 -0.2160  0.2290 -0.7257
 9828TIP3    H150899   0.713   5.279   3.746  0.1188 -1.0628  1.1564
 9828TIP3    H250900   0.815   5.387   3.716 -1.9719  0.1317 -2.2692
 9829TIP3   OH250901   4.293   5.155  12.310 -0.3939 -0.2335 -0.1190
 9829TIP3    H150902   4.291   5.061  12.290  0.5329 -0.5044  0.9738
 9829TIP3    H250903   4.217   5.168  12.367 -1.3288 -0.0291 -1.3738
 9830TIP3   OH250904   4.615   6.157  15.222  0.2697  0.3823 -0.1507
 9830TIP3    H150905   4.585   6.225  15.162 -0.1395 -0.8280 -1.3543
 9830TIP3    H250906   4.618   6.078  15.169  1.5904 -0.3750  1.0011
 9831TIP3   OH250907   5.283   1.106  11.447  0.7127 -0.0296 -0.2257
 9831TIP3    H150908   5.203   1.083  11.400 -0.2133 -0.4270  1.4776
 9831TIP3    H250909   5.253   1.138  11.532  2.3929 -0.8523  0.7245
 9832TIP3   OH250910   1.832   1.483  13.872  0.3739 -0.2231 -0.1965
 9832TIP3    H150911   1.802   1.397  13.843 -0.3395  0.2156 -0.8025
 9832TIP3    H250912   1.815   1.541  13.797  1.8551  0.2403 -0.1946
 9833TIP3   OH250913   5.411   5.323  16.802  0.2518  0.1944  0.8230
 9833TIP3    H150914   5.430   5.248  16.858  1.1542  0.1834  0.5257
 9833TIP3    H250915   5.456   5.396  16.844 -0.4095  0.5208  0.9727
 9834TIP3   OH250916   1.704   2.966   2.274  0.0325  0.3105 -0.0410
 9834TIP3    H150917   1.792   2.960   2.236 -0.1313 -0.5721 -0.2992
 9834TIP3    H250918   1.703   3.051   2.317  1.6845 -0.4486  1.6193
 9835TIP3   OH250919   0.780   3.976   5.398 -0.1732  0.4919  0.3620
 9835TIP3    H150920   0.818   4.027   5.327 -3.6311  0.9793 -1.3079
 9835TIP3    H250921   0.745   4.041   5.459  1.8107  0.0628  2.0767
 9836TIP3   OH250922   2.389   2.168  12.794 -0.0914 -0.0688  0.3018
 9836TIP3    H150923   2.334   2.131  12.863 -1.1649 -1.5446 -1.2760
 9836TIP3    H250924   2.471   2.119  12.800 -0.5178 -0.8478 -0.0220
 9837TIP3   OH250925   0.676   4.011   0.718  0.7288 -0.3738  0.0658
 9837TIP3    H150926   0.699   3.929   0.676  0.3374  0.0380 -0.9883
 9837TIP3    H250927   0.742   4.074   0.688  0.4414 -0.0720  0.0548
 9838TIP3   OH250928   3.837   2.389   5.507  0.9220  0.0223  0.2556
 9838TIP3    H150929   3.753   2.372   5.549  0.4771  1.8358  0.1827
 9838TIP3    H250930   3.847   2.484   5.510  2.7965 -0.1173 -0.0934
 9839TIP3   OH250931   5.676   2.856   4.941  0.0401 -0.0003  0.4186
 9839TIP3    H150932   5.670   2.924   5.009  0.2782 -0.1708  0.6112
 9839TIP3    H250933   5.739   2.891   4.878 -0.2733  0.2123  0.2224
 9840TIP3   OH250934   5.698   3.284   5.599  0.1580  0.2784 -0.3767
 9840TIP3    H150935   5.699   3.308   5.692  0.0780 -0.8089 -0.0827
 9840TIP3    H250936   5.610   3.307   5.569  0.7258  2.2707 -0.6503
 9841TIP3   OH250937   2.834   1.748   1.772 -0.5669  0.6991 -0.0393
 9841TIP3    H150938   2.788   1.678   1.727  1.9818 -1.1382  0.0062
 9841TIP3    H250939   2.816   1.732   1.865 -1.1857  1.0304 -0.0963
 9842TIP3   OH250940   3.022   0.076   1.641 -0.0348  0.1776  0.1951
 9842TIP3    H150941   2.988   0.029   1.716  1.8922 -0.2463  0.8512
 9842TIP3    H250942   3.026   0.011   1.571  1.3769 -0.3356  0.7254
 9843TIP3   OH250943   1.127   4.159   1.961 -0.0448 -0.6122  0.4060
 9843TIP3    H150944   1.198   4.104   1.927  0.3458 -0.2388  0.6169
 9843TIP3    H250945   1.048   4.125   1.918  0.2956 -0.8598 -0.0311
 9844TIP3   OH250946   5.844   1.068   5.154 -0.5915 -0.2122 -0.0457
 9844TIP3    H150947   5.911   1.002   5.135 -0.2443 -0.1245  0.8060
 9844TIP3    H250948   5.765   1.017   5.172 -0.5798 -0.3494 -0.3868
 9845TIP3   OH250949   1.765   2.288   2.796 -0.2466 -0.1279  0.2788
 9845TIP3    H150950   1.685   2.335   2.818 -1.5560 -2.3367  0.5464
 9845TIP3    H250951   1.812   2.347   2.737 -2.9228  0.5279 -1.3515
 9846TIP3   OH250952   3.433   1.340  16.057  0.4528 -0.3139 -0.2986
 9846TIP3    H150953   3.465   1.388  16.133  0.9450  0.3326 -0.9034
 9846TIP3    H250954   3.409   1.254  16.091 -1.3342  0.6335  0.9930
 9847TIP3   OH250955   2.206   2.372   0.739  0.5921  0.3788 -0.5889
 9847TIP3    H150956   2.163   2.356   0.823  0.8864 -1.1967 -0.7032
 9847TIP3    H250957   2.141   2.346   0.673  0.5055  1.2373 -0.8616
 9848TIP3   OH250958   3.332   5.819  10.978  0.0074 -0.2671 -0.1769
 9848TIP3    H150959   3.411   5.768  10.995 -0.8606 -1.0509  1.8206
 9848TIP3    H250960   3.280   5.810  11.058 -1.6071  1.1544 -1.0014
 9849TIP3   OH250961   1.092   0.269   0.459 -0.0606 -0.2935  0.0498
 9849TIP3    H150962   1.155   0.201   0.483 -0.5246 -0.1356  1.8424
 9849TIP3    H250963   1.065   0.246   0.370  1.2429 -1.3208 -0.1161
 9850TIP3   OH250964   5.539   1.044   5.222  0.0076 -0.7408 -0.7720
 9850TIP3    H150965   5.517   1.135   5.242 -1.0661 -1.1970  0.2682
 9850TIP3    H250966   5.511   1.031   5.132 -0.0762 -0.1163 -0.8364
 9851TIP3   OH250967   4.549   2.681  14.775 -0.0507  0.0494 -0.8016
 9851TIP3    H150968   4.600   2.759  14.798  1.3154 -0.3904 -2.1190
 9851TIP3    H250969   4.561   2.622  14.850  1.5392 -0.0796 -1.1059
 9852TIP3   OH250970   2.466   2.089  16.553  0.3546  0.0962  0.1631
 9852TIP3    H150971   2.445   2.119  16.641  2.3858  0.3818  0.5951
 9852TIP3    H250972   2.477   2.170  16.502  3.9863  0.2252  0.8857
 9853TIP3   OH250973   3.245   2.715   6.165 -0.1772 -0.4189 -0.5870
 9853TIP3    H150974   3.275   2.700   6.254  1.0942  1.4762 -0.6461
 9853TIP3    H250975   3.168   2.771   6.174  1.4676  2.0273 -0.6670
 9854TIP3   OH250976   6.102   0.170  14.938 -0.4465  0.2365 -0.3981
 9854TIP3    H150977   6.099   0.263  14.913 -0.1781 -0.2556 -2.4013
 9854TIP3    H250978   6.016   0.153  14.976 -0.3240  1.4147  0.4483
 9855TIP3   OH250979   0.224   0.446  13.723  0.2383  0.1257  0.2034
 9855TIP3    H150980   0.163   0.490  13.782 -0.3188 -0.4080  0.0468
 9855TIP3    H250981   0.308   0.447  13.769 -0.3632 -1.0323  1.3948
 9856TIP3   OH250982   0.957   4.736   0.639 -0.0255 -0.5574 -0.6917
 9856TIP3    H150983   0.974   4.768   0.728 -0.2921 -1.9127 -0.1221
 9856TIP3    H250984   0.942   4.642   0.650 -0.1763 -0.7307 -2.1660
 9857TIP3   OH250985   0.328   1.864  16.165 -0.2856 -0.0423 -0.4489
 9857TIP3    H150986   0.253   1.865  16.224  1.1922 -1.2193  1.6109
 9857TIP3    H250987   0.319   1.783  16.115  0.1295 -0.7387  0.5758
 9858TIP3   OH250988   1.390   4.964   1.754  0.2640  0.0231 -0.1873
 9858TIP3    H150989   1.370   4.870   1.754 -1.1964  0.2346  2.7192
 9858TIP3    H250990   1.452   4.975   1.682  1.4654 -3.4008  0.1467
 9859TIP3   OH250991   3.599   3.236  15.652  0.3436 -0.1495 -0.3351
 9859TIP3    H150992   3.638   3.151  15.632 -0.1347 -0.6317  0.6543
 9859TIP3    H250993   3.505   3.223  15.640  0.2395  0.1422  0.1066
 9860TIP3   OH250994   0.268   0.875  17.169  0.2419 -0.5057  0.4469
 9860TIP3    H150995   0.245   0.793  17.126  1.1349 -0.6517  0.2342
 9860TIP3    H250996   0.238   0.864  17.260 -1.1946 -0.3857  0.0082
 9861TIP3   OH250997   1.107   2.163   0.796 -0.5767  0.1012 -0.0693
 9861TIP3    H150998   1.058   2.081   0.806  1.6286 -1.1032  1.8468
 9861TIP3    H250999   1.076   2.218   0.868 -2.1385  1.0984 -1.4209
 9862TIP3   OH251000   2.074   1.703  17.120 -0.0694 -0.0008  0.0613
 9862TIP3    H151001   2.070   1.717  17.026 -1.5961  1.0062  0.2321
 9862TIP3    H251002   2.026   1.621  17.134 -0.4228  0.1937  0.0088
 9863TIP3   OH251003   6.103   4.868  12.432 -0.2058  0.2664  0.4252
 9863TIP3    H151004   6.133   4.842  12.345 -0.4302 -2.9996  1.2099
 9863TIP3    H251005   6.172   4.926  12.465  2.9265 -2.9818  0.2050
 9864TIP3   OH251006   4.178   0.257  10.990 -0.1505  0.2382  0.4117
 9864TIP3    H151007   4.216   0.246  11.077  1.1226 -0.7449 -0.2286
 9864TIP3    H251008   4.157   0.168  10.962 -1.8641  0.6600  0.2484
 9865TIP3   OH251009   6.389   2.896  11.312 -0.1104  0.0899  0.1150
 9865TIP3    H151010   6.391   2.871  11.404  0.2623  0.2471  0.1500
 9865TIP3    H251011   6.349   2.821  11.267  2.3522 -1.2625  0.0043
 9866TIP3   OH251012   3.989   3.036   0.916 -0.5841  0.4449  0.1921
 9866TIP3    H151013   3.928   3.106   0.892  0.6678  1.6351  0.3779
 9866TIP3    H251014   4.071   3.060   0.872  0.3599  0.0335  1.6745
 9867TIP3   OH251015   5.486   4.871   3.481  0.4370  0.4290 -0.1213
 9867TIP3    H151016   5.439   4.881   3.398 -0.4032  2.5162  0.5410
 9867TIP3    H251017   5.422   4.830   3.539  0.8192 -0.4605 -0.3153
 9868TIP3   OH251018   4.447   0.026  15.563 -0.1460 -0.0976  0.1202
 9868TIP3    H151019   4.419   0.093  15.625  0.5392 -0.3864  0.7582
 9868TIP3    H251020   4.387  -0.047  15.578 -1.0898  0.4574 -0.7885
 9869TIP3   OH251021   1.840   1.292   0.371 -0.6508 -0.3313 -0.3575
 9869TIP3    H151022   1.775   1.356   0.401 -0.7122 -0.6513  0.1998
 9869TIP3    H251023   1.794   1.208   0.374 -0.3777 -0.4866 -0.4885
 9870TIP3   OH251024   5.065   1.763   3.342  0.1908  0.4566 -0.0758
 9870TIP3    H151025   5.015   1.827   3.292  0.2207 -0.3119 -1.1351
 9870TIP3    H251026   5.021   1.680   3.324 -0.4084  0.2865  2.0181
 9871TIP3   OH251027   4.001   6.319  11.520 -0.4585 -0.0145  0.2060
 9871TIP3    H151028   3.952   6.336  11.600  1.3965  1.3652  1.1222
 9871TIP3    H251029   4.057   6.245  11.541  0.3360  0.6143  0.3496
 9872TIP3   OH251030   4.131   4.363   4.750 -0.4826 -0.0580  0.0619
 9872TIP3    H151031   4.102   4.275   4.728 -0.6058 -0.3055  1.1521
 9872TIP3    H251032   4.215   4.351   4.795  1.0473  0.6019 -2.4071
 9873TIP3   OH251033   6.382   6.017   5.549  0.4476  0.6861  0.3756
 9873TIP3    H151034   6.319   6.043   5.617 -1.4536 -1.2491 -0.5503
 9873TIP3    H251035   6.423   5.938   5.584 -1.1899 -0.8509 -0.9971
 9874TIP3   OH251036   2.628   6.245   3.168 -0.3714 -0.3884 -0.4089
 9874TIP3    H151037   2.620   6.268   3.076 -4.5689  0.6205 -0.0121
 9874TIP3    H251038   2.566   6.172   3.180  1.3445 -1.6606  1.3385
 9875TIP3   OH251039   1.149   2.193   4.789 -0.1451  0.4717  0.2106
 9875TIP3    H151040   1.147   2.158   4.879  0.9760  0.3532  0.2023
 9875TIP3    H251041   1.167   2.116   4.734  0.6168  0.7781  0.0269
 9876TIP3   OH251042   4.886   0.187  11.617  0.5612  0.0204  0.3109
 9876TIP3    H151043   4.799   0.168  11.583  0.1667  1.9577  0.1000
 9876TIP3    H251044   4.944   0.183  11.541  0.7402 -1.5169  0.4937
 9877TIP3   OH251045   1.454   3.970   0.152 -0.1981  0.4237 -0.0465
 9877TIP3    H151046   1.445   3.925   0.236  0.9353  0.1685 -0.0399
 9877TIP3    H251047   1.537   4.017   0.160  0.1469  0.0295 -1.1825
 9878TIP3   OH251048   3.771   2.948   1.089  0.2787 -0.1283 -0.6745
 9878TIP3    H151049   3.854   2.972   1.047  0.9677  0.1810  0.8066
 9878TIP3    H251050   3.723   3.030   1.097  0.6343  0.0195  0.1184
 9879TIP3   OH251051   0.811   1.867  13.197  0.1729 -0.3371  0.0073
 9879TIP3    H151052   0.893   1.819  13.205  0.3252 -0.2293 -0.8352
 9879TIP3    H251053   0.776   1.869  13.286  0.8011 -0.8758  0.2760
 9880TIP3   OH251054   2.717   6.267   1.685  0.6897 -0.0745 -0.6005
 9880TIP3    H151055   2.708   6.259   1.780 -0.7517 -0.8677 -0.7776
 9880TIP3    H251056   2.646   6.324   1.658  0.3921 -0.7624 -1.3191
 9881TIP3   OH251057   4.286   6.478   9.935  0.8047  0.1723  0.3850
 9881TIP3    H151058   4.238   6.556   9.964 -0.7621 -0.6286  0.0130
 9881TIP3    H251059   4.220   6.409   9.930  2.3157 -1.4529  1.6053
 9882TIP3   OH251060   5.835   0.121   4.165  0.3749  0.4431 -0.7638
 9882TIP3    H151061   5.797   0.034   4.182  2.0880 -0.1390  0.3948
 9882TIP3    H251062   5.913   0.103   4.113  0.4167  1.3682 -1.0342
 9883TIP3   OH251063   0.060   3.184   4.953 -1.0811  0.3596 -0.2438
 9883TIP3    H151064   0.016   3.100   4.968 -1.4173  0.9015  2.2987
 9883TIP3    H251065   0.144   3.161   4.913 -1.9854 -0.9999 -1.4670
 9884TIP3   OH251066   2.082   2.521   3.276 -0.2701  0.0274 -0.0736
 9884TIP3    H151067   1.996   2.497   3.308 -1.7031  2.1274 -2.0427
 9884TIP3    H251068   2.098   2.465   3.201 -0.9864  1.1122 -1.0749
 9885TIP3   OH251069   3.618   4.193  15.938  0.1477 -0.0113  0.6684
 9885TIP3    H151070   3.677   4.235  15.876 -1.0094 -0.5550 -0.8930
 9885TIP3    H251071   3.674   4.161  16.008  1.3835  1.5490  0.4307
 9886TIP3   OH251072   5.501   2.838  13.147  0.1032  0.5254  0.3705
 9886TIP3    H151073   5.438   2.803  13.210 -1.7594  1.0494 -1.1041
 9886TIP3    H251074   5.574   2.777  13.150 -1.0370 -0.8829  1.2035
 9887TIP3   OH251075   1.395   2.817  11.893  0.5903 -0.1416  0.4360
 9887TIP3    H151076   1.473   2.868  11.873  0.0656  0.9403  1.0459
 9887TIP3    H251077   1.329   2.882  11.916 -0.5004 -1.0376 -0.0755
 9888TIP3   OH251078   5.739   4.487  15.806 -0.1538  0.3824  0.2786
 9888TIP3    H151079   5.693   4.514  15.727  0.8501  4.5598  0.8865
 9888TIP3    H251080   5.819   4.444  15.774 -0.0857  1.4178 -0.9998
 9889TIP3   OH251081   0.335   3.822   1.813 -0.1542  0.0694 -0.2354
 9889TIP3    H151082   0.382   3.811   1.730 -0.5694 -0.8309 -0.3708
 9889TIP3    H251083   0.267   3.886   1.793 -0.8623 -0.8488 -0.8827
 9890TIP3   OH251084   1.004   5.273  12.747 -0.1424 -0.2883 -0.0102
 9890TIP3    H151085   1.085   5.323  12.757  0.8860 -2.1516  1.8802
 9890TIP3    H251086   0.993   5.229  12.832 -1.2903 -2.7620 -1.3406
 9891TIP3   OH251087   0.184   6.621  16.228  0.2731  0.3994 -0.0634
 9891TIP3    H151088   0.271   6.582  16.240  0.7239  1.8199  1.6389
 9891TIP3    H251089   0.126   6.545  16.219  1.3538 -0.6694  1.3107
 9892TIP3   OH251090   3.626   3.675  10.572 -0.3944  0.6602  0.0159
 9892TIP3    H151091   3.663   3.757  10.604 -0.7962  0.8456  0.0176
 9892TIP3    H251092   3.674   3.656  10.491 -0.0270  0.6864  0.2240
 9893TIP3   OH251093   6.175   2.451   2.214 -0.7578  0.0193 -0.1001
 9893TIP3    H151094   6.110   2.396   2.257  0.0401  1.2312  2.8669
 9893TIP3    H251095   6.153   2.540   2.241  2.6664  0.4075  2.0473
 9894TIP3   OH251096   4.791   6.365   3.938  0.7012 -0.8700  0.0985
 9894TIP3    H151097   4.832   6.447   3.968  1.1515 -1.6950  1.9042
 9894TIP3    H251098   4.865   6.308   3.917  0.3948 -0.9825 -0.7024
 9895TIP3   OH251099   4.494   1.754  16.823 -0.4015 -0.1950 -0.6335
 9895TIP3    H151100   4.419   1.729  16.769 -2.0806 -1.1859  1.9666
 9895TIP3    H251101   4.506   1.681  16.884  1.0853  1.0291  0.6459
 9896TIP3   OH251102   4.680   5.291   4.421 -0.0706 -0.0153 -0.6868
 9896TIP3    H151103   4.731   5.210   4.422  0.5310  0.3425  1.1304
 9896TIP3    H251104   4.742   5.359   4.447 -0.6268  1.0230 -1.9444
 9897TIP3   OH251105   1.862   1.030   1.796  0.7342 -0.0990 -0.7975
 9897TIP3    H151106   1.947   0.986   1.795  0.5156 -0.5791  0.1905
 9897TIP3    H251107   1.883   1.123   1.788  1.2275 -0.3371 -2.4781
 9898TIP3   OH251108   5.361   3.090  14.465  0.4002 -0.0493  0.3938
 9898TIP3    H151109   5.348   3.002  14.502  2.3769 -0.1794  0.8780
 9898TIP3    H251110   5.282   3.107  14.414  1.1890 -3.3615 -2.2686
 9899TIP3   OH251111   5.262   5.150   1.929 -0.2375 -0.2494  0.0137
 9899TIP3    H151112   5.226   5.238   1.922  1.3114  0.5661  1.2786
 9899TIP3    H251113   5.258   5.114   1.841  1.5267  2.1422 -1.1598
 9900TIP3   OH251114   3.804   4.517  13.652 -0.0247 -0.3240  0.0334
 9900TIP3    H151115   3.842   4.430  13.663 -0.7432 -0.8146 -1.1607
 9900TIP3    H251116   3.874   4.577  13.677  0.3606 -1.2346  1.2297
 9901TIP3   OH251117   1.235   5.727   1.395 -0.4806  0.4435  0.1816
 9901TIP3    H151118   1.186   5.680   1.462  1.2205 -0.8657  0.5612
 9901TIP3    H251119   1.206   5.818   1.404 -2.7407 -0.2391  0.4143
 9902TIP3   OH251120   4.408   0.364   0.338  0.2402  0.1098  0.0714
 9902TIP3    H151121   4.438   0.394   0.424  0.4233 -0.5887  0.2637
 9902TIP3    H251122   4.484   0.377   0.281  0.6399 -0.8443  0.3646
 9903TIP3   OH251123   4.394   3.577   1.127 -0.1062 -0.1775  0.0099
 9903TIP3    H151124   4.380   3.670   1.109 -1.5971 -0.3194  0.3242
 9903TIP3    H251125   4.468   3.575   1.188  1.3482  0.6414 -1.6403
 9904TIP3   OH251126   4.913   4.449  13.528 -0.0835 -0.3535 -0.0365
 9904TIP3    H151127   4.883   4.528  13.482 -1.5135 -0.6666  0.3135
 9904TIP3    H251128   4.997   4.475  13.568  0.2936  0.4666 -1.3008
 9905TIP3   OH251129   3.124   1.274  15.333  0.0388  0.7971 -0.2552
 9905TIP3    H151130   3.211   1.247  15.302 -0.1032 -0.8177  0.6243
 9905TIP3    H251131   3.064   1.247  15.264 -0.0688 -1.0364  0.4981
 9906TIP3   OH251132   6.797   0.756   4.280  0.1636 -0.3660 -0.2772
 9906TIP3    H151133   6.813   0.793   4.193 -2.4895 -1.3737 -1.3046
 9906TIP3    H251134   6.881   0.717   4.305  1.0250  0.0230 -2.3370
 9907TIP3   OH251135   0.917   6.730  11.030 -0.2773 -0.3168  0.4064
 9907TIP3    H151136   0.844   6.783  11.063 -0.2261 -0.0374  0.0778
 9907TIP3    H251137   0.888   6.699  10.944 -0.9907 -2.2294  1.2833
 9908TIP3   OH251138   4.713   0.082   6.132  0.3610  0.1512 -0.0247
 9908TIP3    H151139   4.718  -0.012   6.150 -0.0271  0.0994 -0.1848
 9908TIP3    H251140   4.704   0.122   6.219  1.6360  0.1304  0.1467
 9909TIP3   OH251141   4.346   4.411  14.527 -0.5112 -0.2238  0.2609
 9909TIP3    H151142   4.375   4.475  14.462 -1.0202 -0.3824 -0.1234
 9909TIP3    H251143   4.370   4.326  14.490 -1.5930 -0.3713 -0.1465
 9910TIP3   OH251144   4.285   2.588   1.627 -0.0693  0.5755  0.1649
 9910TIP3    H151145   4.249   2.500   1.638  1.1571 -0.0388 -0.4795
 9910TIP3    H251146   4.287   2.624   1.716 -2.3734  0.7321  0.2069
 9911TIP3   OH251147   5.205   6.133  16.525 -0.1947  0.1468 -0.4135
 9911TIP3    H151148   5.194   6.040  16.505  0.7357  0.2596 -1.5359
 9911TIP3    H251149   5.180   6.178  16.445 -0.5032  0.8596  0.0784
 9912TIP3   OH251150   4.199   2.876  17.126 -0.9348  0.2589 -0.1993
 9912TIP3    H151151   4.247   2.808  17.078 -1.5947 -0.8762  0.6962
 9912TIP3    H251152   4.235   2.872  17.215 -1.0533  1.0173 -0.1148
 9913TIP3   OH251153   5.910   5.141   0.597  0.0458  0.7894  0.5283
 9913TIP3    H151154   5.885   5.229   0.570 -1.6727  0.3327  0.4971
 9913TIP3    H251155   5.887   5.086   0.522 -2.1524 -0.1237  1.7823
 9914TIP3   OH251156   2.336   0.322  16.102  0.2166  0.0564  0.0477
 9914TIP3    H151157   2.341   0.377  16.024  0.0432 -1.6693 -1.2244
 9914TIP3    H251158   2.411   0.350  16.155  1.5889 -0.1143 -1.6947
 9915TIP3   OH251159   1.500   5.200   5.360 -0.2657  0.1449 -0.1958
 9915TIP3    H151160   1.460   5.246   5.434 -0.3971 -0.6722  0.2611
 9915TIP3    H251161   1.594   5.214   5.371 -0.3264  0.6459 -0.3010
 9916TIP3   OH251162   5.783   5.730  11.901 -0.4165  0.2324 -0.0385
 9916TIP3    H151163   5.873   5.759  11.913  1.6321 -3.6699 -3.5376
 9916TIP3    H251164   5.743   5.798  11.847  1.4921  0.5601 -1.0999
 9917TIP3   OH251165   3.889   0.542  12.485  0.0322 -0.2836 -0.2160
 9917TIP3    H151166   3.887   0.636  12.501  2.2775  0.1179 -1.8676
 9917TIP3    H251167   3.915   0.533  12.394 -1.5276 -2.5311 -0.5279
 9918TIP3   OH251168   4.212   2.245  11.806 -0.0219 -0.0611  0.4864
 9918TIP3    H151169   4.147   2.314  11.793  0.1392 -0.3246 -2.1381
 9918TIP3    H251170   4.290   2.291  11.836 -0.6378  0.5653  1.1794
 9919TIP3   OH251171   6.474   4.924   0.619 -0.2712 -0.8840  0.4186
 9919TIP3    H151172   6.516   5.009   0.605  0.6701 -1.1160  1.6856
 9919TIP3    H251173   6.440   4.928   0.708 -0.0510 -1.9050  0.5578
 9920TIP3   OH251174   6.350   3.323  13.643 -0.0927 -0.4362  0.0972
 9920TIP3    H151175   6.267   3.288  13.610 -0.2982 -0.5624  0.7326
 9920TIP3    H251176   6.415   3.256  13.620 -0.2174 -0.4839 -0.1206
 9921TIP3   OH251177   4.920   2.839   4.794  0.5189  0.5667 -0.5250
 9921TIP3    H151178   4.892   2.773   4.732  2.0027 -0.4377 -0.1672
 9921TIP3    H251179   4.859   2.830   4.868  0.5004 -0.1721 -0.6270
 9922TIP3   OH251180   0.698   6.151  14.228 -0.2417 -0.4664 -0.6363
 9922TIP3    H151181   0.759   6.098  14.177  1.6121  0.8446  0.1007
 9922TIP3    H251182   0.681   6.100  14.308 -0.0570 -0.8106 -0.8195
 9923TIP3   OH251183   1.797   2.892   0.393  0.7746  0.4422  0.2037
 9923TIP3    H151184   1.755   2.892   0.479 -0.4790 -4.6683 -0.0880
 9923TIP3    H251185   1.743   2.950   0.340 -2.0521 -0.7706  1.5292
 9924TIP3   OH251186   6.481   3.920   4.436  0.6317  0.7353 -0.1330
 9924TIP3    H151187   6.455   3.901   4.346  0.3323 -1.1814  0.3176
 9924TIP3    H251188   6.479   3.835   4.480  0.7225  1.6341  1.7002
 9925TIP3   OH251189   5.186   0.183  10.368 -0.5631  0.6175  0.2877
 9925TIP3    H151190   5.149   0.112  10.420 -0.9680 -0.9083 -1.9830
 9925TIP3    H251191   5.281   0.167  10.370 -0.5351  0.8203  0.8665
 9926TIP3   OH251192   5.702   4.182  13.959  0.5286 -0.3691  0.2934
 9926TIP3    H151193   5.618   4.215  13.927  0.7354  0.0993  0.2322
 9926TIP3    H251194   5.738   4.132  13.886  0.2737 -0.6328  0.3445
 9927TIP3   OH251195   5.007   0.343  13.217 -0.1784  0.5181  0.4935
 9927TIP3    H151196   5.076   0.329  13.281  0.4390  0.1638 -0.2272
 9927TIP3    H251197   4.926   0.344  13.268  0.3643  1.1172  1.3765
 9928TIP3   OH251198   2.029   0.610  14.244  0.3437  0.4114 -0.3625
 9928TIP3    H151199   1.969   0.673  14.283  0.2728 -0.2077  0.5685
 9928TIP3    H251200   2.002   0.526  14.281  2.8988  0.3150  1.5144
 9929TIP3   OH251201   3.024   1.632  12.114  0.0009 -0.2243  0.3116
 9929TIP3    H151202   3.058   1.680  12.190 -0.7309 -0.5943  0.8892
 9929TIP3    H251203   2.954   1.578  12.150  0.1988 -1.0329 -0.4871
 9930TIP3   OH251204   5.519   0.574  16.501  0.4122  0.0224 -0.1768
 9930TIP3    H151205   5.465   0.644  16.466 -0.9507 -0.1093  1.5047
 9930TIP3    H251206   5.529   0.513  16.428  0.1288  1.0955 -1.1511
 9931TIP3   OH251207   6.711   5.853   2.852 -0.2097 -0.0862  0.1518
 9931TIP3    H151208   6.736   5.931   2.901 -0.6383  0.2800 -0.2025
 9931TIP3    H251209   6.630   5.823   2.893  0.1654 -0.5814  0.5422
 9932TIP3   OH251210   6.307   0.122   5.487  0.1551 -0.5211 -0.5400
 9932TIP3    H151211   6.402   0.131   5.483 -0.0921  3.8034 -0.6862
 9932TIP3    H251212   6.276   0.150   5.401 -1.3134  1.3322  0.5064
 9933TIP3   OH251213   5.691   0.436   5.420  0.3763  0.9779 -0.1632
 9933TIP3    H151214   5.745   0.500   5.467  0.5089  0.1694  0.8287
 9933TIP3    H251215   5.662   0.375   5.488  2.1262 -1.3591 -1.3715
 9934TIP3   OH251216   5.643   5.012   1.013 -0.9029 -0.5504 -0.1560
 9934TIP3    H151217   5.680   4.964   0.938  1.7055 -0.5850  1.0383
 9934TIP3    H251218   5.619   4.943   1.075 -1.5384 -0.4544 -0.2881
 9935TIP3   OH251219   5.992   5.691  12.505  0.0944  0.2607 -0.2104
 9935TIP3    H151220   5.911   5.739  12.490  0.1056  0.3647  0.0599
 9935TIP3    H251221   5.964   5.600  12.517  0.2802 -0.3499 -3.5177
 9936TIP3   OH251222   4.381   0.688   0.471  0.8213  0.5237 -0.3979
 9936TIP3    H151223   4.389   0.670   0.378  0.0351 -0.3221 -0.3079
 9936TIP3    H251224   4.317   0.624   0.503  0.7501  1.0891  0.6330
 9937TIP3   OH251225   4.886   4.156   4.746  0.5982  0.6462  0.6017
 9937TIP3    H151226   4.887   4.251   4.733  1.9432  0.7413  1.2159
 9937TIP3    H251227   4.894   4.119   4.658 -1.6552  1.0283  0.1607
 9938TIP3   OH251228   3.628   4.456   2.592  0.7759 -0.2404 -0.6325
 9938TIP3    H151229   3.639   4.540   2.635  1.0598  0.0650 -1.2878
 9938TIP3    H251230   3.681   4.462   2.513  1.6257 -1.4069 -0.1817
 9939TIP3   OH251231   3.245   3.543   3.074 -0.9624 -0.1999 -0.0997
 9939TIP3    H151232   3.254   3.462   3.024 -1.5919  1.3493 -2.9451
 9939TIP3    H251233   3.153   3.542   3.103 -0.9915 -0.4448 -0.1923
 9940TIP3   OH251234   0.391   1.894  15.034 -0.5491  0.3764  0.5404
 9940TIP3    H151235   0.307   1.937  15.019 -1.2781 -0.8476  0.9387
 9940TIP3    H251236   0.378   1.805  15.003  2.7101  1.6249 -6.1212
 9941TIP3   OH251237   5.735   5.644  11.451  0.5010 -0.7257 -0.2110
 9941TIP3    H151238   5.757   5.616  11.540 -0.3010 -0.5068  0.0687
 9941TIP3    H251239   5.814   5.687  11.419  1.6306 -2.8580 -0.4921
 9942TIP3   OH251240   2.353   3.200   0.761 -0.4894  0.4196 -0.2274
 9942TIP3    H151241   2.358   3.276   0.703 -1.2120  0.0062 -0.8471
 9942TIP3    H251242   2.313   3.131   0.708  0.5054 -0.5255  0.1919
 9943TIP3   OH251243   4.599   4.852   0.615 -0.6985  0.4179  0.0097
 9943TIP3    H151244   4.635   4.828   0.700 -2.6321  0.1092  0.8072
 9943TIP3    H251245   4.672   4.891   0.568  1.0040 -1.3976  0.9726
 9944TIP3   OH251246   6.712   1.903   4.321  0.0724  0.3630 -0.0315
 9944TIP3    H151247   6.688   1.811   4.329  0.6709  0.2423  0.4170
 9944TIP3    H251248   6.777   1.905   4.251  0.2671  0.4046  0.1502
 9945TIP3   OH251249   3.851   3.917  13.509  0.3272 -0.8967 -0.4674
 9945TIP3    H151250   3.787   3.966  13.457  0.2598 -1.5384 -1.0094
 9945TIP3    H251251   3.931   3.970  13.506 -0.8345  1.2577  2.4023
 9946TIP3   OH251252   1.996   6.547  12.016 -0.4366  0.4487 -0.2218
 9946TIP3    H151253   1.956   6.488  12.080  2.0949 -0.9501  0.2034
 9946TIP3    H251254   1.967   6.634  12.043 -1.3131 -0.2864  1.3839
 9947TIP3   OH251255   4.477   6.656  10.430  0.0351  0.2598  0.3633
 9947TIP3    H151256   4.491   6.599  10.354 -0.7060  0.0189  0.4013
 9947TIP3    H251257   4.555   6.643  10.485  0.3324  0.0419 -0.1020
 9948TIP3   OH251258   0.400   6.262   5.015  0.4997 -0.3934 -0.4043
 9948TIP3    H151259   0.433   6.264   4.925  0.2318 -2.0564 -0.5696
 9948TIP3    H251260   0.365   6.350   5.029  1.4525  0.2147 -1.5644
 9949TIP3   OH251261   4.810   1.124   2.949 -0.4325 -0.0362 -0.4366
 9949TIP3    H151262   4.715   1.134   2.960 -0.5380  0.5830 -1.7483
 9949TIP3    H251263   4.822   1.032   2.924 -0.6194 -0.2573  0.2585
 9950TIP3   OH251264   5.137   2.769  13.397 -0.3469  0.4136  0.2360
 9950TIP3    H151265   5.080   2.741  13.326 -0.4010 -4.3064  1.7981
 9950TIP3    H251266   5.221   2.727  13.379 -0.1882 -0.4356  2.5142
 9951TIP3   OH251267   1.508   6.259   0.763  0.0336 -0.6494  0.0228
 9951TIP3    H151268   1.413   6.245   0.765  0.1159 -1.2615 -0.1796
 9951TIP3    H251269   1.543   6.180   0.720  0.6352 -0.4454  0.1330
 9952TIP3   OH251270   3.724   5.439   3.504  0.3508  0.2294  0.0483
 9952TIP3    H151271   3.708   5.402   3.417 -0.1146  0.8604 -0.1452
 9952TIP3    H251272   3.651   5.407   3.557 -0.5993  1.6348 -0.3692
 9953TIP3   OH251273   3.104   3.339   5.868  0.9979  0.1424 -0.1496
 9953TIP3    H151274   3.041   3.272   5.893  0.0349  0.7763 -0.8452
 9953TIP3    H251275   3.141   3.369   5.951  0.1773 -0.0249  0.2812
 9954TIP3   OH251276   5.046   6.706   1.223 -0.5648 -0.4065 -0.1957
 9954TIP3    H151277   4.954   6.682   1.215 -0.4103 -0.8164 -0.9147
 9954TIP3    H251278   5.048   6.800   1.208 -0.8510 -0.4229 -0.3386
 9955TIP3   OH251279   0.962   0.872   3.638 -0.3722  0.0541 -0.5075
 9955TIP3    H151280   1.051   0.848   3.611 -0.7098  0.4465 -2.0409
 9955TIP3    H251281   0.905   0.823   3.580 -1.1446  0.7647 -0.3641
 9956TIP3   OH251282   2.017   3.144   3.894  0.1808 -0.0795  0.5137
 9956TIP3    H151283   2.048   3.223   3.851  0.4015  0.7084  2.0412
 9956TIP3    H251284   1.982   3.089   3.823  0.2332  1.2734 -0.5899
 9957TIP3   OH251285   3.686   5.669   3.336  0.0864  0.5516 -0.0744
 9957TIP3    H151286   3.685   5.643   3.428  2.5684  0.0304 -0.1295
 9957TIP3    H251287   3.741   5.604   3.293  1.1450  2.2260 -1.4025
 9958TIP3   OH251288   2.179   5.287   0.827  0.1564  0.0747 -0.1694
 9958TIP3    H151289   2.203   5.316   0.739  0.5293 -0.6800 -0.3211
 9958TIP3    H251290   2.084   5.300   0.832  0.2929  1.2248 -0.2586
 9959TIP3   OH251291   2.278   6.687  14.183  0.2358 -0.3315 -0.3693
 9959TIP3    H151292   2.263   6.744  14.108  0.8571 -0.1624 -0.3721
 9959TIP3    H251293   2.368   6.655  14.172  0.9474  0.9815  1.1343
 9960TIP3   OH251294   5.079   6.036   1.312  0.0975 -0.0353 -0.0498
 9960TIP3    H151295   5.074   6.100   1.383  0.0551  0.3121 -0.3632
 9960TIP3    H251296   5.167   6.045   1.277 -0.0673  0.1945 -0.4100
 9961TIP3   OH251297   3.737   1.045  16.938  0.4573 -0.2899 -0.1030
 9961TIP3    H151298   3.727   0.990  16.860 -0.7928 -0.8330  0.4117
 9961TIP3    H251299   3.716   0.986  17.011  0.3219  0.5468  0.5404
 9962TIP3   OH251300   5.972   0.387  11.774 -1.0169 -0.2446 -0.3079
 9962TIP3    H151301   5.940   0.400  11.863 -1.0322 -0.2313 -0.3154
 9962TIP3    H251302   5.960   0.293  11.758 -0.3025 -0.3886 -0.0208
 9963TIP3   OH251303   6.092   0.031   4.370 -0.4089 -0.1938 -0.0061
 9963TIP3    H151304   6.012   0.081   4.385 -0.5272 -0.7514  1.3220
 9963TIP3    H251305   6.071  -0.057   4.402  0.9303 -0.1881  0.9202
 9964TIP3   OH251306   5.442   5.565   3.206 -0.2962 -0.1218 -0.1072
 9964TIP3    H151307   5.516   5.561   3.146 -1.5415  0.6620 -1.7740
 9964TIP3    H251308   5.417   5.658   3.207 -1.8013 -0.5003 -0.3083
 9965TIP3   OH251309   4.013   2.793   2.639 -0.1724 -0.2710  0.3018
 9965TIP3    H151310   4.011   2.869   2.581  3.0238 -0.1835  0.1573
 9965TIP3    H251311   3.977   2.826   2.722 -0.0221  1.0419 -0.1224
 9966TIP3   OH251312   1.190   0.074  10.760  0.1690  0.3287  0.6948
 9966TIP3    H151313   1.213   0.003  10.820  0.6632  0.9812  1.2883
 9966TIP3    H251314   1.108   0.045  10.719  0.1294 -0.3818  1.2560
 9967TIP3   OH251315   3.197   4.177  12.273  0.2219 -0.6094  0.1528
 9967TIP3    H151316   3.199   4.273  12.276  1.0180 -0.5715 -0.7459
 9967TIP3    H251317   3.136   4.157  12.202  2.7131 -0.6209 -2.1552
 9968TIP3   OH251318   0.855   2.881   2.480 -0.1788  0.7008 -0.2802
 9968TIP3    H151319   0.774   2.904   2.525 -0.9229 -0.0674 -1.1722
 9968TIP3    H251320   0.859   2.785   2.487  0.5018  0.7132 -0.4750
 9969TIP3   OH251321   0.588   4.289  15.102 -0.1532  0.2642 -0.1213
 9969TIP3    H151322   0.549   4.227  15.163  0.1322 -1.2889 -1.4454
 9969TIP3    H251323   0.635   4.351  15.157 -0.9303 -0.3472  1.2774
 9970TIP3   OH251324   5.893   5.613  14.205 -0.2896 -0.4156 -0.1412
 9970TIP3    H151325   5.927   5.620  14.116  0.3477 -0.4290  0.0930
 9970TIP3    H251326   5.840   5.534  14.205 -1.7030  0.4925 -0.9530
 9971TIP3   OH251327   3.067   6.380  10.912 -0.4447 -0.2966 -0.0015
 9971TIP3    H151328   3.002   6.412  10.850  0.2019  1.4428  0.1515
 9971TIP3    H251329   3.105   6.303  10.870 -0.2653  0.6271 -1.6414
 9972TIP3   OH251330   4.593   2.811   0.338  0.1889 -0.3886  0.4237
 9972TIP3    H151331   4.570   2.886   0.392 -1.7157 -1.6694  1.4879
 9972TIP3    H251332   4.642   2.753   0.396 -0.4216 -1.0279  0.3148
 9973TIP3   OH251333   4.835   5.523  15.380  0.1086 -0.0401 -0.4347
 9973TIP3    H151334   4.836   5.596  15.443  1.8031 -0.4371  0.0608
 9973TIP3    H251335   4.860   5.447  15.432 -2.1756 -1.1220 -0.8315
 9974TIP3   OH251336   1.287   3.291  11.517 -0.2117 -0.2043 -0.5402
 9974TIP3    H151337   1.368   3.330  11.483  0.7104 -0.6262  1.0762
 9974TIP3    H251338   1.234   3.274  11.439 -0.8947  4.5341 -1.3957
 9975TIP3   OH251339   6.297   3.174  16.845  0.3598  0.0173 -0.4289
 9975TIP3    H151340   6.378   3.146  16.888  1.1615  2.1153 -0.4804
 9975TIP3    H251341   6.227   3.135  16.899  1.3565 -1.4354 -0.1115
 9976TIP3   OH251342   6.396   4.583   4.672  0.2963  0.2411  0.2281
 9976TIP3    H151343   6.341   4.567   4.595  0.7282  2.4669 -0.6060
 9976TIP3    H251344   6.486   4.581   4.638  0.4843  1.3265  0.6399
 9977TIP3   OH251345   6.050   4.542   2.597 -0.5750  0.2287 -0.2451
 9977TIP3    H151346   6.004   4.486   2.660  0.7357 -0.2095  0.3578
 9977TIP3    H251347   5.986   4.610   2.574 -1.8413 -0.8966 -0.1806
 9978TIP3   OH251348   5.054   1.990   2.968 -0.2568  0.2115  0.3209
 9978TIP3    H151349   5.100   2.029   3.043 -0.1021  1.2186 -0.2932
 9978TIP3    H251350   5.077   1.897   2.973  0.2503  0.3694  1.1677
 9979TIP3   OH251351   4.079   3.739   0.060 -0.1954 -0.2347 -0.8216
 9979TIP3    H151352   4.029   3.721   0.139 -0.0159 -0.7981 -0.8332
 9979TIP3    H251353   4.057   3.830   0.038 -1.9477 -0.7405 -1.3550
 9980TIP3   OH251354   6.648   2.699  16.914  0.5845  0.1232 -0.0017
 9980TIP3    H151355   6.712   2.656  16.857 -1.0572 -0.6177 -1.3765
 9980TIP3    H251356   6.623   2.632  16.977  2.1592  0.8463  1.4648
 9981TIP3   OH251357   4.656   5.235  16.534 -0.2361  0.4498 -0.2102
 9981TIP3    H151358   4.734   5.180  16.527 -0.5834 -0.3298  1.5154
 9981TIP3    H251359   4.621   5.238  16.445  2.8805  2.6283 -1.5641
 9982TIP3   OH251360   1.763   6.641   4.324  0.2941  0.2088  0.4404
 9982TIP3    H151361   1.765   6.641   4.228 -0.6552  0.5787  0.4032
 9982TIP3    H251362   1.777   6.733   4.348 -1.7698  0.5559  0.5423
 9983TIP3   OH251363   4.905   3.132   4.485 -0.0626  0.0987  0.3934
 9983TIP3    H151364   4.870   3.186   4.556  0.7732 -0.0670  0.9566
 9983TIP3    H251365   4.839   3.065   4.470 -1.6705  1.9082 -1.1124
 9984TIP3   OH251366   1.571   4.609  11.587  0.0566 -0.1762  0.3912
 9984TIP3    H151367   1.529   4.523  11.591  1.0040 -0.6142  1.7781
 9984TIP3    H251368   1.533   4.657  11.660  0.5622  0.0765  0.4914
 9985TIP3   OH251369   5.518   4.548   5.602  0.4069  0.2672  0.0478
 9985TIP3    H151370   5.437   4.528   5.554  1.7194  1.7167 -3.0561
 9985TIP3    H251371   5.560   4.463   5.615 -0.5749 -0.2835 -0.2745
 9986TIP3   OH251372   2.313   6.008   0.830 -0.6447 -0.1573  0.3475
 9986TIP3    H151373   2.246   5.984   0.765  0.6274 -0.5496 -0.8685
 9986TIP3    H251374   2.391   5.959   0.803  0.3056  0.7259  1.4003
 9987TIP3   OH251375   0.727   6.768   0.707 -0.3025 -0.1820 -0.7239
 9987TIP3    H151376   0.782   6.828   0.656  1.0445  0.0104  0.8791
 9987TIP3    H251377   0.765   6.768   0.794 -0.3885 -3.1815 -0.5648
 9988TIP3   OH251378   3.080   1.747   6.139  0.0725  0.4814  0.0352
 9988TIP3    H151379   3.016   1.677   6.130 -1.9734  2.5490 -3.1358
 9988TIP3    H251380   3.163   1.707   6.114 -0.4934 -1.4363  1.0323
 9989TIP3   OH251381   0.801   5.937   4.690 -0.3962 -0.6845  0.1129
 9989TIP3    H151382   0.891   5.938   4.723 -0.0389 -1.6825 -0.7943
 9989TIP3    H251383   0.807   5.901   4.602 -1.7290 -1.0849  0.1536
 9990TIP3   OH251384   1.104   1.813   1.301 -0.0183 -0.3499  0.1973
 9990TIP3    H151385   1.164   1.884   1.277 -1.2623  0.8940  0.6199
 9990TIP3    H251386   1.069   1.783   1.217 -0.1626  0.1836  0.0565
 9991TIP3   OH251387   2.414   0.442  12.746  0.3202  0.3870 -0.1809
 9991TIP3    H151388   2.407   0.471  12.655 -1.5919  0.6688 -0.0005
 9991TIP3    H251389   2.357   0.503  12.794  1.4372  0.3534  1.2408
 9992TIP3   OH251390   6.266   3.567   0.545 -0.0014  0.6117 -0.1964
 9992TIP3    H151391   6.222   3.533   0.468  0.8780 -1.5029  0.1628
 9992TIP3    H251392   6.209   3.637   0.577 -0.8170  0.9418 -2.2113
 9993TIP3   OH251393   1.934   3.543   0.366 -0.1878 -0.0738  0.0465
 9993TIP3    H151394   1.906   3.634   0.354  1.0048  0.2281 -0.5745
 9993TIP3    H251395   1.997   3.528   0.297  0.1703 -1.1583  0.5898
 9994TIP3   OH251396   0.446   3.612  10.996  0.5839 -0.0512 -0.7791
 9994TIP3    H151397   0.362   3.570  11.014  2.0925 -3.1198 -0.2149
 9994TIP3    H251398   0.495   3.547  10.946  2.1387  2.2472 -2.4581
 9995TIP3   OH251399   5.846   6.275   1.472  0.5572 -0.1402 -0.2632
 9995TIP3    H151400   5.767   6.315   1.436  1.0142 -0.3029 -1.5249
 9995TIP3    H251401   5.822   6.248   1.560  0.3480  3.2735  0.8439
 9996TIP3   OH251402   1.052   0.618   5.437  0.3360 -0.3085 -0.1697
 9996TIP3    H151403   1.019   0.651   5.354  2.4971 -2.0501 -1.8640
 9996TIP3    H251404   1.095   0.693   5.478  1.6741  0.0076 -2.0183
 9997TIP3   OH251405   1.249   3.492  15.913 -0.1720 -0.1574  0.3833
 9997TIP3    H151406   1.233   3.488  16.007 -0.6873 -2.2718  0.2696
 9997TIP3    H251407   1.237   3.401  15.883  1.5199  0.1527 -1.4676
 9998TIP3   OH251408   5.034   1.359   5.745  0.1028  0.6940 -0.0138
 9998TIP3    H151409   5.003   1.422   5.809  1.3431  0.9256  0.3997
 9998TIP3    H251410   5.006   1.274   5.779  0.3871  0.8517  0.6297
 9999TIP3   OH251411   1.672   4.064  11.117  0.0114 -0.0987  0.0957
 9999TIP3    H151412   1.698   3.973  11.132 -1.7729 -0.9068 -1.2925
 9999TIP3    H251413   1.746   4.115  11.148  1.4704 -2.0547  0.0769
10000TIP3   OH251414   1.277   0.038   1.640  0.4050 -0.5874  0.1814
10000TIP3    H151415   1.260  -0.056   1.644 -2.3336 -0.1365  1.9826
10000TIP3    H251416   1.215   0.076   1.703  2.6339  2.2793  0.8623
10001TIP3   OH251417   2.971   5.888  13.909 -0.2651  0.6113  0.1461
10001TIP3    H151418   2.932   5.801  13.916  1.0275  0.1215  1.9271
10001TIP3    H251419   3.053   5.873  13.861 -1.3465  1.3716 -2.1096
10002TIP3   OH251420   5.259   5.842  11.217  0.8118 -0.0655  0.1836
10002TIP3    H151421   5.315   5.897  11.162 -0.8157  1.0102 -0.4633
10002TIP3    H251422   5.235   5.899  11.291  0.3504 -0.4095  0.3000
10003TIP3   OH251423   0.853   5.098   4.987 -0.6413  0.0287 -0.4162
10003TIP3    H151424   0.883   5.011   4.961  0.3856  0.0433  0.6541
10003TIP3    H251425   0.843   5.145   4.905 -0.6540 -0.9135 -0.9724
10004TIP3   OH251426   3.182   1.137  15.567  0.3288 -0.4291 -0.1644
10004TIP3    H151427   3.123   1.062  15.571  0.7073 -0.6908  0.5147
10004TIP3    H251428   3.153   1.185  15.488  0.8393 -1.8925 -1.2868
10005TIP3   OH251429   4.556   2.000  16.241 -0.3410 -0.5405 -0.2024
10005TIP3    H151430   4.616   2.012  16.167 -0.2267 -0.2444 -0.0627
10005TIP3    H251431   4.536   1.907  16.240  0.6514 -0.7684  0.1580
10006TIP3   OH251432   4.957   3.585   0.761  0.2351  0.0628 -0.1889
10006TIP3    H151433   5.049   3.593   0.736 -0.2526 -0.2470 -2.3006
10006TIP3    H251434   4.909   3.625   0.688 -1.3108  0.2816  0.9034
10007TIP3   OH251435   4.600   4.390   1.866  0.9563 -0.2032  0.1214
10007TIP3    H151436   4.660   4.317   1.879  0.3367 -0.5064  1.4619
10007TIP3    H251437   4.581   4.421   1.955 -0.4953  0.1862 -0.2967
10008TIP3   OH251438   1.566   5.620   4.125 -0.0173  0.2769  0.1969
10008TIP3    H151439   1.632   5.672   4.078  0.7983 -0.0919  0.8956
10008TIP3    H251440   1.544   5.549   4.066 -0.4973  0.9170 -0.4199
10009TIP3   OH251441   4.879   4.446   5.947 -0.1154 -0.3157 -0.0438
10009TIP3    H151442   4.959   4.418   5.991  1.4000  0.8407 -1.9056
10009TIP3    H251443   4.875   4.540   5.961 -0.2354 -0.1119 -1.3232
10010TIP3   OH251444   4.676   3.353  11.455 -0.7188 -0.2001  0.0297
10010TIP3    H151445   4.728   3.277  11.429  1.1488  1.2062 -0.6014
10010TIP3    H251446   4.599   3.351  11.398  0.6535 -0.1479 -1.9265
10011TIP3   OH251447   5.615   0.597   5.210  0.5324  0.1871 -0.1708
10011TIP3    H151448   5.656   0.552   5.284  0.2759  1.3066  0.6806
10011TIP3    H251449   5.523   0.570   5.214  0.0852  1.6923  1.1306
10012TIP3   OH251450   6.432   6.709   3.811  0.2940  0.3096 -0.1589
10012TIP3    H151451   6.409   6.799   3.834  1.3578  0.4193  0.5376
10012TIP3    H251452   6.525   6.712   3.792  0.4724 -0.7530  0.4603
10013TIP3   OH251453   1.077   5.420  15.476 -0.5479 -0.1670  0.2675
10013TIP3    H151454   1.151   5.397  15.532 -0.3463  1.7752  0.8469
10013TIP3    H251455   1.088   5.365  15.398 -0.2789 -2.1985  1.6519
10014TIP3   OH251456   5.790   0.437  15.899  0.2600 -0.1297 -0.4017
10014TIP3    H151457   5.801   0.532  15.904  0.8338 -0.1827 -0.4799
10014TIP3    H251458   5.731   0.423  15.825 -1.0740  0.2295  0.5743
10015TIP3   OH251459   6.263   6.624   0.897  0.2227  0.7162 -0.4931
10015TIP3    H151460   6.249   6.546   0.951  0.2019  1.1423  0.1363
10015TIP3    H251461   6.309   6.592   0.820 -2.4147 -0.3993 -1.6904
10016TIP3   OH251462   2.113   6.683  11.016 -0.0006 -0.3238  0.0568
10016TIP3    H151463   2.050   6.750  11.041 -2.1143 -1.5015 -1.7071
10016TIP3    H251464   2.129   6.699  10.923  1.9127 -0.4296  0.3260
10017TIP3   OH251465   2.219   1.413   4.350 -0.5401 -0.2884  0.3245
10017TIP3    H151466   2.127   1.393   4.365 -1.1663  1.2030 -1.2328
10017TIP3    H251467   2.218   1.494   4.298  1.5406 -1.9985 -2.6623
10018TIP3   OH251468   2.325   0.482  11.185 -0.1400  0.4331 -0.0954
10018TIP3    H151469   2.350   0.546  11.118 -0.4340  0.5556 -0.0854
10018TIP3    H251470   2.240   0.450  11.157 -0.2484  0.4597  0.2036
10019TIP3   OH251471   5.974   1.391  16.646  0.3849 -0.7777  0.1093
10019TIP3    H151472   6.065   1.372  16.666  0.4576 -1.2381 -0.6083
10019TIP3    H251473   5.957   1.342  16.565 -0.5040 -0.7309  0.2589
10020TIP3   OH251474   3.296   0.767   3.256  0.1178  0.2550 -0.2378
10020TIP3    H151475   3.313   0.687   3.305 -1.0229  0.1411  0.0100
10020TIP3    H251476   3.207   0.756   3.223  0.1283  1.2065 -0.6249
10021TIP3   OH251477   2.928   1.892   3.885 -0.1257  0.6754  0.9323
10021TIP3    H151478   2.934   1.976   3.930 -1.6719  0.7611  1.0423
10021TIP3    H251479   2.933   1.915   3.792 -0.2116  0.8563  0.9716
10022TIP3   OH251480   4.713   3.443   1.815  0.7512 -0.3601  0.2818
10022TIP3    H151481   4.761   3.526   1.805  2.0967 -1.2779 -1.3863
10022TIP3    H251482   4.755   3.400   1.889 -0.4413  0.7101  1.6449
10023TIP3   OH251483   2.816   4.613  13.115 -0.1046 -0.1743  0.2969
10023TIP3    H151484   2.902   4.572  13.126 -0.3601 -0.6196  0.6841
10023TIP3    H251485   2.805   4.669  13.191  1.0714  2.1900 -1.1636
10024TIP3   OH251486   6.140   2.754  10.759  0.7076  0.0665  0.0329
10024TIP3    H151487   6.230   2.786  10.753  0.4239  0.7216 -0.9816
10024TIP3    H251488   6.090   2.815  10.705  0.0351 -1.7129 -1.4678
10025TIP3   OH251489   3.028   0.324   5.197  0.1160 -0.7610  0.0256
10025TIP3    H151490   3.016   0.244   5.248 -2.0077 -0.5982 -0.1376
10025TIP3    H251491   2.944   0.370   5.203  0.8452  0.8085 -0.9943
10026TIP3   OH251492   2.268   3.520   5.190  0.1306  0.6911 -0.1379
10026TIP3    H151493   2.340   3.526   5.128 -0.8047 -0.5662 -1.4409
10026TIP3    H251494   2.210   3.593   5.168  0.5760  1.1927  0.3383
10027TIP3   OH251495   0.394   5.025   3.690 -0.0765  0.0974  0.0924
10027TIP3    H151496   0.361   5.083   3.759  0.3422 -1.7016  1.9097
10027TIP3    H251497   0.489   5.027   3.701 -0.0876 -1.8363  1.0701
10028TIP3   OH251498   0.628   6.250  14.556 -0.0703 -0.2980  0.3225
10028TIP3    H151499   0.616   6.160  14.525  1.1390  0.0649 -1.3472
10028TIP3    H251500   0.561   6.300  14.511 -0.7712 -0.3475  1.2862
10029TIP3   OH251501   1.348   0.623   6.363 -0.7138 -0.4352  0.7521
10029TIP3    H151502   1.383   0.586   6.282  0.8140  2.1919  0.0502
10029TIP3    H251503   1.256   0.641   6.344 -0.3623  0.1956 -0.4578
10030TIP3   OH251504   4.240   2.455   0.794 -0.4079  0.1375  0.3710
10030TIP3    H151505   4.310   2.426   0.853  0.4430 -0.2199 -0.7794
10030TIP3    H251506   4.162   2.457   0.849  0.7435  1.9964  2.0804
10031TIP3   OH251507   0.344   3.088   0.532 -0.0938  0.0985  0.1376
10031TIP3    H151508   0.405   3.050   0.595  1.1883 -1.2273 -1.7777
10031TIP3    H251509   0.295   3.013   0.498 -0.8604  0.7999 -0.3370
10032TIP3   OH251510   3.785   5.129  14.197  0.2189 -0.6421 -0.0484
10032TIP3    H151511   3.808   5.082  14.116 -1.8524 -1.7113 -0.0715
10032TIP3    H251512   3.799   5.221  14.175  0.0539 -0.9328 -1.5082
10033TIP3   OH251513   0.788   2.237  13.304  0.9507 -0.2369  0.1347
10033TIP3    H151514   0.761   2.161  13.252 -0.3109 -0.8809  1.6701
10033TIP3    H251515   0.706   2.284  13.321  0.9261 -1.2928  3.4693
10034TIP3   OH251516   4.476   4.298  15.740  0.0754 -0.1094  0.5582
10034TIP3    H151517   4.440   4.211  15.753 -1.8046  0.7084  1.2124
10034TIP3    H251518   4.551   4.303  15.801 -0.6071 -0.8128  1.4823
10035TIP3   OH251519   1.730   4.843   2.975 -0.8009 -0.4860 -0.4717
10035TIP3    H151520   1.784   4.882   2.907 -2.2930 -1.8303 -2.5735
10035TIP3    H251521   1.674   4.915   3.006 -2.1104 -0.4034 -2.8247
10036TIP3   OH251522   0.890   6.137   3.639  0.3037 -0.1554  0.2115
10036TIP3    H151523   0.943   6.067   3.600 -0.4655 -0.2255 -0.7687
10036TIP3    H251524   0.935   6.218   3.615  0.6397 -0.2705  0.4543
10037TIP3   OH251525   3.569   3.110  13.631  0.3678 -0.3294 -0.0371
10037TIP3    H151526   3.613   3.194  13.617  1.5501 -0.8582  0.3344
10037TIP3    H251527   3.566   3.101  13.726  2.5444 -1.8103 -0.0313
10038TIP3   OH251528   5.557   3.743  15.734 -0.1592 -0.4253  0.2126
10038TIP3    H151529   5.606   3.806  15.681 -0.3076  1.4249  2.1374
10038TIP3    H251530   5.486   3.713  15.677 -0.1083  1.2073 -0.7557
10039TIP3   OH251531   0.563   1.814  16.514 -0.7432  0.1809 -0.4665
10039TIP3    H151532   0.564   1.876  16.440  1.0601  1.5144  0.5973
10039TIP3    H251533   0.560   1.870  16.591 -0.7058 -1.1460  0.5240
10040TIP3   OH251534   2.742   3.552   4.680  0.2538  0.7388 -0.3675
10040TIP3    H151535   2.835   3.528   4.687  0.7835  2.3066 -1.3705
10040TIP3    H251536   2.702   3.516   4.759  1.7251  0.0574  0.1147
10041TIP3   OH251537   5.735   0.063   2.643  0.0222 -0.2966 -0.8025
10041TIP3    H151538   5.690   0.003   2.702  0.0120  0.8644  0.4082
10041TIP3    H251539   5.713   0.031   2.555 -1.6628 -0.8214 -0.2163
10042TIP3   OH251540   5.148   5.119   2.381  0.0702 -0.2156  0.3456
10042TIP3    H151541   5.148   5.104   2.286 -1.7650  0.0932  0.2602
10042TIP3    H251542   5.092   5.051   2.416 -1.2539  1.1092  0.9065
10043TIP3   OH251543   0.313   3.826   3.091  0.1666  0.0738  0.5670
10043TIP3    H151544   0.272   3.898   3.140 -1.1368 -0.3889  0.1939
10043TIP3    H251545   0.296   3.749   3.145  0.5586 -0.1275  0.4028
10044TIP3   OH251546   5.164   2.717   1.332 -0.3185 -0.0194 -0.8938
10044TIP3    H151547   5.121   2.703   1.248 -2.1789 -0.6596  0.0983
10044TIP3    H251548   5.092   2.724   1.395  1.0148 -0.8067  0.8196
10045TIP3   OH251549   6.018   5.356  10.841 -0.7561 -0.1625  0.6654
10045TIP3    H151550   6.072   5.280  10.860  0.3063  0.5240  0.4859
10045TIP3    H251551   5.947   5.323  10.786 -0.8006 -1.1658  1.3159
10046TIP3   OH251552   1.385   3.626  11.503 -0.7612 -0.1560 -1.1131
10046TIP3    H151553   1.467   3.592  11.539 -1.7173 -0.7977  0.5403
10046TIP3    H251554   1.319   3.609  11.571 -1.7365  3.0915 -1.0773
10047TIP3   OH251555   3.328   5.779  16.776 -0.6581  0.2602 -0.0489
10047TIP3    H151556   3.364   5.827  16.851 -2.3713 -0.8223  1.5756
10047TIP3    H251557   3.403   5.766  16.718  1.0311  0.2295  1.9844
10048TIP3   OH251558   0.006   4.749  13.851  0.7295  0.3551 -0.2122
10048TIP3    H151559   0.000   4.838  13.815  0.0284  0.0630 -0.8372
10048TIP3    H251560   0.044   4.697  13.780  0.5779  0.0338 -0.0593
10049TIP3   OH251561   4.712   4.609  17.166 -0.2618 -0.5085  0.5305
10049TIP3    H151562   4.738   4.541  17.104  0.3919 -0.3792  0.6587
10049TIP3    H251563   4.792   4.660  17.181 -1.0635  1.2696 -0.7799
10050TIP3   OH251564   6.555   2.467   0.202 -0.6064  0.1613 -0.1422
10050TIP3    H151565   6.520   2.420   0.277  1.3875  1.8048  2.0039
10050TIP3    H251566   6.481   2.517   0.168 -1.6533 -0.9528  0.4264
10051TIP3   OH251567   2.967   3.823   1.148  0.3220  0.1759  0.2672
10051TIP3    H151568   3.051   3.851   1.185  0.5745 -0.7247  0.4223
10051TIP3    H251569   2.940   3.749   1.203 -0.2317  0.0195 -0.2010
10052TIP3   OH251570   5.026   1.131   3.618 -0.1422 -0.2153 -0.2534
10052TIP3    H151571   5.056   1.053   3.571 -0.1862 -1.3604  1.5297
10052TIP3    H251572   5.093   1.145   3.685  1.2602  2.8766 -2.1106
10053TIP3   OH251573   5.914   3.965   4.615  0.0273 -0.5508  0.1226
10053TIP3    H151574   5.988   3.953   4.675 -0.0709  0.7046  0.5220
10053TIP3    H251575   5.837   3.968   4.671 -0.0538  0.7471 -0.0211
10054TIP3   OH251576   4.787   0.090  10.892 -0.0440 -0.6751  0.6187
10054TIP3    H151577   4.857   0.126  10.947  0.0943 -1.0693  0.7028
10054TIP3    H251578   4.788   0.146  10.814  0.6476 -0.9276  0.4353
10055TIP3   OH251579   0.548   3.989  11.316 -0.2765  0.0795 -0.2406
10055TIP3    H151580   0.510   3.902  11.323 -2.0800  0.7506 -0.7984
10055TIP3    H251581   0.520   4.034  11.396  0.4610  0.2001 -0.0494
10056TIP3   OH251582   0.012   0.222   4.792 -0.4951 -0.1821 -0.2289
10056TIP3    H151583   0.040   0.170   4.867 -1.4919  0.1983  0.4241
10056TIP3    H251584   0.085   0.282   4.776 -0.4473  0.0249  0.7126
10057TIP3   OH251585   0.019   2.450  15.193  0.4325 -0.5450 -0.8467
10057TIP3    H151586   0.086   2.515  15.171  0.0211  0.3144  0.3435
10057TIP3    H251587   0.064   2.389  15.253 -0.3296  1.2056  1.6433
10058TIP3   OH251588   1.638   2.955  13.869 -0.5641 -0.1356 -0.0379
10058TIP3    H151589   1.697   2.922  13.801  1.5146  1.8572  0.6388
10058TIP3    H251590   1.607   3.039  13.835 -3.1459 -1.1321 -0.3682
10059TIP3   OH251591   4.953   4.801   4.230 -0.1319 -0.1823  0.9980
10059TIP3    H151592   4.896   4.784   4.155  0.3939 -2.6336  1.0672
10059TIP3    H251593   4.902   4.857   4.287 -0.6783  1.5008 -0.9939
10060TIP3   OH251594   0.327   4.297   5.649 -0.4354  0.2284 -0.4923
10060TIP3    H151595   0.321   4.335   5.561  1.0518 -0.1154 -0.7637
10060TIP3    H251596   0.393   4.229   5.642 -0.7991 -0.2802  0.7404
10061TIP3   OH251597   3.812   4.431   2.407  0.0989  0.3397  0.1323
10061TIP3    H151598   3.781   4.344   2.382  0.1907  0.4423 -0.3600
10061TIP3    H251599   3.903   4.417   2.435 -0.2368  0.1101  1.1341
10062TIP3   OH251600   1.936   1.937  11.821  0.3431 -0.0553  0.0482
10062TIP3    H151601   2.004   1.881  11.784  0.4411 -2.4947  3.4813
10062TIP3    H251602   1.982   2.000  11.875  0.0067  0.3106 -0.0858
10063TIP3   OH251603   6.416   0.363  13.494 -0.3939 -0.2488 -0.3938
10063TIP3    H151604   6.336   0.415  13.484  0.5591  1.5749  0.8910
10063TIP3    H251605   6.422   0.345  13.587  1.2516  0.6114 -0.3036
10064TIP3   OH251606   5.811   1.014   2.256  0.2164  0.1005 -0.3411
10064TIP3    H151607   5.755   0.957   2.204 -0.8722  0.3971  0.4796
10064TIP3    H251608   5.823   1.092   2.202 -1.0177  0.4625 -0.1244
10065TIP3   OH251609   2.720   5.340   0.499  0.1165 -0.3019 -0.1545
10065TIP3    H151610   2.779   5.382   0.437  0.6660  0.4833  0.8679
10065TIP3    H251611   2.696   5.257   0.457  1.4079 -0.3265 -0.8896
10066TIP3   OH251612   3.568   2.386  10.505  0.1121 -0.2920  0.3779
10066TIP3    H151613   3.557   2.314  10.567  0.3191  1.3462  2.4082
10066TIP3    H251614   3.657   2.418  10.520 -0.5680  1.5163  0.8180
10067TIP3   OH251615   1.348   1.345  13.138 -0.5367  0.1435 -0.2813
10067TIP3    H151616   1.295   1.315  13.064 -1.0707  0.7026 -0.1292
10067TIP3    H251617   1.388   1.265  13.172 -0.4432 -0.1421 -1.0493
10068TIP3   OH251618   1.847   3.648   2.708 -0.5102 -0.3782  0.0654
10068TIP3    H151619   1.868   3.630   2.799  0.4016 -2.5483 -0.5098
10068TIP3    H251620   1.931   3.674   2.668 -0.6231 -0.7365 -0.4234
10069TIP3   OH251621   4.719   1.550   3.693  0.3541 -0.3617 -0.5968
10069TIP3    H151622   4.659   1.484   3.659  0.5286 -1.0417  0.3839
10069TIP3    H251623   4.801   1.503   3.709  1.4569  0.7126 -2.6585
10070TIP3   OH251624   3.042   2.939   5.470  0.1315  0.2511 -0.2028
10070TIP3    H151625   3.040   3.034   5.459  1.1187  0.1614 -1.3425
10070TIP3    H251626   2.966   2.908   5.421 -0.3403  0.4710  0.3881
10071TIP3   OH251627   1.397   1.881  14.295  0.0088 -0.5285 -0.7418
10071TIP3    H151628   1.423   1.799  14.335  0.9244 -0.4674 -1.1820
10071TIP3    H251629   1.478   1.917  14.258 -0.4851  0.2684 -1.0900
10072TIP3   OH251630   1.585   6.019  13.556 -0.2063 -0.1571 -0.6050
10072TIP3    H151631   1.580   6.103  13.509  0.3781  0.5230  0.4964
10072TIP3    H251632   1.497   6.005  13.590 -0.1339  0.4127 -0.1580
10073TIP3   OH251633   0.789   2.190   1.597  0.3665  0.4595 -0.0828
10073TIP3    H151634   0.855   2.244   1.640  0.1382  1.1839 -0.6090
10073TIP3    H251635   0.826   2.102   1.596 -0.1277  0.1439  2.6181
10074TIP3   OH251636   1.960   3.173   0.301 -0.2114  0.2973 -0.3972
10074TIP3    H151637   1.885   3.120   0.272 -0.7329  0.6676  0.2357
10074TIP3    H251638   1.931   3.212   0.384  1.4317 -1.1810  0.9675
10075TIP3   OH251639   1.387   6.318  16.845  0.5712  0.5550 -0.3866
10075TIP3    H151640   1.480   6.302  16.826  0.3635 -1.2582 -0.0073
10075TIP3    H251641   1.386   6.406  16.882  2.0004  1.0126 -1.3238
10076TIP3   OH251642   2.190   5.614  14.966 -0.1176  0.0376  0.3495
10076TIP3    H151643   2.249   5.651  14.900 -1.8368 -0.0368 -1.3107
10076TIP3    H251644   2.245   5.603  15.044  1.3665  2.5895 -0.2138
10077TIP3   OH251645   4.513   6.658   0.714  0.2352 -0.0804  0.1274
10077TIP3    H151646   4.535   6.637   0.805 -1.5431  2.0023  1.1603
10077TIP3    H251647   4.417   6.661   0.713  0.1617 -1.3031 -2.1739
10078TIP3   OH251648   4.542   4.534  16.834  0.7499 -0.0676 -0.5514
10078TIP3    H151649   4.514   4.581  16.912 -0.0503 -2.1775  0.4952
10078TIP3    H251650   4.622   4.488  16.861 -0.5716 -2.3497 -0.3024
10079TIP3   OH251651   1.567   3.226  14.757  0.8740  0.0302 -0.0655
10079TIP3    H151652   1.648   3.237  14.807  0.6558  1.2556  0.0665
10079TIP3    H251653   1.525   3.149  14.795  1.9818 -0.6350 -0.1514
10080TIP3   OH251654   2.366   0.815  16.839  0.1543 -0.0758  0.4806
10080TIP3    H151655   2.394   0.885  16.898  0.6156 -0.2136  0.4283
10080TIP3    H251656   2.284   0.783  16.877 -0.8284  1.4418 -0.2714
10081TIP3   OH251657   0.195   2.469   3.286 -0.4125 -0.6313 -0.1998
10081TIP3    H151658   0.162   2.426   3.207 -0.2905 -0.4600 -0.3463
10081TIP3    H251659   0.280   2.505   3.259  1.0058 -3.0284  0.7626
10082TIP3   OH251660   2.582   3.842  12.404 -0.3106 -0.2271  0.0455
10082TIP3    H151661   2.676   3.856  12.394 -0.3135 -0.2764 -0.0464
10082TIP3    H251662   2.569   3.834  12.499 -0.3246  0.5124  0.1094
10083TIP3   OH251663   6.227   2.281  14.777  0.4120  0.0520  0.1563
10083TIP3    H151664   6.251   2.219  14.708 -0.1059 -0.1384  0.1423
10083TIP3    H251665   6.253   2.367  14.743  0.1777 -0.0443 -0.2714
10084TIP3   OH251666   5.583   1.653  12.875 -0.0844 -0.2850  0.3074
10084TIP3    H151667   5.494   1.637  12.843 -0.4379  0.1424  1.0430
10084TIP3    H251668   5.616   1.724  12.819 -0.0568 -0.7174 -0.2268
10085TIP3   OH251669   4.598   0.359   6.062  0.0936  0.6442 -0.8458
10085TIP3    H151670   4.572   0.402   6.143  0.9761  0.7806 -0.6278
10085TIP3    H251671   4.589   0.265   6.080  3.6457  0.4527  0.6674
10086TIP3   OH251672   3.233   1.604  14.575  0.3842 -0.1014 -0.5232
10086TIP3    H151673   3.180   1.677  14.607  0.8518  0.2163 -0.4677
10086TIP3    H251674   3.172   1.530  14.573 -1.0078  0.9469 -3.5860
10087TIP3   OH251675   1.218   1.305  15.578 -0.9020  0.1403  0.5232
10087TIP3    H151676   1.282   1.285  15.510 -0.0172 -1.0627  1.6624
10087TIP3    H251677   1.153   1.236  15.571 -0.3944 -0.4450  1.3651
10088TIP3   OH251678   2.971   1.816  11.079  0.1161  0.2178 -0.0534
10088TIP3    H151679   3.017   1.798  10.997  1.0577  1.6025  0.1440
10088TIP3    H251680   2.984   1.909  11.094 -2.3154  0.5830  0.3038
10089TIP3   OH251681   6.654   6.406   0.494  0.5528 -0.6891 -0.1920
10089TIP3    H151682   6.671   6.489   0.450 -3.3938  1.6005  2.0255
10089TIP3    H251683   6.641   6.343   0.423  1.5966  1.0072 -1.9973
10090TIP3   OH251684   0.553   2.911   0.144 -0.4444 -0.1278  0.2193
10090TIP3    H151685   0.615   2.981   0.165 -0.8869  0.3220  0.0512
10090TIP3    H251686   0.537   2.921   0.050 -2.1704  0.9423  0.5732
10091TIP3   OH251687   6.710   5.320  12.645 -0.3358 -0.1613 -0.2047
10091TIP3    H151688   6.806   5.321  12.643 -0.2963  1.2798  0.7972
10091TIP3    H251689   6.684   5.355  12.560 -0.0484 -2.2341 -1.2127
10092TIP3   OH251690   2.184   3.792   1.755 -0.2114 -0.5081 -0.1543
10092TIP3    H151691   2.267   3.755   1.726  1.4371  3.2284 -0.7916
10092TIP3    H251692   2.204   3.833   1.839 -1.0230  1.3771 -0.8141
10093TIP3   OH251693   5.823   1.423   3.171 -0.2756  0.4341 -0.3926
10093TIP3    H151694   5.784   1.477   3.240 -0.1544  0.9279 -0.7018
10093TIP3    H251695   5.915   1.452   3.167  0.0922 -0.6256  0.2404
10094TIP3   OH251696   1.822   6.779   5.462  0.4243 -0.4171  0.2438
10094TIP3    H151697   1.784   6.756   5.377  1.3536  1.1565 -0.6451
10094TIP3    H251698   1.916   6.766   5.451  0.4194 -2.0104  1.6713
10095TIP3   OH251699   6.007   1.041   3.051  0.4136 -0.1728  0.9890
10095TIP3    H151700   6.011   0.960   2.999  0.6691 -0.9458  2.1804
10095TIP3    H251701   5.913   1.054   3.066  0.2219  0.8579 -0.8443
10096TIP3   OH251702   2.548   3.967  15.255 -0.2014 -0.2271 -0.4087
10096TIP3    H151703   2.618   4.021  15.291 -0.2468 -0.2645 -0.2648
10096TIP3    H251704   2.573   3.877  15.277 -0.2855 -0.2420 -0.3759
10097TIP3   OH251705   4.294   2.778  14.216  0.6405 -0.5448 -0.3988
10097TIP3    H151706   4.211   2.786  14.264 -0.2871 -2.3627 -1.6014
10097TIP3    H251707   4.353   2.839  14.261 -0.9985 -0.0540  1.2218
10098TIP3   OH251708   2.037   0.030  14.309 -0.4963 -0.3918  0.8157
10098TIP3    H151709   1.958  -0.024  14.299 -1.0413  0.6021 -0.4735
10098TIP3    H251710   2.109  -0.031  14.296 -1.0807 -1.0313  0.5049
10099TIP3   OH251711   5.571   3.129   2.924  0.3793 -0.6650 -0.0048
10099TIP3    H151712   5.622   3.057   2.963 -0.5483 -0.6219  1.3545
10099TIP3    H251713   5.612   3.208   2.959 -0.7141 -0.6336  1.2992
10100TIP3   OH251714   3.474   1.794   3.589 -0.5782  0.0669 -0.0025
10100TIP3    H151715   3.396   1.840   3.558  0.1514  1.8246  0.6442
10100TIP3    H251716   3.442   1.734   3.657 -1.3207  1.0553  0.5356
10101TIP3   OH251717   5.300   1.770   5.319  0.1660 -0.7543 -0.0362
10101TIP3    H151718   5.246   1.807   5.389 -0.2263  0.7191 -1.0596
10101TIP3    H251719   5.257   1.687   5.298 -0.6977 -0.4232  0.3350
10102TIP3   OH251720   2.573   1.000   5.698 -0.1660  0.7244 -0.5077
10102TIP3    H151721   2.623   0.996   5.780 -0.4350  2.7757 -0.1916
10102TIP3    H251722   2.584   0.913   5.659  1.8798  0.4265  0.5749
10103TIP3   OH251723   2.576   6.346  10.777 -1.2676 -0.1773  0.2177
10103TIP3    H151724   2.601   6.435  10.754 -1.4936 -0.0712  0.3723
10103TIP3    H251725   2.626   6.290  10.717 -0.4324  0.0112  0.7315
10104TIP3   OH251726   2.070   0.484  15.276  0.5802  0.0094 -0.3086
10104TIP3    H151727   2.081   0.415  15.210 -0.4221 -0.0775 -0.4056
10104TIP3    H251728   2.037   0.559  15.226 -1.9497 -0.6125  0.3184
10105TIP3   OH251729   5.816   6.517  12.762  0.1167  0.5911 -0.0464
10105TIP3    H151730   5.874   6.488  12.691 -0.7005  0.6080 -0.7451
10105TIP3    H251731   5.847   6.469  12.839  0.2904 -0.3225 -0.6612
10106TIP3   OH251732   1.035   2.733  12.802  0.1350  0.0516 -0.1794
10106TIP3    H151733   1.094   2.665  12.771 -0.0945 -1.2267  1.9672
10106TIP3    H251734   0.950   2.690  12.812 -0.1764  0.7914  0.5920
10107TIP3   OH251735   2.518   4.547  15.812  0.6425 -0.0387 -0.4296
10107TIP3    H151736   2.592   4.489  15.798 -0.3875 -2.1031  1.9655
10107TIP3    H251737   2.468   4.542  15.730  2.0441 -0.2190 -1.3109
10108TIP3   OH251738   0.552   1.459   3.884 -0.1295 -0.3563 -0.2315
10108TIP3    H151739   0.547   1.368   3.914 -0.1045 -0.0980  0.5860
10108TIP3    H251740   0.461   1.489   3.883 -0.0704 -0.1589  0.2451
10109TIP3   OH251741   3.178   0.962   0.710  0.3010  0.2790  0.4015
10109TIP3    H151742   3.113   1.032   0.704  1.0352  0.9059 -0.8248
10109TIP3    H251743   3.128   0.881   0.707 -0.4856  0.7488  0.5686
10110TIP3   OH251744   0.879   4.353  16.980 -0.8010 -0.3013  0.0264
10110TIP3    H151745   0.921   4.391  16.902 -2.4946  1.3223 -0.1806
10110TIP3    H251746   0.905   4.261  16.979  1.6490  0.3263 -0.7645
10111TIP3   OH251747   0.712   3.633  16.147 -0.6047  0.1175 -0.5818
10111TIP3    H151748   0.803   3.613  16.127 -0.1553  1.4928 -0.0075
10111TIP3    H251749   0.714   3.667  16.237 -2.0780 -2.4855  0.5631
10112TIP3   OH251750   5.238   1.655   1.743  0.0481 -0.0620  0.2622
10112TIP3    H151751   5.239   1.646   1.838 -1.0550 -1.8871  0.1591
10112TIP3    H251752   5.306   1.595   1.712  0.2988  0.4054 -0.1128
10113TIP3   OH251753   2.080   4.221  16.218 -0.4947 -0.4237 -0.0716
10113TIP3    H151754   2.025   4.143  16.210 -0.5538 -0.4421  0.4328
10113TIP3    H251755   2.058   4.274  16.142 -1.1161 -0.4906  0.0541
10114TIP3   OH251756   6.335   1.556  14.714  0.0529  0.9082  0.3543
10114TIP3    H151757   6.343   1.586  14.804  1.1775  0.1339  0.5286
10114TIP3    H251758   6.361   1.464  14.717  0.7268  1.0402 -0.8784
10115TIP3   OH251759   0.269   6.357  11.018 -0.1205 -0.1357 -0.0397
10115TIP3    H151760   0.265   6.265  11.045  1.2240 -0.3979 -0.6065
10115TIP3    H251761   0.269   6.354  10.923  0.0522  0.4345 -0.0643
10116TIP3   OH251762   1.124   3.007  16.303 -0.7214 -0.2069  0.9700
10116TIP3    H151763   1.083   2.953  16.236 -1.5842 -2.3371  3.0992
10116TIP3    H251764   1.051   3.039  16.357  0.0679 -0.0725  1.9974
10117TIP3   OH251765   5.802   3.626   2.718  0.2625  0.2258 -0.2127
10117TIP3    H151766   5.726   3.569   2.725  1.1580 -0.9177  0.7994
10117TIP3    H251767   5.813   3.640   2.624 -1.0567  0.2598 -0.3827
10118TIP3   OH251768   3.989   6.176  10.258  0.1839 -0.5331 -0.3218
10118TIP3    H151769   4.014   6.256  10.211  0.7959 -0.6822 -0.2518
10118TIP3    H251770   3.968   6.206  10.346  1.0469 -0.5261 -0.1060
10119TIP3   OH251771   3.154   4.013  13.246 -0.4511 -0.2464 -0.4061
10119TIP3    H151772   3.065   3.998  13.215 -0.0487 -0.5194 -1.4887
10119TIP3    H251773   3.208   3.953  13.193  0.3575 -0.1584  0.2966
10120TIP3   OH251774   1.062   6.206  11.518  0.4786  0.0662  0.0432
10120TIP3    H151775   1.125   6.177  11.584 -0.4608 -1.0489  0.4819
10120TIP3    H251776   0.984   6.152  11.534 -0.4582  1.1540 -0.7233
10121TIP3   OH251777   4.363   0.994   4.151  0.0908 -0.1916 -0.1504
10121TIP3    H151778   4.341   0.971   4.241 -0.7845 -1.2364 -0.6087
10121TIP3    H251779   4.457   0.978   4.144  0.0314 -0.8097  0.3815
10122TIP3   OH251780   0.909   6.750  11.853  0.2710  0.4724  0.9483
10122TIP3    H151781   1.003   6.766  11.849  0.8274 -2.4809 -1.6376
10122TIP3    H251782   0.901   6.655  11.864 -2.4558  0.7227  2.0744
10123TIP3   OH251783   5.342   6.523  15.655  0.0123  0.1181  0.1408
10123TIP3    H151784   5.258   6.492  15.688  0.6373 -0.7300  0.9756
10123TIP3    H251785   5.347   6.614  15.685  0.4549 -0.5565  2.2622
10124TIP3   OH251786   5.582   3.984  15.587  0.1323 -0.1028 -0.5453
10124TIP3    H151787   5.621   4.034  15.515 -0.6130  0.1351 -0.7917
10124TIP3    H251788   5.488   3.988  15.570 -0.0820  0.3570  0.7049
10125TIP3   OH251789   0.201   4.600  13.667 -0.1434 -0.2850 -0.0265
10125TIP3    H151790   0.270   4.659  13.698 -0.8919 -0.1050  1.3927
10125TIP3    H251791   0.176   4.636  13.581  1.0772  0.0156 -0.2696
10126TIP3   OH251792   4.086   2.160  14.453 -0.2213  0.3632 -0.4334
10126TIP3    H151793   4.101   2.065  14.453 -1.2030  0.1951 -1.4326
10126TIP3    H251794   4.080   2.183  14.545 -1.6530 -0.8322 -0.1996
10127TIP3   OH251795   2.240   1.461   3.115 -1.0426  0.1783 -0.0511
10127TIP3    H151796   2.237   1.436   3.022  1.5461 -0.6736  0.0051
10127TIP3    H251797   2.272   1.382   3.159  1.0794  1.5491  1.0506
10128TIP3   OH251798   4.469   5.058   0.788 -0.2826  0.1644 -0.6202
10128TIP3    H151799   4.536   5.100   0.734 -0.0321 -0.1404 -0.5498
10128TIP3    H251800   4.460   4.970   0.751  0.1683 -0.1766  0.0646
10129TIP3   OH251801   5.601   4.089   2.879  0.4151  0.2173 -0.2620
10129TIP3    H151802   5.629   4.003   2.848  0.4052  0.2021 -0.2283
10129TIP3    H251803   5.516   4.103   2.838 -0.3044 -0.4585  0.9572
10130TIP3   OH251804   3.414   2.427   0.155 -0.3877  0.4760 -0.1094
10130TIP3    H151805   3.405   2.363   0.084 -0.9977 -0.5814  0.8838
10130TIP3    H251806   3.333   2.418   0.205  0.1007  1.0882  0.8153
10131TIP3   OH251807   6.298   0.224   2.947 -0.0554 -0.1818 -0.0384
10131TIP3    H151808   6.304   0.158   2.877 -0.2319  0.1176 -0.3439
10131TIP3    H251809   6.204   0.230   2.964 -0.1025  0.5015 -0.5131
10132TIP3   OH251810   3.123   6.070   4.266  0.2399 -0.1159 -0.2002
10132TIP3    H151811   3.211   6.085   4.229 -0.5423 -0.4575 -2.3897
10132TIP3    H251812   3.097   5.985   4.229 -1.6203  0.7126 -0.8986
10133TIP3   OH251813   3.303   1.567   0.702  0.1046 -0.3156 -0.0872
10133TIP3    H151814   3.340   1.495   0.650 -2.6278 -1.3721 -0.7838
10133TIP3    H251815   3.245   1.612   0.641 -0.1831  0.8937  1.0487
10134TIP3   OH251816   5.383   2.321  14.216 -0.2082  0.2840  0.1987
10134TIP3    H151817   5.331   2.354  14.289 -0.8950  0.1794 -0.2422
10134TIP3    H251818   5.417   2.401  14.174 -0.9806  0.4014 -0.2161
10135TIP3   OH251819   3.686   2.850   5.634 -0.8326 -0.0114 -0.5191
10135TIP3    H151820   3.720   2.886   5.716 -2.9634 -1.3283  1.0520
10135TIP3    H251821   3.656   2.926   5.585 -1.4767  0.6663  0.8757
10136TIP3   OH251822   4.428   2.852  11.710  0.5382 -0.1428  0.2957
10136TIP3    H151823   4.372   2.832  11.786 -1.9449  0.2953 -1.3017
10136TIP3    H251824   4.462   2.766  11.683  0.6686 -0.4283  1.3053
10137TIP3   OH251825   1.169   0.134  16.665 -0.1394 -0.1674  0.3995
10137TIP3    H151826   1.094   0.184  16.632  0.1490  0.0018 -0.0010
10137TIP3    H251827   1.187   0.071  16.596  2.3708  2.1146 -1.1980
10138TIP3   OH251828   1.742   5.385   2.622 -0.3129 -0.1590 -0.1660
10138TIP3    H151829   1.767   5.302   2.581 -0.7832 -0.9210  1.0295
10138TIP3    H251830   1.648   5.392   2.606 -0.3809 -0.1486  0.2289
10139TIP3   OH251831   4.712   6.548  12.068 -0.3574  0.5378 -0.1933
10139TIP3    H151832   4.673   6.521  12.151  0.5581  2.8239  1.0829
10139TIP3    H251833   4.663   6.627  12.043  2.0394  2.3358  0.4363
10140TIP3   OH251834   3.944   4.886  11.283 -0.2612 -0.0700 -0.4833
10140TIP3    H151835   4.015   4.895  11.220 -1.0755  0.1579 -1.3936
10140TIP3    H251836   3.950   4.795  11.313  1.9465  0.5967  1.3864
10141TIP3   OH251837   1.194   3.009  11.970  0.1751  0.6559 -0.0369
10141TIP3    H151838   1.261   3.077  11.965  0.9270 -0.1398 -0.9231
10141TIP3    H251839   1.147   3.015  11.887 -0.5582  0.8840  0.3798
10142TIP3   OH251840   4.510   3.600  14.218 -0.2846  0.2441  0.2858
10142TIP3    H151841   4.432   3.656  14.212 -0.7618 -0.0813  2.3677
10142TIP3    H251842   4.581   3.661  14.238 -0.1875  0.4334 -0.6090
10143TIP3   OH251843   2.882   4.992   2.694 -0.0891 -0.2409  0.3453
10143TIP3    H151844   2.805   5.048   2.707  0.1625  0.2233 -0.0956
10143TIP3    H251845   2.954   5.040   2.735  0.5142  0.7583 -1.7048
10144TIP3   OH251846   0.580   1.327   0.659  0.1000  0.9089 -0.3614
10144TIP3    H151847   0.641   1.254   0.666  0.3384  1.1240 -0.1491
10144TIP3    H251848   0.494   1.286   0.648  0.3976  0.6206 -1.6822
10145TIP3   OH251849   1.059   6.407   6.229 -0.0886 -0.8984  0.4502
10145TIP3    H151850   1.038   6.335   6.289 -3.7134 -1.5059 -1.2557
10145TIP3    H251851   1.041   6.371   6.142 -2.7765  2.1411 -0.4388
10146TIP3   OH251852   5.048   0.547  12.283 -0.2662 -0.0434  0.2130
10146TIP3    H151853   5.125   0.491  12.277  0.8138  1.5197 -1.3554
10146TIP3    H251854   5.026   0.567  12.192 -0.5390  2.1543  0.7079
10147TIP3   OH251855   0.906   1.531   0.979  0.4787 -0.3150 -0.2960
10147TIP3    H151856   0.860   1.462   1.026  2.3385 -2.1030 -0.9655
10147TIP3    H251857   0.838   1.573   0.926 -1.5012  1.1181  3.0128
10148TIP3   OH251858   5.592   3.578  16.666 -0.7382 -0.0403  0.0150
10148TIP3    H151859   5.501   3.579  16.695 -0.8562  1.2275 -0.3383
10148TIP3    H251860   5.641   3.546  16.742 -1.5173 -1.3580  0.0027
10149TIP3   OH251861   2.968   1.351  16.663 -0.4075  0.1228  0.5443
10149TIP3    H151862   2.875   1.339  16.644 -0.3031  0.2281 -0.0462
10149TIP3    H251863   3.007   1.265  16.650 -0.3641  0.1565  0.4502
10150TIP3   OH251864   0.691   5.363   0.190 -0.5159  0.5025  0.6139
10150TIP3    H151865   0.759   5.362   0.257  1.1069  1.4340 -0.9422
10150TIP3    H251866   0.716   5.293   0.129 -0.6414  1.2234 -0.2740
10151TIP3   OH251867   0.337   2.374  10.917 -0.1055 -0.7898 -0.0323
10151TIP3    H151868   0.414   2.338  10.873  1.0860  1.0970  0.4166
10151TIP3    H251869   0.304   2.441  10.857 -1.0242 -1.1234  0.0806
10152TIP3   OH251870   2.880   2.401   4.432  0.2223  0.5853  0.4723
10152TIP3    H151871   2.806   2.349   4.401 -0.8202  3.0256 -1.4726
10152TIP3    H251872   2.874   2.397   4.527 -3.1283  1.4732  0.4228
10153TIP3   OH251873   5.039   4.169   5.465  0.2089  0.3073 -0.0977
10153TIP3    H151874   5.035   4.143   5.373 -2.4351  0.1077 -0.0116
10153TIP3    H251875   5.099   4.106   5.505 -0.7384 -1.3711 -1.1904
10154TIP3   OH251876   6.285   4.441   1.738  0.2391  0.3850  0.4034
10154TIP3    H151877   6.325   4.526   1.753  0.1443  0.4173  0.4736
10154TIP3    H251878   6.357   4.378   1.747  0.7137  0.5960 -1.5378
10155TIP3   OH251879   2.633   6.601  11.665  0.0769  0.1304  0.4263
10155TIP3    H151880   2.639   6.511  11.697 -1.4213  0.6897  2.4949
10155TIP3    H251881   2.540   6.613  11.644  0.3345  1.0728 -0.2721
10156TIP3   OH251882   0.416   1.947   0.145  0.4072  0.2879 -0.6928
10156TIP3    H151883   0.404   1.866   0.194 -0.4459  1.8461  1.8437
10156TIP3    H251884   0.493   1.931   0.090 -0.9149 -2.8655 -1.7992
10157TIP3   OH251885   6.139   0.147  11.794  0.0513 -0.0248 -0.3464
10157TIP3    H151886   6.138   0.136  11.890  1.0927 -0.6723 -0.3944
10157TIP3    H251887   6.217   0.198  11.776  0.1113 -0.2992 -0.8869
10158TIP3   OH251888   3.199   6.745   2.153  0.5509 -0.6326  0.3614
10158TIP3    H151889   3.136   6.704   2.094  0.7433 -0.1945 -0.1532
10158TIP3    H251890   3.207   6.835   2.121 -0.9370  0.2753  2.2960
10159TIP3   OH251891   5.197   2.553  12.869 -0.0548 -0.2730 -0.1372
10159TIP3    H151892   5.240   2.510  12.943  1.2331  0.8529 -0.2103
10159TIP3    H251893   5.179   2.642  12.900  0.9869  0.3766 -1.3298
10160TIP3   OH251894   5.646   4.335   3.635 -0.6700  0.0277  0.2933
10160TIP3    H151895   5.695   4.318   3.715 -0.0898  0.0931 -0.0442
10160TIP3    H251896   5.583   4.263   3.631 -1.2378  0.4525  1.2109
10161TIP3   OH251897   2.013   6.778   3.061  0.0283  0.0161 -0.2559
10161TIP3    H151898   2.021   6.704   3.001  0.2794  0.5854 -0.9485
10161TIP3    H251899   2.064   6.753   3.138 -0.0068 -0.5876 -0.4245
10162TIP3   OH251900   1.456   5.295   5.103  0.2413  0.2201  0.2486
10162TIP3    H151901   1.430   5.209   5.070  0.7062  0.3930 -0.5899
10162TIP3    H251902   1.492   5.278   5.190  2.1256 -0.7348 -0.6446
10163TIP3   OH251903   4.113   4.377  16.669  0.5045 -0.1660 -0.2779
10163TIP3    H151904   4.131   4.457  16.719  2.2307 -1.4387  1.2536
10163TIP3    H251905   4.060   4.324  16.728 -0.0766 -0.4513 -1.0420
10164TIP3   OH251906   4.007   1.638  13.338  0.0912 -0.2182  0.7821
10164TIP3    H151907   4.039   1.575  13.403 -0.3275 -0.9673  0.2739
10164TIP3    H251908   3.918   1.658  13.367  0.4883  0.7491  1.3767
10165TIP3   OH251909   1.888   3.634  14.800 -0.0251  0.7065  0.6904
10165TIP3    H151910   1.817   3.646  14.863 -0.3767  0.9381  0.2566
10165TIP3    H251911   1.889   3.715  14.749  1.8256  1.5354  1.9423
10166TIP3   OH251912   3.971   6.150   4.613  0.1655  0.6704  0.3682
10166TIP3    H151913   4.051   6.117   4.572  1.7548  2.3788  1.9132
10166TIP3    H251914   3.950   6.230   4.564 -0.6484  0.2248 -0.0393
10167TIP3   OH251915   6.334   1.887   5.905  0.0242  0.4941  0.3017
10167TIP3    H151916   6.246   1.860   5.929 -0.0364 -0.2860 -0.6840
10167TIP3    H251917   6.378   1.907   5.987  0.1322 -2.8878  1.2423
10168TIP3   OH251918   0.831   2.122   1.204 -0.5865 -0.3211 -0.1830
10168TIP3    H151919   0.835   2.190   1.137 -0.3484 -0.3226 -0.1701
10168TIP3    H251920   0.737   2.102   1.211 -0.5794 -0.5934 -0.7887
10169TIP3   OH251921   3.451   5.778  14.802  0.2318 -0.6860 -0.4153
10169TIP3    H151922   3.518   5.799  14.737  1.9312 -0.0384  1.4341
10169TIP3    H251923   3.498   5.778  14.885 -2.1439  0.1129  1.0164
10170TIP3   OH251924   3.567   0.282   1.148  0.7680 -0.1538  0.3948
10170TIP3    H151925   3.609   0.333   1.080  0.6133 -0.7499 -0.1582
10170TIP3    H251926   3.555   0.195   1.109  0.0379 -0.3024  0.9308
10171TIP3   OH251927   3.499   5.952  12.089  0.3424  0.1495  0.5828
10171TIP3    H151928   3.565   5.941  12.021  3.0812  2.0943  2.6708
10171TIP3    H251929   3.432   6.007  12.049  2.3218  2.0354 -0.3891
10172TIP3   OH251930   3.081   1.633   2.411  0.4274  0.8149 -0.0001
10172TIP3    H151931   3.103   1.695   2.341  0.2368  0.3062 -0.5154
10172TIP3    H251932   3.119   1.550   2.382 -1.5111  0.0795 -0.5572
10173TIP3   OH251933   2.439   1.958  14.253  0.1230 -0.5050 -0.1160
10173TIP3    H151934   2.512   1.979  14.194 -1.2317 -0.4305 -1.8407
10173TIP3    H251935   2.481   1.930  14.335  2.0583  2.0822 -0.1259
10174TIP3   OH251936   0.957   4.489   0.333  0.0445  0.3941 -0.0335
10174TIP3    H151937   0.989   4.481   0.423  0.5823  1.1153 -0.1483
10174TIP3    H251938   0.908   4.572   0.333  1.5457  1.3261 -0.8197
10175TIP3   OH251939   5.103   4.289   0.818 -0.0449  0.0038  0.1908
10175TIP3    H151940   5.074   4.345   0.746 -0.3581  1.7735  1.6241
10175TIP3    H251941   5.027   4.282   0.875  0.0504 -1.7653  0.1469
10176TIP3   OH251942   6.609   4.275   0.442  0.4526 -0.9264  0.4460
10176TIP3    H151943   6.651   4.215   0.381  0.9601  0.0113 -0.1393
10176TIP3    H251944   6.680   4.303   0.500  0.1752 -1.0420  0.8457
10177TIP3   OH251945   0.691   3.502   4.705 -0.2141  0.8613 -0.3135
10177TIP3    H151946   0.634   3.480   4.631 -2.1393 -0.1925  1.3639
10177TIP3    H251947   0.748   3.425   4.714 -2.2112 -0.5315  1.2383
10178TIP3   OH251948   5.712   4.192  12.545 -0.5406 -0.2752 -0.5000
10178TIP3    H151949   5.771   4.134  12.595  1.3501  1.2559 -0.8225
10178TIP3    H251950   5.680   4.255  12.610 -0.6219 -0.2085 -0.6052
10179TIP3   OH251951   5.376   1.732   2.283  0.0847 -0.0650  0.0804
10179TIP3    H151952   5.394   1.718   2.190  1.1472 -2.0293  0.5477
10179TIP3    H251953   5.280   1.733   2.288  0.0071 -0.5358 -0.9578
10180TIP3   OH251954   6.714   5.114   4.788  0.2373 -0.0379 -0.1865
10180TIP3    H151955   6.676   5.127   4.701  1.0479 -1.6685 -0.8227
10180TIP3    H251956   6.658   5.048   4.829 -1.0018  1.7310  1.1479
10181TIP3   OH251957   1.477   0.548  15.855 -0.0195 -0.1302 -0.6623
10181TIP3    H151958   1.423   0.622  15.882  0.6788 -0.0011  0.4168
10181TIP3    H251959   1.505   0.507  15.936  0.8140 -0.6962 -1.2138
10182TIP3   OH251960   0.484   4.418  11.066  0.2407 -0.3548  0.2805
10182TIP3    H151961   0.416   4.482  11.046 -0.7779 -0.1189  3.8174
10182TIP3    H251962   0.461   4.341  11.013 -0.7069  0.8699 -1.1753
10183TIP3   OH251963   3.860   5.430  15.146 -0.7172 -0.8626 -0.2711
10183TIP3    H151964   3.901   5.344  15.149 -0.6535 -0.8233  1.8990
10183TIP3    H251965   3.841   5.451  15.238 -0.1716  1.7075 -0.6588
10184TIP3   OH251966   3.662   2.272   0.240  0.0590 -0.1365  0.0311
10184TIP3    H151967   3.621   2.205   0.185  1.9061  0.1366 -1.8225
10184TIP3    H251968   3.734   2.226   0.284  1.7652  0.6300 -1.7647
10185TIP3   OH251969   6.064   3.545   1.880  0.0820 -0.0144  0.3443
10185TIP3    H151970   6.153   3.576   1.896 -0.4923  2.3503 -0.6008
10185TIP3    H251971   6.053   3.549   1.785 -0.4456 -2.1635  0.2617
10186TIP3   OH251972   0.697   5.872  11.888  0.1321 -0.1443  0.4050
10186TIP3    H151973   0.677   5.888  11.796 -0.0486  1.5578  0.7103
10186TIP3    H251974   0.769   5.810  11.886 -1.3872 -1.9926 -0.8263
10187TIP3   OH251975   1.831   0.342   5.729  0.4124 -0.5627 -0.2300
10187TIP3    H151976   1.759   0.383   5.777  0.6769  1.0809 -1.1334
10187TIP3    H251977   1.875   0.287   5.793 -1.5061 -1.4477  0.4001
10188TIP3   OH251978   2.158   1.546   2.307  0.0118 -0.2919 -0.5197
10188TIP3    H151979   2.184   1.467   2.354  0.5065 -0.5929 -1.2768
10188TIP3    H251980   2.152   1.614   2.375 -1.7709 -1.2671  0.3508
10189TIP3   OH251981   2.941   3.399  10.537 -0.2138  0.4750 -0.8304
10189TIP3    H151982   3.008   3.332  10.552 -1.4138 -0.8403 -1.1675
10189TIP3    H251983   2.960   3.431  10.449  0.3541  0.5727 -0.6782
10190TIP3   OH251984   1.795   4.376   0.011  0.5894  0.6761 -0.2973
10190TIP3    H151985   1.847   4.449  -0.022 -0.3586  1.6151  0.2231
10190TIP3    H251986   1.734   4.416   0.073  0.3022 -0.6149  0.2972
10191TIP3   OH251987   0.014   4.976  15.261  0.1809 -0.5224  0.0220
10191TIP3    H151988   0.017   4.944  15.351  1.3844  1.4710  0.7633
10191TIP3    H251989   0.032   5.070  15.268 -0.6280 -0.1230 -2.2266
10192TIP3   OH251990   1.741   1.483   1.234  0.5708  0.4314  0.0215
10192TIP3    H151991   1.697   1.429   1.300  0.0430  2.0861  1.0641
10192TIP3    H251992   1.702   1.570   1.243  0.6565  0.7843 -2.3280
10193TIP3   OH251993   1.619   3.675   5.208  0.0452 -0.2475 -0.5010
10193TIP3    H151994   1.547   3.704   5.151 -0.1882  0.0647 -0.0595
10193TIP3    H251995   1.575   3.633   5.282  0.3221 -0.1499 -0.2797
10194TIP3   OH251996   5.650   6.666   1.893  0.3667 -0.5922 -0.0037
10194TIP3    H151997   5.637   6.738   1.954 -0.0991 -0.7824  0.1235
10194TIP3    H251998   5.636   6.705   1.807  1.8366 -0.1312 -0.0565
10195TIP3   OH251999   3.571   0.528   0.466  0.1361  0.2868 -0.0124
10195TIP3    H152000   3.532   0.517   0.379 -1.5352 -1.1332  0.8779
10195TIP3    H252001   3.519   0.473   0.524 -0.7594  3.4765  2.5088
10196TIP3   OH252002   2.007   2.537   0.544  0.0272 -0.2557 -0.1899
10196TIP3    H152003   2.021   2.574   0.631 -2.1321  0.8162 -0.2413
10196TIP3    H252004   2.084   2.481   0.530  2.6170  2.8020  0.6230
10197TIP3   OH252005   3.334   0.632  11.929  0.5623 -0.2695 -0.6679
10197TIP3    H152006   3.291   0.560  11.883  1.1220 -0.8287 -0.3185
10197TIP3    H252007   3.412   0.593  11.969  0.2152  0.2466  0.5732
10198TIP3   OH252008   6.276   2.507  15.840  0.8032  0.2139 -0.3260
10198TIP3    H152009   6.236   2.582  15.884  1.9065  1.4764 -1.4051
10198TIP3    H252010   6.233   2.504  15.754 -0.8034 -1.7816  0.4593
10199TIP3   OH252011   2.704   0.847   5.000  0.0160 -0.3902 -0.0288
10199TIP3    H152012   2.740   0.886   4.921  0.3536 -2.2375 -0.8340
10199TIP3    H252013   2.757   0.883   5.071 -1.3724  2.6289 -0.3618
10200TIP3   OH252014   6.062   1.039  12.971 -0.4120 -0.6064 -0.3753
10200TIP3    H152015   6.034   0.987  12.895 -1.4113  0.4645 -0.7764
10200TIP3    H252016   5.980   1.063  13.014  0.1545 -1.5391  1.3021
10201TIP3   OH252017   4.324   2.850  11.136  0.1026 -0.0294 -0.2274
10201TIP3    H152018   4.398   2.804  11.096  0.2992 -0.4159  0.5688
10201TIP3    H252019   4.364   2.907  11.202  0.0327  2.4764 -2.1661
10202TIP3   OH252020   3.004   3.746  13.172 -0.0250 -0.3333  0.3551
10202TIP3    H152021   3.071   3.803  13.134 -0.3063  0.2414  0.7088
10202TIP3    H252022   2.997   3.673  13.110  1.1463 -0.5672  0.4743
10203TIP3   OH252023   4.138   0.404  12.202 -0.4886 -0.1638  0.0504
10203TIP3    H152024   4.194   0.449  12.265  0.5881  0.3085 -1.2083
10203TIP3    H252025   4.171   0.314  12.200 -1.5688 -0.6186  1.3273
10204TIP3   OH252026   2.359   1.330   4.115  0.3073 -0.5867  0.2548
10204TIP3    H152027   2.325   1.365   4.197 -0.5895 -0.8444  0.0055
10204TIP3    H252028   2.440   1.378   4.100  0.0787  0.0120  0.8918
10205TIP3   OH252029   6.070   3.376  17.130  1.1375  0.3313  0.2374
10205TIP3    H152030   6.025   3.453  17.164  1.6774  0.9834 -0.4967
10205TIP3    H252031   6.123   3.408  17.057  0.2159 -0.9842 -1.0872
10206TIP3   OH252032   0.500   5.468   4.920 -0.1704 -0.0173 -0.0901
10206TIP3    H152033   0.476   5.492   5.010 -0.2842  2.3294 -0.7033
10206TIP3    H252034   0.445   5.392   4.901 -2.2527  1.1504  0.8715
10207TIP3   OH252035   6.289   3.530  13.049 -0.2281 -0.1750 -0.1081
10207TIP3    H152036   6.369   3.555  13.002  0.9425 -2.9329  0.2209
10207TIP3    H252037   6.268   3.443  13.016 -1.6359 -0.5805  1.6822
10208TIP3   OH252038   2.127   5.629  16.777 -0.2848  0.4985 -0.1720
10208TIP3    H152039   2.219   5.612  16.797 -0.5207  0.5706  1.0499
10208TIP3    H252040   2.080   5.555  16.815 -0.6606 -0.0989 -1.7399
10209TIP3   OH252041   2.465   0.720   2.255 -0.2896  0.1202  0.1737
10209TIP3    H152042   2.474   0.726   2.160  1.1064  1.3701  0.3526
10209TIP3    H252043   2.431   0.806   2.281 -0.3772 -0.1130  0.8462
10210TIP3   OH252044   0.541   3.824   1.633  0.4193 -0.6962 -0.2340
10210TIP3    H152045   0.601   3.874   1.688  0.5763 -0.6556 -0.4417
10210TIP3    H252046   0.525   3.880   1.557 -2.2989  0.6550  1.1812
10211TIP3   OH252047   5.505   2.685  13.879  0.0683 -0.8791  0.4246
10211TIP3    H152048   5.465   2.679  13.792 -1.2761 -2.3574  1.0741
10211TIP3    H252049   5.598   2.697  13.862 -0.3496  0.5227 -1.1880
10212TIP3   OH252050   1.221   4.706  13.565  0.1472 -0.0461  0.1252
10212TIP3    H152051   1.151   4.684  13.503 -0.1051 -0.3233  0.5038
10212TIP3    H252052   1.207   4.798  13.586  0.3229  0.0891 -0.3417
10213TIP3   OH252053   0.142   4.892  10.373 -0.1756 -0.1854 -0.4774
10213TIP3    H152054   0.213   4.854  10.322  1.2992  0.9701  0.6375
10213TIP3    H252055   0.062   4.856  10.334  0.8885  0.2052 -3.2031
10214TIP3   OH252056   0.426   5.819   0.919 -0.3022 -0.1504 -0.2030
10214TIP3    H152057   0.428   5.786   1.009  1.0139 -3.0666 -1.1877
10214TIP3    H252058   0.334   5.809   0.893 -1.0987  2.3571  1.2477
10215TIP3   OH252059   4.695   3.558  16.728 -0.4566 -0.3195 -0.0120
10215TIP3    H152060   4.689   3.635  16.672 -1.0994 -0.8303 -0.6706
10215TIP3    H252061   4.781   3.564  16.770 -1.1121  1.5742  1.1739
10216TIP3   OH252062   4.203   4.799   2.588  0.1595 -0.2054  0.2791
10216TIP3    H152063   4.221   4.707   2.573 -1.7573 -0.8191  1.3859
10216TIP3    H252064   4.212   4.839   2.501  2.6552 -1.0603  0.0642
10217TIP3   OH252065   6.782   5.229  13.106 -0.5594 -0.1768 -0.2811
10217TIP3    H152066   6.854   5.280  13.070 -0.9943  0.1544 -0.6895
10217TIP3    H252067   6.728   5.293  13.153  0.7894 -0.7876  2.3522
10218TIP3   OH252068   0.594   3.616   0.427  0.2711 -0.1749  0.4720
10218TIP3    H152069   0.667   3.560   0.401 -0.0119 -0.0309 -0.6797
10218TIP3    H252070   0.547   3.564   0.492  1.3795 -0.2718  1.2390
10219TIP3   OH252071   3.559   3.771  11.195  0.1313 -0.0443  0.5264
10219TIP3    H152072   3.550   3.810  11.108 -2.6448  1.1187  1.2431
10219TIP3    H252073   3.588   3.681  11.178 -0.3720  0.1521 -1.6012
10220TIP3   OH252074   0.836   2.618  16.465 -0.0563  0.3122  0.3081
10220TIP3    H152075   0.858   2.701  16.508  1.4329 -0.1732  0.5430
10220TIP3    H252076   0.877   2.551  16.519 -1.2042 -0.5948  0.0958
10221TIP3   OH252077   4.563   4.128  11.942 -0.7091 -0.2907  0.2034
10221TIP3    H152078   4.631   4.158  11.882 -0.0130  0.6203  1.4021
10221TIP3    H252079   4.488   4.108  11.886  0.9020 -2.5797 -1.3035
10222TIP3   OH252080   3.423   5.364  14.983  0.3250 -0.0469 -0.6104
10222TIP3    H152081   3.506   5.390  14.942  0.5119  0.9877  0.3792
10222TIP3    H252082   3.445   5.288  15.036  0.2611 -0.8583 -1.7233
10223TIP3   OH252083   6.570   4.587  15.588 -0.6588 -0.1249  0.0812
10223TIP3    H152084   6.611   4.673  15.583 -1.4183  0.1670 -1.9131
10223TIP3    H252085   6.642   4.525  15.573 -0.2441  0.1780  0.7752
10224TIP3   OH252086   4.011   5.272  17.137  0.2674 -0.0566  0.2546
10224TIP3    H152087   3.973   5.190  17.167 -0.9259  0.7656  1.0663
10224TIP3    H252088   4.081   5.290  17.200  0.4569 -0.3785  0.1407
10225TIP3   OH252089   1.971   5.641   0.008  0.0235 -0.0843  0.5003
10225TIP3    H152090   1.963   5.547  -0.008  1.6567 -0.2146  0.3072
10225TIP3    H252091   2.062   5.662  -0.013 -0.7892  1.9252 -1.4141
10226TIP3   OH252092   5.728   2.650  11.295  0.7068  0.1083  0.1000
10226TIP3    H152093   5.737   2.741  11.265 -0.8978 -0.7177 -3.3596
10226TIP3    H252094   5.805   2.606  11.260  1.6634  0.1110  2.0718
10227TIP3   OH252095   5.619   1.801   2.721  0.4147 -0.0010  0.0940
10227TIP3    H152096   5.554   1.839   2.780 -0.3925 -0.8888 -0.2009
10227TIP3    H252097   5.572   1.733   2.673  0.6282  1.5993 -2.6298
10228TIP3   OH252098   4.504   0.595   0.906 -0.2214 -0.4882 -0.1846
10228TIP3    H152099   4.566   0.667   0.918 -1.4399  0.3208  1.6985
10228TIP3    H252100   4.442   0.627   0.840  0.3608 -0.6202 -0.8051
10229TIP3   OH252101   5.689   0.368   6.236 -0.3999 -0.6457  0.1813
10229TIP3    H152102   5.695   0.340   6.145 -0.5021 -1.4034  0.4036
10229TIP3    H252103   5.597   0.387   6.250 -0.2055  0.6724 -0.2153
10230TIP3   OH252104   4.986   1.250  17.027  0.6924 -0.2309  0.0375
10230TIP3    H152105   5.080   1.268  17.034  0.7878  0.6425 -2.4632
10230TIP3    H252106   4.976   1.206  16.943 -1.2391  0.4360 -0.1309
10231TIP3   OH252107   1.981   2.941  16.917 -0.2940  0.4776  0.1183
10231TIP3    H152108   1.900   2.897  16.892  0.3150 -0.6488  0.0528
10231TIP3    H252109   2.050   2.893  16.870  0.3663  1.8267 -0.3591
10232TIP3   OH252110   6.588   4.795   2.538  0.0466 -0.1665 -0.1262
10232TIP3    H152111   6.550   4.841   2.613  0.7453 -0.4776  0.4304
10232TIP3    H252112   6.528   4.814   2.466  0.5434  2.0257 -0.0492
10233TIP3   OH252113   5.966   3.291  12.075 -0.8105  0.3493 -0.3531
10233TIP3    H152114   5.888   3.239  12.053 -2.7396  2.5583  0.7720
10233TIP3    H252115   5.931   3.377  12.100  2.1419  1.9389 -1.2720
10234TIP3   OH252116   4.370   1.440   3.527  0.1846  0.3608  0.2916
10234TIP3    H152117   4.363   1.523   3.575  0.3087  0.3032  0.4096
10234TIP3    H252118   4.464   1.428   3.512  0.1111  0.6721 -0.4831
10235TIP3   OH252119   1.685   0.215  12.069 -0.1803  0.5875  0.3848
10235TIP3    H152120   1.688   0.191  12.162 -1.3944  0.4492  0.4147
10235TIP3    H252121   1.594   0.242  12.055  0.1818  1.3823 -0.5844
10236TIP3   OH252122   3.459   2.800  12.371 -0.7268 -0.7777  0.1927
10236TIP3    H152123   3.483   2.735  12.437 -0.4037 -1.9897 -1.0754
10236TIP3    H252124   3.418   2.749  12.301 -0.9961  0.4659 -0.5745
10237TIP3   OH252125   5.452   1.640  12.155  0.1625 -0.3521 -0.4522
10237TIP3    H152126   5.404   1.588  12.220  1.3666 -0.8437  0.0671
10237TIP3    H252127   5.399   1.634  12.076 -1.2259  0.0735  0.3958
10238TIP3   OH252128   2.356   1.848  15.868 -0.8396  0.0902 -0.4677
10238TIP3    H152129   2.316   1.833  15.954 -0.0738 -1.8234 -0.3929
10238TIP3    H252130   2.286   1.883  15.815 -2.2708 -1.8272  0.0541
10239TIP3   OH252131   3.308   3.601   1.541  0.6100 -0.3584 -0.4233
10239TIP3    H152132   3.337   3.686   1.575  0.3151 -1.2704  2.3295
10239TIP3    H252133   3.379   3.541   1.562  0.5539 -0.9500 -1.8095
10240TIP3   OH252134   5.633   6.517   1.321  0.1702 -0.3305 -0.1226
10240TIP3    H152135   5.679   6.527   1.237  2.1844  0.8977  1.0551
10240TIP3    H252136   5.564   6.453   1.302  1.0852 -0.7450 -2.5006
10241TIP3   OH252137   3.644   3.623   1.836  0.2022 -0.0033  0.2856
10241TIP3    H152138   3.696   3.657   1.763  1.0355  1.1154  1.3525
10241TIP3    H252139   3.590   3.554   1.797  2.5190 -1.2848 -0.8620
10242TIP3   OH252140   3.067   5.280  15.473 -0.1569 -0.5629 -0.6979
10242TIP3    H152141   3.100   5.223  15.542  2.1417  0.1007 -1.1651
10242TIP3    H252142   3.104   5.366  15.492 -1.2022  0.1150 -1.5979
10243TIP3   OH252143   5.293   6.209   2.244  0.7339 -0.1605 -0.5076
10243TIP3    H152144   5.377   6.176   2.212  0.3792 -0.6837 -0.9119
10243TIP3    H252145   5.245   6.234   2.165 -0.8112 -3.0065 -0.6088
10244TIP3   OH252146   0.358   0.317  11.299 -0.0330  0.4232  0.1630
10244TIP3    H152147   0.343   0.253  11.370 -0.7006  1.4553  0.9845
10244TIP3    H252148   0.452   0.335  11.302 -0.0843  0.6029  0.9337
10245TIP3   OH252149   6.162   5.760   2.355  0.1683 -0.2356 -0.0639
10245TIP3    H152150   6.086   5.732   2.407  1.1407  0.0623  1.5669
10245TIP3    H252151   6.166   5.854   2.367  1.4101 -0.3739  0.7543
10246TIP3   OH252152   3.811   2.961   0.013 -0.0823 -0.2786 -0.1262
10246TIP3    H152153   3.862   2.882  -0.001  0.7624  0.2817 -0.2588
10246TIP3    H252154   3.870   3.021   0.058 -0.4107  0.6069 -0.8311
10247TIP3   OH252155   6.140   4.707   3.012  0.2680 -0.1644  0.3879
10247TIP3    H152156   6.045   4.714   3.021  0.0309 -1.7259 -0.6504
10247TIP3    H252157   6.160   4.756   2.933  0.3602  0.2512  0.6623
10248TIP3   OH252158   6.717   4.610   5.529 -0.6759 -0.0446 -0.3470
10248TIP3    H152159   6.712   4.657   5.446  0.7516 -0.8239 -0.9021
10248TIP3    H252160   6.795   4.645   5.572 -0.4195 -0.8754 -0.1184
10249TIP3   OH252161   2.163   4.514  11.660  0.0813 -0.1600  0.1923
10249TIP3    H152162   2.224   4.567  11.609 -1.6903  2.8035  0.9058
10249TIP3    H252163   2.082   4.565  11.663 -1.3007 -2.2041  2.3207
10250TIP3   OH252164   3.327   6.497   2.090  0.4483  0.1304 -0.2948
10250TIP3    H152165   3.278   6.561   2.142 -1.0025 -1.6665  0.6959
10250TIP3    H252166   3.270   6.477   2.016  1.8943  1.6151 -1.9069
10251TIP3   OH252167   2.963   1.617  14.932 -0.6299  0.4499 -0.5864
10251TIP3    H152168   3.057   1.602  14.940 -0.8061 -0.9296 -0.8349
10251TIP3    H252169   2.954   1.679  14.859  0.1295  1.5945  0.2473
10252TIP3   OH252170   0.232   0.137  12.406  0.4168  0.3624  0.0838
10252TIP3    H152171   0.292   0.191  12.456 -0.7194  2.2737 -0.5078
10252TIP3    H252172   0.151   0.136  12.458  0.5802 -1.2888  0.3657
10253TIP3   OH252173   5.280   4.900  15.553  0.1645  0.5927  0.0453
10253TIP3    H152174   5.337   4.932  15.623  0.8711 -1.3515  0.4199
10253TIP3    H252175   5.191   4.912  15.587  0.4108  1.4903  0.4176
10254TIP3   OH252176   1.903   5.158   0.952 -0.1010  0.9820 -0.2452
10254TIP3    H152177   1.894   5.249   0.924 -0.3290  0.6341 -1.3477
10254TIP3    H252178   1.821   5.138   0.996 -0.4886  0.9842 -0.9652
10255TIP3   OH252179   5.744   6.039   3.615  0.2782 -0.3286  0.0100
10255TIP3    H152180   5.666   5.999   3.654  1.4134 -1.0542  1.6253
10255TIP3    H252181   5.741   6.013   3.523 -1.2183 -0.6031  0.1157
10256TIP3   OH252182   6.620   5.028   3.096  0.1182  0.6657  0.8696
10256TIP3    H152183   6.684   5.060   3.159 -0.3034 -0.2025  1.7682
10256TIP3    H252184   6.538   5.070   3.122  0.3942  2.2891 -0.6734
10257TIP3   OH252185   6.713   2.301  12.297  0.4394 -0.2189 -0.0994
10257TIP3    H152186   6.733   2.299  12.391 -1.5433  0.9537  0.3989
10257TIP3    H252187   6.758   2.379  12.265  1.5756 -0.9241 -0.2646
10258TIP3   OH252188   0.179   2.775   1.359 -0.5054  0.4959 -0.7919
10258TIP3    H152189   0.223   2.796   1.441  1.0243  0.3186 -1.5353
10258TIP3    H252190   0.163   2.680   1.364  0.5972  0.2809 -1.1535
10259TIP3   OH252191   2.911   6.766   0.538 -0.1960 -0.0296 -0.4455
10259TIP3    H152192   2.935   6.808   0.455  0.3630 -0.6871 -0.6275
10259TIP3    H252193   2.948   6.678   0.532 -1.8020 -0.7477 -0.2992
10260TIP3   OH252194   3.736   5.746   4.106 -0.0667 -0.1303  0.2590
10260TIP3    H152195   3.658   5.706   4.067 -0.6124  1.7085 -0.6387
10260TIP3    H252196   3.806   5.731   4.042 -0.2414  0.2213 -0.0169
10261TIP3   OH252197   2.495   2.398   0.496 -0.3255 -0.6384 -0.1657
10261TIP3    H152198   2.555   2.429   0.564  1.0329 -1.4829 -0.9333
10261TIP3    H252199   2.429   2.467   0.489  0.4880  0.2650  0.7995
10262TIP3   OH252200   2.822   6.758  16.524 -0.1668 -0.3248 -0.1420
10262TIP3    H152201   2.786   6.744  16.612 -0.3518 -1.2204 -0.3586
10262TIP3    H252202   2.776   6.836  16.492  0.9978  0.9487  1.1342
10263TIP3   OH252203   1.417   6.707  12.748 -0.1392  0.4063 -0.1357
10263TIP3    H152204   1.326   6.729  12.767 -0.3807 -1.9234  1.8568
10263TIP3    H252205   1.440   6.640  12.812  3.0480  0.9824 -0.5010
10264TIP3   OH252206   0.947   0.356  12.467  0.0435 -0.0721  0.6558
10264TIP3    H152207   0.886   0.398  12.529 -1.9303 -0.1621 -1.1042
10264TIP3    H252208   0.893   0.294  12.418  2.5003 -3.6231  2.0044
10265TIP3   OH252209   6.190   3.118   3.985 -0.2144  0.5539  0.2415
10265TIP3    H152210   6.269   3.120   4.039 -0.4169  2.3966  0.5583
10265TIP3    H252211   6.135   3.188   4.021 -0.6074  1.4712 -1.9510
10266TIP3   OH252212   1.081   4.291   2.932  0.3410  0.2351 -0.1756
10266TIP3    H152213   1.145   4.224   2.955 -0.0707 -0.6681 -1.5174
10266TIP3    H252214   1.107   4.321   2.845 -0.3887  0.6887 -0.2519
10267TIP3   OH252215   5.603   2.409  17.158 -0.4033  0.2061 -0.2733
10267TIP3    H152216   5.564   2.460  17.086 -1.3078  1.8612  1.3029
10267TIP3    H252217   5.696   2.426  17.151 -0.4985  0.5018 -0.9301
10268TIP3   OH252218   1.682   5.021  14.504 -0.3920  0.5319  0.1043
10268TIP3    H152219   1.756   5.024  14.444 -1.3014 -0.8033 -1.1687
10268TIP3    H252220   1.699   5.090  14.568  1.2819  1.1078 -0.9137
10269TIP3   OH252221   3.900   6.423  12.332 -0.5762  0.2689  0.0103
10269TIP3    H152222   3.866   6.349  12.280  1.1190 -1.7812  1.6119
10269TIP3    H252223   3.855   6.416  12.416 -0.1733  0.8578  0.2792
10270TIP3   OH252224   2.537   0.757   5.958 -0.2166 -0.4242 -0.3414
10270TIP3    H152225   2.476   0.755   6.032 -1.8393 -0.3950 -1.6332
10270TIP3    H252226   2.568   0.847   5.955 -0.7702 -0.2262 -0.1864
10271TIP3   OH252227   1.853   1.627   0.794 -0.3707 -0.1999  0.2646
10271TIP3    H152228   1.922   1.584   0.845 -0.2182 -1.0244 -0.5942
10271TIP3    H252229   1.773   1.581   0.818 -0.1572 -1.2688 -0.9126
10272TIP3   OH252230   4.262   0.109   2.776 -0.2286  0.5487 -0.4118
10272TIP3    H152231   4.265   0.117   2.681 -1.3695 -3.1263 -0.9142
10272TIP3    H252232   4.338   0.055   2.798 -1.6718 -1.3447  0.2386
10273TIP3   OH252233   4.104   4.626  11.705  0.1807 -0.2853  0.2051
10273TIP3    H152234   4.112   4.714  11.668 -0.3039 -0.0948  0.5381
10273TIP3    H252235   4.083   4.641  11.797 -3.6764 -0.6544 -0.4564
10274TIP3   OH252236   5.567   0.136   3.907  0.1039 -0.1012 -1.1119
10274TIP3    H152237   5.609   0.211   3.864  1.7592  0.0190  0.6356
10274TIP3    H252238   5.546   0.167   3.995 -0.3922 -1.3075 -0.7844
10275TIP3   OH252239   6.506   0.662  14.803  0.4674 -0.1966  0.0094
10275TIP3    H152240   6.537   0.722  14.736 -1.2186 -0.0461 -0.6709
10275TIP3    H252241   6.507   0.576  14.760 -0.6987 -0.0866 -0.2677
10276TIP3   OH252242   5.977   0.987  11.545  0.8509 -0.2101 -0.2629
10276TIP3    H152243   6.027   1.051  11.493  0.3814 -0.6424 -1.2846
10276TIP3    H252244   6.033   0.910  11.547  0.8303 -0.2231 -0.2087
10277TIP3   OH252245   2.257   2.544   3.511  0.2450  0.2144  0.4360
10277TIP3    H152246   2.270   2.638   3.499  2.9068 -0.2462 -1.2880
10277TIP3    H252247   2.217   2.515   3.429  1.2716 -0.4047  0.1371
10278TIP3   OH252248   5.534   2.040   5.385 -0.5168  0.0688 -0.3362
10278TIP3    H152249   5.490   2.000   5.459 -2.2789  1.6232 -0.4712
10278TIP3    H252250   5.617   2.073   5.421 -0.1445 -1.4695  0.2969
10279TIP3   OH252251   6.676   2.412   3.281  0.0444 -0.0581 -0.2020
10279TIP3    H152252   6.713   2.499   3.266  0.3230 -0.1417 -0.0252
10279TIP3    H252253   6.749   2.363   3.320 -0.4277 -0.0625  0.6957
10280TIP3   OH252254   3.954   0.205  16.563 -0.0748  0.3690  0.6016
10280TIP3    H152255   3.946   0.202  16.468 -0.4957  0.6868  0.6226
10280TIP3    H252256   4.039   0.246  16.579  0.6616 -1.0079  0.3672
10281TIP3   OH252257   2.631   2.127  16.975  0.2863  0.0133 -0.1633
10281TIP3    H152258   2.571   2.164  17.040  0.3623  0.6462 -0.4485
10281TIP3    H252259   2.576   2.111  16.898  0.1699 -0.8576  0.0931
10282TIP3   OH252260   5.869   0.426  12.332 -0.3314 -0.4440 -0.1998
10282TIP3    H152261   5.953   0.454  12.368  0.5582 -1.9939 -1.0116
10282TIP3    H252262   5.809   0.498  12.353  0.4997 -0.5103  2.8812
10283TIP3   OH252263   1.948   4.682   1.840  0.0183 -0.5619 -0.4009
10283TIP3    H152264   2.036   4.702   1.872 -0.7046  1.0937  0.6729
10283TIP3    H252265   1.958   4.674   1.745  1.2217  0.2905 -0.3644
10284TIP3   OH252266   1.543   1.807  11.232 -0.0243 -0.0471 -0.0059
10284TIP3    H152267   1.626   1.760  11.232  0.0284  0.0317  0.8084
10284TIP3    H252268   1.564   1.893  11.269 -0.0903  0.6892 -1.6289
10285TIP3   OH252269   5.014   3.135   0.816  0.1760 -0.5510  0.4689
10285TIP3    H152270   5.003   3.141   0.721 -0.9953  2.0899  0.6759
10285TIP3    H252271   4.954   3.202   0.850  0.4583 -1.5532  3.0838
10286TIP3   OH252272   1.657   1.855  13.820  0.0837 -0.3626  0.1619
10286TIP3    H152273   1.607   1.774  13.814 -0.3700 -0.0033 -1.6981
10286TIP3    H252274   1.597   1.922  13.786  1.1751  0.3747 -0.3743
10287TIP3   OH252275   3.242   3.692  11.255  0.2924  0.2688  0.2979
10287TIP3    H152276   3.255   3.602  11.223  0.3967  0.6165 -0.6652
10287TIP3    H252277   3.330   3.728  11.261  0.1377  1.1696 -1.9312
10288TIP3   OH252278   1.090   2.206  13.139  0.2514 -0.1166  0.3540
10288TIP3    H152279   1.042   2.220  13.220 -1.1762  0.4042 -0.5372
10288TIP3    H252280   1.109   2.112  13.138  0.0061 -0.1770  1.1404
10289TIP3   OH252281   5.364   4.165  16.125 -0.9795  0.0600  0.9686
10289TIP3    H152282   5.443   4.202  16.086 -2.1346  0.9143 -0.6555
10289TIP3    H252283   5.340   4.226  16.194  0.6855 -1.0969  2.6636
10290TIP3   OH252284   1.057   5.489   0.919 -0.4510 -0.2056 -0.0405
10290TIP3    H152285   0.974   5.483   0.872  0.0886  0.1182 -1.0566
10290TIP3    H252286   1.071   5.401   0.955 -1.2172 -0.2661  0.1414
10291TIP3   OH252287   1.176   4.632  16.929  0.3630 -0.3034 -0.2408
10291TIP3    H152288   1.249   4.648  16.870 -0.5122 -0.1170 -1.3020
10291TIP3    H252289   1.161   4.715  16.973 -0.5778  0.2834 -1.6151
10292TIP3   OH252290   5.855   3.985  12.400  0.2606  0.2940  0.2162
10292TIP3    H152291   5.938   3.958  12.438  0.2978 -1.0942 -0.7831
10292TIP3    H252292   5.789   3.933  12.446  0.2888 -1.2437 -1.3762
10293TIP3   OH252293   5.871   2.875  15.831  0.0380 -0.1142  0.3853
10293TIP3    H152294   5.860   2.936  15.904  1.7003  0.3611  0.2836
10293TIP3    H252295   5.902   2.930  15.759 -3.0632 -0.2829 -1.2551
10294TIP3   OH252296   5.148   5.858   2.704 -0.0348  0.4279  0.3037
10294TIP3    H152297   5.148   5.935   2.760  0.3036  0.6578 -0.0084
10294TIP3    H252298   5.200   5.883   2.628  0.2887 -0.1915  0.3131
10295TIP3   OH252299   6.722   0.378  10.404 -0.4124 -0.1930 -0.5401
10295TIP3    H152300   6.774   0.456  10.386  0.3060 -0.5934 -0.2598
10295TIP3    H252301   6.631   0.404  10.387 -0.4038  1.2664  1.3595
10296TIP3   OH252302   1.558   3.603  15.623 -0.2504  0.2032  0.1221
10296TIP3    H152303   1.549   3.576  15.532 -1.1439 -1.1411  0.5723
10296TIP3    H252304   1.589   3.693  15.619  0.8713 -0.2194 -1.4916
10297TIP3   OH252305   4.696   2.674  13.490 -0.0529  0.2268 -0.1957
10297TIP3    H152306   4.706   2.765  13.521 -0.0380  0.3386 -0.5282
10297TIP3    H252307   4.786   2.643  13.480 -0.0505 -0.0833  0.6583
10298TIP3   OH252308   3.639   0.530   3.304  0.5310 -0.5686  0.5989
10298TIP3    H152309   3.550   0.527   3.338 -0.0505 -0.1813 -0.8183
10298TIP3    H252310   3.637   0.474   3.227  1.5328 -0.5806  0.5698
10299TIP3   OH252311   2.578   3.907  13.299 -0.2041 -0.0517  0.0143
10299TIP3    H152312   2.562   3.886  13.391 -0.2627  0.7184  0.1864
10299TIP3    H252313   2.502   3.958  13.272  0.8100  1.6284  0.1858
10300TIP3   OH252314   2.948   2.940  13.647 -0.2563 -0.3403 -0.0062
10300TIP3    H152315   2.986   2.928  13.734 -0.6747  0.0556  0.2346
10300TIP3    H252316   2.867   2.889  13.649 -0.3288 -0.2308 -0.1229
10301TIP3   OH252317   2.386   2.968  12.453 -0.1625 -0.2260  0.4491
10301TIP3    H152318   2.432   2.888  12.478 -0.6561  0.0294  2.4166
10301TIP3    H252319   2.296   2.941  12.437 -0.7887  0.0767  2.9118
10302TIP3   OH252320   1.535   0.974   2.307  0.4865  0.0836  0.0564
10302TIP3    H152321   1.534   0.982   2.212  0.5913 -0.8895 -0.0321
10302TIP3    H252322   1.447   0.945   2.330  0.5865 -0.1046  0.2114
10303TIP3   OH252323   1.326   6.400  16.321 -0.1702  0.1992 -0.1824
10303TIP3    H152324   1.326   6.339  16.395  1.5205 -1.0911 -1.1784
10303TIP3    H252325   1.243   6.384  16.276 -1.3570  1.2054  1.5293
10304TIP3   OH252326   6.406   2.854   5.838  0.3655  0.3855 -0.0698
10304TIP3    H152327   6.490   2.831   5.877 -0.1077 -0.4911  0.4607
10304TIP3    H252328   6.376   2.930   5.888 -0.6465 -1.2404  1.9542
10305TIP3   OH252329   1.770   5.994   5.385 -0.0304  0.0939  0.0625
10305TIP3    H152330   1.695   5.943   5.416  0.0236 -0.3690 -0.5613
10305TIP3    H252331   1.835   5.928   5.359  0.9819  0.4791  1.4929
10306TIP3   OH252332   0.523   5.781  16.485  0.4111 -0.1599 -0.2105
10306TIP3    H152333   0.532   5.840  16.560 -0.8796  0.6234 -0.6431
10306TIP3    H252334   0.527   5.693  16.523 -0.8637  0.2207  0.8810
10307TIP3   OH252335   3.962   6.773  13.048  0.1718 -0.0442 -0.2807
10307TIP3    H152336   4.022   6.808  12.981  0.3765  0.2188  0.0411
10307TIP3    H252337   3.968   6.678  13.036  0.6151 -0.0206 -0.2871
10308TIP3   OH252338   2.694   5.604   4.407 -0.4364 -0.4112 -1.0792
10308TIP3    H152339   2.618   5.653   4.439  1.4435  0.7576  2.0634
10308TIP3    H252340   2.741   5.666   4.352  0.2063  0.2307  0.1609
10309TIP3   OH252341   0.955   0.317  12.863  0.1920  0.3873 -0.3980
10309TIP3    H152342   0.898   0.272  12.926  0.9370 -0.7583 -0.5108
10309TIP3    H252343   0.936   0.410  12.875 -0.2801  0.1329  0.9220
10310TIP3   OH252344   6.474   2.042  16.097  0.3486  0.0920 -0.4213
10310TIP3    H152345   6.485   2.137  16.095 -1.2873  0.3116 -2.4155
10310TIP3    H252346   6.562   2.008  16.116  1.2746  1.9566 -1.1138
10311TIP3   OH252347   4.640   6.729  11.275 -0.8597  0.0034 -0.5134
10311TIP3    H152348   4.686   6.660  11.323  2.0145  2.5564  0.6818
10311TIP3    H252349   4.599   6.683  11.201  2.7041 -2.6880 -1.0767
10312TIP3   OH252350   2.177   6.321   1.056  0.3767 -0.1145 -0.3618
10312TIP3    H152351   2.170   6.322   0.961  1.3449 -2.0536 -0.5096
10312TIP3    H252352   2.087   6.323   1.087  0.0613  1.0513 -1.2809
10313TIP3   OH252353   1.411   0.201  10.646 -0.4867  0.4502  0.1216
10313TIP3    H152354   1.406   0.291  10.679 -0.9583  1.4529 -2.4168
10313TIP3    H252355   1.342   0.155  10.693 -1.8099  2.0341 -0.1527
10314TIP3   OH252356   6.647   0.587  14.133  0.0158  0.4892 -0.5784
10314TIP3    H152357   6.696   0.632  14.065 -1.4400  0.6854 -1.5587
10314TIP3    H252358   6.557   0.618  14.121 -0.4268 -0.1775  0.8588
10315TIP3   OH252359   2.444   4.372  13.631 -0.0982  0.0587 -0.1457
10315TIP3    H152360   2.491   4.428  13.570 -0.6221  0.4253 -0.2193
10315TIP3    H252361   2.387   4.318  13.576 -0.0686 -0.0912 -0.0306
10316TIP3   OH252362   4.670   3.400   3.861 -0.0281 -0.3487 -0.5649
10316TIP3    H152363   4.687   3.415   3.954 -1.0628 -1.8657 -0.0818
10316TIP3    H252364   4.755   3.408   3.819  1.2993 -3.6994  1.1312
10317TIP3   OH252365   1.022   5.467  16.505 -0.3771 -0.3813  0.6691
10317TIP3    H152366   0.987   5.551  16.536 -0.1892  0.0560 -0.2553
10317TIP3    H252367   1.099   5.452  16.560 -0.9792 -0.4501  1.5077
10318TIP3   OH252368   2.445   5.856   1.597  0.7391  0.4295 -0.1859
10318TIP3    H152369   2.478   5.896   1.516  1.5980 -0.5078 -0.3198
10318TIP3    H252370   2.516   5.799   1.626  1.2299  2.1545  2.2906
10319TIP3   OH252371   1.669   4.855   1.401 -0.3098  0.4639  0.4007
10319TIP3    H152372   1.750   4.833   1.448 -0.5294  2.1579  1.6967
10319TIP3    H252373   1.682   4.821   1.313  1.5670  0.1350  0.7578
10320TIP3   OH252374   5.916   3.189   5.857  0.3508 -0.0067  0.2891
10320TIP3    H152375   5.964   3.154   5.932  1.7661 -0.8559 -0.9506
10320TIP3    H252376   5.845   3.127   5.843  0.8379 -0.5534  0.1787
10321TIP3   OH252377   0.427   0.470  13.927 -0.2825  0.7041  0.8040
10321TIP3    H152378   0.400   0.414  13.999  1.9360  1.4061  2.2686
10321TIP3    H252379   0.494   0.528  13.964  0.0684  1.9363 -1.5152
10322TIP3   OH252380   4.353   5.361  15.002  0.0956 -0.3371 -0.2698
10322TIP3    H152381   4.285   5.393  15.061  0.0134 -0.6535 -0.1922
10322TIP3    H252382   4.321   5.276  14.972  0.2799 -0.3175 -0.5302
10323TIP3   OH252383   5.222   0.024   5.351 -0.8186  0.2897 -0.2429
10323TIP3    H152384   5.201  -0.068   5.337 -0.8705  0.1640  0.6112
10323TIP3    H252385   5.147   0.071   5.315 -1.3177 -0.0560  0.3117
10324TIP3   OH252386   4.050   0.869   4.639  0.0025 -0.1722 -0.7880
10324TIP3    H152387   4.051   0.805   4.568 -0.4329  0.2870 -1.2136
10324TIP3    H252388   4.103   0.829   4.708 -1.9828 -1.9659 -0.1990
10325TIP3   OH252389   1.983   2.554  13.813  0.5026  0.7805 -0.7451
10325TIP3    H152390   1.913   2.618  13.823  0.1986  0.6642 -2.0564
10325TIP3    H252391   2.002   2.552  13.719 -2.3297 -3.9979 -1.5794
10326TIP3   OH252392   6.794   4.206   3.737 -0.5724  0.0286  0.4058
10326TIP3    H152393   6.819   4.115   3.750 -0.4756  0.0618  0.4601
10326TIP3    H252394   6.701   4.203   3.715 -0.6982 -0.0480  0.9230
10327TIP3   OH252395   4.608   2.251   3.549 -1.0981 -0.6420  0.8827
10327TIP3    H152396   4.591   2.253   3.643  1.9782 -1.5884  1.5891
10327TIP3    H252397   4.652   2.167   3.535  2.2820  1.1847 -0.5655
10328TIP3   OH252398   0.827   4.589   0.087  0.0839  0.8036  0.2842
10328TIP3    H152399   0.888   4.550   0.149  0.7446 -0.1734 -0.9311
10328TIP3    H252400   0.883   4.638   0.027 -0.3232  0.0284 -0.7521
10329TIP3   OH252401   4.345   3.347   2.901  0.1492 -0.1084 -0.5459
10329TIP3    H152402   4.393   3.317   2.823 -0.6501  0.6261 -1.3280
10329TIP3    H252403   4.255   3.358   2.872 -0.0750  0.6169  0.3687
10330TIP3   OH252404   0.926   1.588  14.863 -0.2727 -0.1528  0.0144
10330TIP3    H152405   0.869   1.567  14.789 -0.7935 -1.1280  0.6756
10330TIP3    H252406   0.882   1.661  14.908 -0.0095  0.3695 -0.5583
10331TIP3   OH252407   2.192   5.936  11.706  0.5605 -0.1376 -1.2163
10331TIP3    H152408   2.241   5.876  11.651  0.0147 -1.3755 -0.3885
10331TIP3    H252409   2.116   5.886  11.736 -0.8534  1.4883 -1.8774
10332TIP3   OH252410   1.995   3.928  14.533  0.0987  0.1322 -0.1424
10332TIP3    H152411   2.037   3.887  14.456  2.5907  3.6702 -0.9155
10332TIP3    H252412   2.065   3.932  14.598 -0.2935  2.2293  0.1979
10333TIP3   OH252413   3.445   6.441  14.010  0.9168 -0.5154 -0.0770
10333TIP3    H152414   3.479   6.437  14.099  0.8469  0.8098  0.0334
10333TIP3    H252415   3.359   6.483  14.019  2.0982  2.3674 -0.9975
10334TIP3   OH252416   5.369   2.252  17.028 -0.2056  0.3068 -1.0317
10334TIP3    H152417   5.430   2.197  16.980 -0.9149 -0.7477 -0.7574
10334TIP3    H252418   5.415   2.335  17.039  1.9950 -1.0491  0.8932
10335TIP3   OH252419   3.223   2.031  16.548  0.1821  0.0033  0.1065
10335TIP3    H152420   3.204   2.021  16.454  1.5864  0.3896 -0.2448
10335TIP3    H252421   3.307   2.077  16.550  0.0669  0.1718  1.5670
10336TIP3   OH252422   5.590   6.627  13.056 -0.1078 -0.2114  0.1953
10336TIP3    H152423   5.606   6.674  12.973  2.1234 -0.9093  0.1709
10336TIP3    H252424   5.550   6.544  13.029  1.3987 -0.8075 -0.3105
10337TIP3   OH252425   6.462   5.585  14.177 -0.7769 -0.2267  0.5854
10337TIP3    H152426   6.556   5.603  14.185 -0.5256 -2.1330  3.4461
10337TIP3    H252427   6.429   5.654  14.119  2.6166 -0.4929 -1.9681
10338TIP3   OH252428   5.532   6.580  12.204  0.2793  0.3004 -0.2983
10338TIP3    H152429   5.450   6.530  12.205  0.2303  0.3430  1.5012
10338TIP3    H252430   5.557   6.583  12.112 -0.9320 -1.0463 -0.7182
10339TIP3   OH252431   1.013   1.688  13.164  0.5007  0.3304 -0.1569
10339TIP3    H152432   1.062   1.606  13.161  1.4804  0.9001 -1.9943
10339TIP3    H252433   1.013   1.713  13.256 -0.6932 -2.1893  0.6126
10340TIP3   OH252434   1.358   0.140  12.341  0.2051 -0.4102 -0.5315
10340TIP3    H152435   1.362   0.172  12.431  1.2359 -0.8432 -0.4070
10340TIP3    H252436   1.324   0.214  12.291  1.8785  0.6898 -0.1427
10341TIP3   OH252437   4.722   5.278  11.255 -0.1739  0.0184 -0.9145
10341TIP3    H152438   4.639   5.249  11.217  0.7507 -0.9246 -2.2629
10341TIP3    H252439   4.700   5.361  11.299 -1.9388 -0.5130 -0.7223
10342TIP3   OH252440   1.351   3.318  15.337  0.3610 -0.0176  0.3194
10342TIP3    H152441   1.406   3.395  15.317 -0.4500  1.8163  4.2405
10342TIP3    H252442   1.320   3.333  15.426 -3.9592 -2.5399 -0.4876
10343TIP3   OH252443   5.445   2.653  16.615  0.4494  0.1499  0.4018
10343TIP3    H152444   5.498   2.728  16.587 -0.0303  0.1377 -0.5537
10343TIP3    H252445   5.378   2.692  16.672 -0.4464  0.6163 -0.9314
10344TIP3   OH252446   6.379   0.331   0.530 -0.3612 -0.5942 -0.0268
10344TIP3    H152447   6.345   0.397   0.470 -0.6326  0.6237  1.4088
10344TIP3    H252448   6.319   0.257   0.521 -1.5933  0.3452  0.2018
10345TIP3   OH252449   4.476   0.696  14.239 -0.0382 -0.7640  0.2018
10345TIP3    H152450   4.495   0.790  14.238  1.7898 -1.0984  0.8486
10345TIP3    H252451   4.438   0.678  14.153  1.2313  0.2641 -0.5983
10346TIP3   OH252452   2.621   1.181  14.758 -0.1111 -0.2191  0.2243
10346TIP3    H152453   2.603   1.196  14.851 -1.8676 -1.1386  0.0641
10346TIP3    H252454   2.714   1.160  14.755 -0.0529 -0.2929  1.7900
10347TIP3   OH252455   1.093   5.836  16.627  0.0295  0.5680  0.0443
10347TIP3    H152456   1.076   5.917  16.675  0.9439  1.1239 -0.5419
10347TIP3    H252457   1.139   5.780  16.689 -0.2919  0.6295  0.3418
10348TIP3   OH252458   3.850   5.615  13.491  0.1007  0.0533 -0.4407
10348TIP3    H152459   3.763   5.641  13.522  0.5426  0.2628  0.6714
10348TIP3    H252460   3.839   5.524  13.464 -0.1641 -0.4066  1.0868
10349TIP3   OH252461   5.232   0.529  14.960  0.6970 -0.5699 -0.4247
10349TIP3    H152462   5.274   0.475  14.893 -0.5313 -0.9708 -0.8916
10349TIP3    H252463   5.169   0.470  15.002 -0.3777  0.3776 -0.6699
10350TIP3   OH252464   6.325   2.533   2.005 -0.3704 -0.4656 -0.0472
10350TIP3    H152465   6.295   2.518   2.095 -0.7571 -0.4694 -0.1749
10350TIP3    H252466   6.273   2.608   1.975  0.9065  0.6000  0.2855
10351TIP3   OH252467   3.624   1.381  12.033 -0.0644 -0.1267 -0.2771
10351TIP3    H152468   3.592   1.467  12.007 -0.7116 -0.0159  0.8059
10351TIP3    H252469   3.699   1.400  12.090  0.1020 -0.2992 -0.4375
10352TIP3   OH252470   6.700   6.637   3.750  0.6063  0.2793 -0.8667
10352TIP3    H152471   6.694   6.637   3.655  0.3177 -2.6844 -0.9373
10352TIP3    H252472   6.716   6.546   3.773  0.2476  0.8431  1.9679
10353TIP3   OH252473   3.067   4.356   2.411 -0.1176 -0.2653  0.1219
10353TIP3    H152474   3.027   4.318   2.333 -1.1004  0.2820  0.3350
10353TIP3    H252475   3.018   4.437   2.426 -0.0870 -0.4513  1.4084
10354TIP3   OH252476   1.600   2.411  11.466 -0.4359 -0.2880 -0.2869
10354TIP3    H152477   1.535   2.370  11.408 -0.7267 -0.5033  0.1922
10354TIP3    H252478   1.639   2.338  11.514 -1.6153  0.0482  1.2551
10355TIP3   OH252479   0.683   2.362  12.961  0.3313 -0.7592 -0.1435
10355TIP3    H152480   0.631   2.436  12.993  0.7771 -0.3147 -0.4392
10355TIP3    H252481   0.648   2.343  12.874  0.5860 -0.5295 -0.2986
10356TIP3   OH252482   6.356   0.929   4.474 -0.4807  0.1851 -0.1743
10356TIP3    H152483   6.318   0.883   4.549 -0.2088 -0.0489 -0.1780
10356TIP3    H252484   6.444   0.892   4.464 -0.1108  0.9753  0.0580
10357TIP3   OH252485   4.559   1.280   2.158  0.2236  0.4108  0.0287
10357TIP3    H152486   4.638   1.321   2.121 -0.3675  1.3265 -0.2655
10357TIP3    H252487   4.525   1.345   2.219 -0.5044  0.1880 -0.1306
10358TIP3   OH252488   1.858   5.175  13.083 -0.0709  0.0236  0.5547
10358TIP3    H152489   1.870   5.092  13.130  0.0489 -0.7416 -0.7741
10358TIP3    H252490   1.781   5.215  13.123 -0.2852 -0.8583  1.0418
10359TIP3   OH252491   3.999   5.449   3.502  0.2685  0.3101  0.5514
10359TIP3    H152492   3.904   5.446   3.512  0.4445 -0.2741  2.4175
10359TIP3    H252493   4.014   5.425   3.411 -1.3360 -0.5442  0.4724
10360TIP3   OH252494   2.636   4.914   4.155  0.1514 -0.0557  0.7901
10360TIP3    H152495   2.602   4.961   4.078  0.2105 -1.3060 -0.0298
10360TIP3    H252496   2.620   4.973   4.228 -0.1031  1.0825 -0.1538
10361TIP3   OH252497   0.582   3.084  12.626  0.1323 -0.1816  0.1246
10361TIP3    H152498   0.558   3.130  12.706  0.9499 -0.4031  0.5047
10361TIP3    H252499   0.498   3.068  12.582 -0.4300 -0.8963  1.3997
10362TIP3   OH252500   6.413   4.590  14.996  0.5268 -0.0595  0.0419
10362TIP3    H152501   6.396   4.612  14.904 -1.7565  0.2111  0.4740
10362TIP3    H252502   6.341   4.532  15.021  1.3763 -0.5271  1.5346
10363TIP3   OH252503   3.505   4.128  13.346  0.2308 -0.5690  0.4924
10363TIP3    H152504   3.600   4.136  13.338  0.3895 -3.1003 -1.0683
10363TIP3    H252505   3.489   4.035  13.359 -2.0509 -0.1566  1.2159
10364TIP3   OH252506   2.567   0.310   5.190 -0.4540  0.0409  0.0447
10364TIP3    H152507   2.537   0.221   5.209 -1.4726  0.3446 -0.0948
10364TIP3    H252508   2.650   0.318   5.238 -0.3604 -0.9714  0.0671
10365TIP3   OH252509   6.555   5.231   5.364 -0.0157 -0.3522 -0.3354
10365TIP3    H152510   6.600   5.309   5.332  1.1528 -0.7747  0.2136
10365TIP3    H252511   6.510   5.261   5.444  0.2238 -0.1820 -0.2614
10366TIP3   OH252512   4.897   4.675   1.440 -0.1933  0.2472  0.3169
10366TIP3    H152513   4.916   4.605   1.503 -0.0289  1.5496  1.7568
10366TIP3    H252514   4.983   4.696   1.401 -0.2290 -0.2728 -0.0522
10367TIP3   OH252515   5.323   0.344   1.141  0.1540 -0.5788 -0.2839
10367TIP3    H152516   5.407   0.356   1.185  1.2055 -1.7881 -1.8804
10367TIP3    H252517   5.287   0.263   1.179  1.4189 -2.0537 -2.0766
10368TIP3   OH252518   5.623   3.091  13.309  0.1677 -0.4651  0.1730
10368TIP3    H152519   5.663   3.131  13.232  0.9907 -0.3625  0.6446
10368TIP3    H252520   5.638   2.997  13.296  0.9305 -0.4035  0.5358
10369TIP3   OH252521   0.958   1.572   0.572  0.2076 -0.5425  0.4581
10369TIP3    H152522   0.946   1.659   0.534  1.0292 -0.3534  0.6052
10369TIP3    H252523   1.041   1.578   0.620 -0.2803 -1.0822  1.3928
10370TIP3   OH252524   3.055   1.155  14.445  0.6541 -0.3897  0.5412
10370TIP3    H152525   3.086   1.154  14.535 -1.3579 -0.7527  1.2854
10370TIP3    H252526   2.960   1.162  14.452  0.3983 -0.8904 -1.5454
10371TIP3   OH252527   0.477   0.386  12.888 -0.1771  0.0475 -0.3141
10371TIP3    H152528   0.486   0.457  12.824  3.1571  0.4486  0.3807
10371TIP3    H252529   0.536   0.318  12.855 -0.4980 -0.8538  0.9332
10372TIP3   OH252530   4.486   2.635  16.604 -0.2088 -0.4223 -0.0685
10372TIP3    H152531   4.536   2.567  16.650 -0.3180 -0.7409 -0.4209
10372TIP3    H252532   4.506   2.715  16.653 -0.4211 -0.7736  0.6149
10373TIP3   OH252533   5.958   5.031   6.583  0.4017 -0.3046 -0.4384
10373TIP3    H152534   5.974   5.125   6.589 -0.0349 -0.1850 -1.0374
10373TIP3    H252535   5.878   5.017   6.633  0.8712 -0.4793  0.2772
10374TIP3   OH252536   0.625   5.544  15.639  0.1960  0.1317 -0.1765
10374TIP3    H152537   0.719   5.536  15.623  0.2042  0.5203 -0.3276
10374TIP3    H252538   0.595   5.606  15.573 -0.3720 -0.8670 -0.8913
10375TIP3   OH252539   5.865   4.153  15.054  0.5517 -0.1397  0.1499
10375TIP3    H152540   5.803   4.081  15.043  0.5958 -0.1198 -0.2494
10375TIP3    H252541   5.857   4.178  15.146 -1.2961  1.0280 -0.2892
10376TIP3   OH252542   1.799   6.016  15.696 -0.7922 -0.3391  0.0374
10376TIP3    H152543   1.829   5.940  15.646 -1.6504 -0.4471 -0.3208
10376TIP3    H252544   1.775   6.081  15.630 -1.7717 -0.4190  0.2931
10377TIP3   OH252545   1.758   6.078   4.458  0.5357 -0.0622  0.0014
10377TIP3    H152546   1.815   6.011   4.495  0.4446 -1.3032 -1.9475
10377TIP3    H252547   1.815   6.153   4.442  0.2437  1.3329  4.2417
10378TIP3   OH252548   6.267   5.673  15.588 -0.2798  0.1193  0.1288
10378TIP3    H152549   6.274   5.738  15.518 -0.4309 -0.0956 -0.0893
10378TIP3    H252550   6.356   5.663  15.621  0.4402 -2.1124 -2.1732
10379TIP3   OH252551   5.921   1.911   3.910  0.1157 -0.1476  0.4178
10379TIP3    H152552   5.978   1.839   3.885 -1.0684 -1.1539  0.5438
10379TIP3    H252553   5.980   1.975   3.951  1.1955 -0.9952  0.2372
10380TIP3   OH252554   1.535   0.054  15.485  0.2453 -0.6605 -1.0518
10380TIP3    H152555   1.604   0.087  15.542 -0.3447 -1.1874  0.0035
10380TIP3    H252556   1.501   0.131  15.440  0.2349 -0.1161 -0.1311
10381TIP3   OH252557   5.197   0.459   0.903 -0.5424 -0.1192  0.5947
10381TIP3    H152558   5.204   0.434   0.995  0.1984 -0.7740  0.3689
10381TIP3    H252559   5.205   0.554   0.903 -2.7977  0.1382  1.4149
10382TIP3   OH252560   3.684   3.325   4.169  0.1337 -0.2450 -0.7041
10382TIP3    H152561   3.679   3.376   4.249  0.4057 -1.6533  0.2534
10382TIP3    H252562   3.625   3.370   4.108 -0.7929  0.3478  0.5802
10383TIP3   OH252563   2.116   1.079  16.773  0.4730 -0.1971  0.2066
10383TIP3    H152564   2.210   1.095  16.773  0.2874  1.0493  0.5348
10383TIP3    H252565   2.093   1.074  16.866  0.2548 -0.7914  0.1244
10384TIP3   OH252566   6.598   4.940   1.750  0.2800 -0.0462 -0.2683
10384TIP3    H152567   6.542   4.922   1.675  0.0050  0.0248 -0.0838
10384TIP3    H252568   6.685   4.952   1.713  0.6358 -2.4700 -0.3286
10385TIP3   OH252569   1.842   6.114  16.048  0.1564  0.1316 -0.2896
10385TIP3    H152570   1.756   6.118  16.090 -0.4910 -1.5097 -1.3556
10385TIP3    H252571   1.902   6.090  16.118 -0.6920 -1.2807 -0.0070
10386TIP3   OH252572   1.974   5.048   3.612  0.8529 -0.0338  0.0376
10386TIP3    H152573   2.044   4.995   3.652  2.2367  1.0858 -0.7970
10386TIP3    H252574   1.983   5.031   3.518 -0.1712 -0.0491 -0.0655
10387TIP3   OH252575   1.541   2.611   1.659 -0.1595  0.0153 -0.3694
10387TIP3    H152576   1.490   2.616   1.740  0.0389  1.6126 -0.3080
10387TIP3    H252577   1.629   2.640   1.684  0.8220 -2.5687 -0.5002
10388TIP3   OH252578   0.730   5.153  13.856 -0.3145  0.5012 -0.5540
10388TIP3    H152579   0.792   5.105  13.801 -3.7013 -1.0713 -3.3106
10388TIP3    H252580   0.769   5.240  13.864  3.8603 -1.2154  0.8885
10389TIP3   OH252581   2.475   3.002  16.741 -0.4906  0.4633 -0.4405
10389TIP3    H152582   2.403   3.063  16.723 -0.0908  1.3118  0.6463
10389TIP3    H252583   2.524   2.997  16.659 -1.0044  0.9694 -0.7866
10390TIP3   OH252584   5.306   5.176  15.803 -0.2986  0.1240  0.0382
10390TIP3    H152585   5.381   5.127  15.837 -0.1242  0.4372  0.1114
10390TIP3    H252586   5.345   5.252  15.760 -0.5185 -0.2159 -0.7924
10391TIP3   OH252587   6.063   6.483   0.587 -0.2682 -0.3059  0.3618
10391TIP3    H152588   6.096   6.569   0.613 -0.6137  0.1764 -0.7147
10391TIP3    H252589   6.008   6.501   0.510 -3.9274 -0.8846  2.6033
10392TIP3   OH252590   5.813   5.764  15.045 -0.1505  0.1231  0.4099
10392TIP3    H152591   5.890   5.744  14.992 -1.0928  3.3627 -2.5796
10392TIP3    H252592   5.739   5.731  14.993 -0.9848  0.4406  1.3558
10393TIP3   OH252593   2.056   4.496  12.729  0.0215 -0.4819  0.1313
10393TIP3    H152594   2.096   4.565  12.783 -1.4774  0.5836 -0.0528
10393TIP3    H252595   2.104   4.500  12.646 -0.3184  0.6747 -0.0349
10394TIP3   OH252596   5.619   3.560   4.450 -0.4293  0.8861  0.0487
10394TIP3    H152597   5.660   3.474   4.439  0.0399  1.0908  0.1498
10394TIP3    H252598   5.592   3.585   4.362  0.5669  1.1823 -0.1883
10395TIP3   OH252599   4.700   5.093   0.070  0.2564  0.1245 -0.2113
10395TIP3    H152600   4.607   5.078   0.086  0.1663 -1.5104 -1.9089
10395TIP3    H252601   4.726   5.157   0.136 -1.3322 -1.6848  2.3204
10396TIP3   OH252602   4.779   4.835  16.911 -0.1249 -0.2051 -0.9540
10396TIP3    H152603   4.688   4.807  16.903 -0.8758  0.4121  3.2199
10396TIP3    H252604   4.798   4.827  17.005  4.2554 -0.5739 -1.6697
10397TIP3   OH252605   4.507   3.590   0.719 -0.2324  0.0857  0.3648
10397TIP3    H152606   4.411   3.581   0.717 -0.1443 -1.0721  0.8272
10397TIP3    H252607   4.529   3.592   0.812  0.2241  0.0467  0.2592
10398TIP3   OH252608   4.080   5.517  14.136  0.1375  0.0410 -0.1888
10398TIP3    H152609   3.993   5.478  14.148  0.6270 -0.7204  1.0621
10398TIP3    H252610   4.141   5.444  14.144  1.0198  0.8721  1.2150
10399TIP3   OH252611   0.125   5.939  12.295 -0.4860 -0.3144  0.3582
10399TIP3    H152612   0.045   5.992  12.302  0.4297  1.4898 -1.6569
10399TIP3    H252613   0.193   5.995  12.332  0.2329 -0.8649 -0.1202
10400TIP3   OH252614   3.886   4.247  16.802 -0.2691  0.3038  0.3366
10400TIP3    H152615   3.810   4.189  16.802  0.6104 -0.8797  0.1887
10400TIP3    H252616   3.849   4.335  16.815 -1.6797 -0.2033 -0.0523
10401TIP3   OH252617   1.818   4.633   2.075  0.2266 -0.2114  0.0710
10401TIP3    H152618   1.771   4.553   2.054 -0.6849 -0.0760  1.4054
10401TIP3    H252619   1.877   4.647   2.002  0.1221 -1.8821 -0.3713
10402TIP3   OH252620   0.946   2.523  16.733 -0.6042 -0.4544  0.1506
10402TIP3    H152621   0.892   2.485  16.802  0.4529  1.3424  2.1314
10402TIP3    H252622   1.025   2.553  16.779  1.1950 -1.1918 -2.2688
10403TIP3   OH252623   5.293   6.241  16.132 -0.0385  0.3330 -0.2928
10403TIP3    H152624   5.280   6.336  16.129 -0.0127  0.3499  0.1366
10403TIP3    H252625   5.326   6.224  16.220  1.0411  0.0580 -0.7373
10404TIP3   OH252626   1.324   3.047  11.649  0.2595  0.2565 -0.6908
10404TIP3    H152627   1.333   3.126  11.596 -0.2045 -0.7749 -2.4058
10404TIP3    H252628   1.229   3.034  11.655  0.2628  0.8841  1.2825
10405TIP3   OH252629   5.967   0.511   5.882 -0.3020 -0.5727  0.5322
10405TIP3    H152630   5.986   0.476   5.969  1.2759  2.2701  1.4372
10405TIP3    H252631   5.887   0.561   5.893  0.6832  1.0249  0.8021
10406TIP3   OH252632   1.566   5.449   3.901 -0.0435 -0.5947  0.2422
10406TIP3    H152633   1.581   5.523   3.842 -0.5600 -0.2048  0.5935
10406TIP3    H252634   1.508   5.391   3.852  0.4588 -0.8419 -0.0816
10407TIP3   OH252635   0.703   2.084   2.447 -0.0919 -0.3057 -0.4988
10407TIP3    H152636   0.650   2.099   2.525 -0.2532 -0.3282 -0.6035
10407TIP3    H252637   0.671   2.001   2.412  1.2681 -1.2793  0.4644
10408TIP3   OH252638   4.472   3.515   4.455  0.5103  0.4823  0.4567
10408TIP3    H152639   4.424   3.585   4.411  2.5468  0.7732 -1.5048
10408TIP3    H252640   4.438   3.435   4.415 -0.0456  0.5004  0.8763
10409TIP3   OH252641   1.311   5.659  16.407 -0.1836 -0.3094  0.7374
10409TIP3    H152642   1.250   5.732  16.395  1.3513  1.0863  1.1068
10409TIP3    H252643   1.389   5.685  16.360  0.3420 -1.8201  0.7267
10410TIP3   OH252644   4.921   2.583  17.180  0.1112 -0.6384  0.1120
10410TIP3    H152645   4.835   2.612  17.211  0.0959  1.7175 -1.8663
10410TIP3    H252646   4.903   2.504  17.131 -0.9507 -0.1791 -0.2714
10411TIP3   OH252647   4.146   4.630  16.781 -0.1961  0.0004  0.0026
10411TIP3    H152648   4.230   4.657  16.816  0.0552 -0.2940 -0.3703
10411TIP3    H252649   4.101   4.712  16.760  0.6633  0.1610 -1.3557
10412TIP3   OH252650   4.669   3.122   3.184 -0.1669  0.1031 -0.1264
10412TIP3    H152651   4.659   3.036   3.142  0.6631  0.8289 -1.9178
10412TIP3    H252652   4.579   3.154   3.194 -0.5767 -1.4249  1.6686
10413TIP3   OH252653   5.307   4.970  10.815 -0.4864 -0.1578 -0.2028
10413TIP3    H152654   5.343   4.928  10.736 -2.6009  1.2279 -2.0056
10413TIP3    H252655   5.364   5.045  10.831 -0.0917 -0.4039 -0.4392
10414TIP3   OH252656   0.767   3.130  16.077  0.3871 -0.4268 -0.2992
10414TIP3    H152657   0.799   3.183  16.150 -3.0499 -0.1765  1.2081
10414TIP3    H252658   0.672   3.128  16.089  0.0070 -3.5067 -2.6959
10415TIP3   OH252659   4.734   6.427  13.941 -0.1320  0.6144 -0.2616
10415TIP3    H152660   4.675   6.493  13.904  0.1488  0.7556 -0.4545
10415TIP3    H252661   4.721   6.350  13.886  0.7872  1.0339 -1.0811
10416TIP3   OH252662   2.445   4.981  10.909 -0.1111  0.2914 -0.0040
10416TIP3    H152663   2.507   5.052  10.892  0.6868 -0.3581  0.1072
10416TIP3    H252664   2.392   4.975  10.830 -0.3801  1.1947  0.0993
10417TIP3   OH252665   0.517   5.005  13.944  0.3360 -0.5309  0.0487
10417TIP3    H152666   0.549   4.923  13.981  0.5277 -0.2360  0.5301
10417TIP3    H252667   0.595   5.057  13.929  0.1390 -0.0972  0.5414
10418TIP3   OH252668   5.025   3.894   4.850 -0.3497 -0.1610 -0.0487
10418TIP3    H152669   4.994   3.868   4.937  1.9687  0.4142  1.0330
10418TIP3    H252670   4.975   3.973   4.830  0.6450  1.0023  1.8165
10419TIP3   OH252671   4.851   4.326   0.281 -0.0991  0.2522  0.1765
10419TIP3    H152672   4.933   4.325   0.231 -0.0730 -0.5526  0.2207
10419TIP3    H252673   4.791   4.379   0.228  0.0756 -0.1756 -0.4605
10420TIP3   OH252674   0.524   3.227   4.598  0.4154  0.3484 -0.5517
10420TIP3    H152675   0.600   3.206   4.542  0.0939 -0.0082 -0.8586
10420TIP3    H252676   0.464   3.154   4.584 -0.4075  1.1095 -1.0661
10421TIP3   OH252677   1.463   3.649   0.636 -0.0943  0.3206  0.2583
10421TIP3    H152678   1.411   3.569   0.629  0.5233 -0.0846  0.1912
10421TIP3    H252679   1.528   3.629   0.704 -0.1871  0.9071  0.5214
10422TIP3   OH252680   4.212   3.359   1.672  0.2301 -0.4126 -0.3109
10422TIP3    H152681   4.277   3.415   1.713 -0.5705 -0.7625  1.5332
10422TIP3    H252682   4.151   3.420   1.630 -0.1748  0.0814  0.9577
10423TIP3   OH252683   2.728   6.168  14.057 -0.8291 -0.3280 -0.2661
10423TIP3    H152684   2.823   6.163  14.066 -0.4965  0.8797 -2.3983
10423TIP3    H252685   2.713   6.174  13.963 -3.0305 -0.3096  0.0261
10424TIP3   OH252686   4.218   5.895  16.803 -1.0398  0.1468  0.1772
10424TIP3    H152687   4.250   5.806  16.820 -0.5159  0.5275  1.2753
10424TIP3    H252688   4.167   5.917  16.882 -0.4464  1.1388  0.2899
10425TIP3   OH252689   3.918   3.153  16.118  0.0708 -0.5324  0.2450
10425TIP3    H152690   3.836   3.105  16.133 -1.3003  1.4185 -0.4755
10425TIP3    H252691   3.905   3.236  16.163 -0.6370  1.9691 -3.9911
10426TIP3   OH252692   6.630   0.723   0.916  0.1829 -0.0996  0.2165
10426TIP3    H152693   6.683   0.800   0.936  1.4510 -0.8575 -0.1006
10426TIP3    H252694   6.584   0.746   0.835  2.2359 -0.4258 -1.1073
10427TIP3   OH252695   3.253   0.661  16.921 -0.2167 -0.0005  0.7378
10427TIP3    H152696   3.248   0.588  16.858  0.3880 -0.6275  1.3899
10427TIP3    H252697   3.174   0.712  16.905  0.0231 -0.0367 -0.6655
10428TIP3   OH252698   1.335   0.742   5.380 -0.2298 -0.0923 -0.0427
10428TIP3    H152699   1.262   0.681   5.392  1.0434 -1.4761  1.1680
10428TIP3    H252700   1.319   0.812   5.444 -0.8644  0.0210 -0.3160
10429TIP3   OH252701   6.490   5.395   0.488 -0.6340 -0.0122 -0.2802
10429TIP3    H152702   6.559   5.461   0.500  0.5711 -1.4099  0.7312
10429TIP3    H252703   6.417   5.428   0.540 -0.5981  1.2385 -0.9582
10430TIP3   OH252704   1.090   4.364   4.978  0.3822  0.1969  0.5294
10430TIP3    H152705   1.091   4.338   5.070  1.0330  0.5251  0.6215
10430TIP3    H252706   1.175   4.405   4.964  0.0374  0.7292 -0.0546
10431TIP3   OH252707   3.845   2.525  15.202  0.1437  0.8515  0.2121
10431TIP3    H152708   3.854   2.506  15.109  1.0270  2.1355 -0.0037
10431TIP3    H252709   3.756   2.558  15.212 -0.4337 -0.6178  0.1025
10432TIP3   OH252710   5.577   4.414  16.745 -0.4690 -0.1889 -0.3445
10432TIP3    H152711   5.523   4.413  16.666  0.5427  0.8489 -1.0890
10432TIP3    H252712   5.665   4.390  16.715 -0.4172 -1.5364  0.7818
10433TIP3   OH252713   3.442   5.471   0.825 -0.2102  0.1029 -0.1539
10433TIP3    H152714   3.495   5.486   0.746  1.0913 -1.9660  0.2567
10433TIP3    H252715   3.354   5.455   0.791  0.2303 -0.2793 -1.1695
10434TIP3   OH252716   3.661   0.855  15.949  0.2524  0.7786 -0.3883
10434TIP3    H152717   3.753   0.831  15.936 -0.3089 -2.3428  0.4363
10434TIP3    H252718   3.650   0.854  16.045 -0.6753  0.9417 -0.4878
10435TIP3   OH252719   1.400   5.001  12.312 -0.0192  0.4524 -0.3260
10435TIP3    H152720   1.484   5.041  12.333  0.5764 -1.0346  0.2879
10435TIP3    H252721   1.336   5.052  12.361  0.5105  1.5781 -0.7711
10436TIP3   OH252722   5.532   6.291   2.627  0.2312 -0.0498 -0.4023
10436TIP3    H152723   5.581   6.320   2.550  1.5715  0.5710  0.6415
10436TIP3    H252724   5.590   6.226   2.668  0.1951  0.6852  0.8502
10437TIP3   OH252725   6.333   3.562   2.598 -0.5789  0.0279  0.3806
10437TIP3    H152726   6.422   3.543   2.568 -0.7801 -1.4370  0.6441
10437TIP3    H252727   6.320   3.504   2.673 -2.1253 -0.5448 -0.2855
10438TIP3   OH252728   1.722   6.283   6.000 -0.6493 -0.4018 -0.5115
10438TIP3    H152729   1.705   6.209   6.057 -2.0148 -0.3177 -0.7621
10438TIP3    H252730   1.664   6.352   6.032 -0.7039 -0.0312 -1.3712
10439TIP3   OH252731   4.977   2.166   2.280  0.8565 -0.0996 -0.2117
10439TIP3    H152732   5.003   2.208   2.362  0.7508 -0.6550  0.1086
10439TIP3    H252733   5.035   2.204   2.215  0.6352  0.6895  0.0362
10440TIP3   OH252734   3.623   5.884  15.322 -0.2717  0.5287 -0.2584
10440TIP3    H152735   3.696   5.875  15.260  0.3072 -0.4558  0.5375
10440TIP3    H252736   3.639   5.969  15.365  1.1714 -0.2382  0.8250
10441TIP3   OH252737   5.565   5.166  16.974  0.0443  0.1031  0.4851
10441TIP3    H152738   5.544   5.240  17.030  0.4628 -0.1862  1.0340
10441TIP3    H252739   5.587   5.095  17.035  1.6917  0.1263 -0.0194
10442TIP3   OH252740   3.968   2.787  10.812  0.1855 -0.3119  0.7214
10442TIP3    H152741   4.020   2.708  10.830  1.4719  0.6478  1.3954
10442TIP3    H252742   4.018   2.834  10.746 -0.0159  0.4578  1.1077
10443TIP3   OH252743   4.053   5.793   4.036 -0.5160 -0.1764  0.2374
10443TIP3    H152744   4.112   5.861   4.003  0.1033 -0.4483  0.7832
10443TIP3    H252745   4.076   5.783   4.128 -0.8807 -0.8511  0.2588
10444TIP3   OH252746   4.181   5.611  11.126  0.0460  0.0307  0.6798
10444TIP3    H152747   4.153   5.604  11.217  2.4779 -1.9931  1.4042
10444TIP3    H252748   4.250   5.678  11.127  0.8959 -0.8119  0.6183
10445TIP3   OH252749   6.693   1.330   6.323 -0.0868  0.0888  0.2445
10445TIP3    H152750   6.615   1.353   6.374 -0.8888  0.0470 -0.9194
10445TIP3    H252751   6.687   1.385   6.245  1.1804  0.2452  0.2425
10446TIP3   OH252752   4.269   4.174   1.693 -0.1693 -0.5304 -0.0820
10446TIP3    H152753   4.299   4.109   1.756 -0.2564 -1.9646 -1.4641
10446TIP3    H252754   4.272   4.129   1.608 -2.0978  0.6494 -0.8451
10447TIP3   OH252755   3.893   4.080   3.222 -0.2628  0.0171  0.8838
10447TIP3    H152756   3.841   4.157   3.203  0.9145  1.0318  1.5884
10447TIP3    H252757   3.965   4.112   3.277  0.5544 -1.4852  0.7680
10448TIP3   OH252758   1.724   3.751  14.410 -0.0144 -0.0686 -0.2353
10448TIP3    H152759   1.817   3.732  14.427 -0.1528  0.1996  0.8662
10448TIP3    H252760   1.723   3.784  14.320  0.8560 -0.7858 -0.5213
10449TIP3   OH252761   2.178   6.749  10.749  0.7153  0.4722 -0.3788
10449TIP3    H152762   2.238   6.713  10.683  0.0543 -1.4128 -0.0121
10449TIP3    H252763   2.098   6.768  10.701  1.1204  1.7027 -0.6071
10450TIP3   OH252764   1.016   3.891   3.710 -0.1316  0.1086  0.1592
10450TIP3    H152765   1.068   3.959   3.751 -0.2556  0.2319  0.1151
10450TIP3    H252766   0.925   3.920   3.721 -0.1668  0.1349 -0.1792
10451TIP3   OH252767   4.931   2.513  11.173  0.5326 -0.1736  0.7518
10451TIP3    H152768   4.945   2.423  11.142 -1.2977 -0.8439  1.7157
10451TIP3    H252769   5.007   2.561  11.141  1.0619 -1.8345 -0.6833
10452TIP3   OH252770   6.371   6.275  16.637 -0.2289 -0.0000 -0.0241
10452TIP3    H152771   6.429   6.198  16.643 -2.8444 -2.1158  0.0492
10452TIP3    H252772   6.283   6.238  16.640 -1.6315  2.9642 -1.2926
10453TIP3   OH252773   5.905   1.086   0.614 -0.1112  0.5764  0.0849
10453TIP3    H152774   5.818   1.061   0.647  0.2738  0.3853  0.9915
10453TIP3    H252775   5.950   1.120   0.691  1.3557 -1.2992  0.1346
10454TIP3   OH252776   1.309   1.000  15.428  0.0048 -0.2728  0.3584
10454TIP3    H152777   1.270   0.918  15.398 -0.3173  0.3396 -0.9910
10454TIP3    H252778   1.357   0.977  15.507  1.4252 -2.1105 -0.9735
10455TIP3   OH252779   0.454   2.517  15.692  0.3710 -0.0020 -0.8655
10455TIP3    H152780   0.413   2.461  15.626  3.1996 -3.1184 -0.2532
10455TIP3    H252781   0.410   2.493  15.774  0.4303 -0.0656 -0.8527
10456TIP3   OH252782   6.453   5.797   5.691 -0.3227  0.2739 -0.4677
10456TIP3    H152783   6.530   5.776   5.638  0.8368  1.7413  0.5327
10456TIP3    H252784   6.405   5.715   5.698  0.3581 -0.3339 -2.3645
10457TIP3   OH252785   2.614   4.927  11.854  0.0742 -0.8206  0.3812
10457TIP3    H152786   2.534   4.927  11.801  0.5381  0.7355 -0.3696
10457TIP3    H252787   2.686   4.929  11.791  0.6554  0.2442  1.0466
10458TIP3   OH252788   5.533   1.794  13.573 -0.2568  0.4507  0.5361
10458TIP3    H152789   5.568   1.711  13.608 -1.9575 -0.1947  0.8060
10458TIP3    H252790   5.596   1.860  13.601  1.4486 -0.7942 -0.1510
10459TIP3   OH252791   3.405   2.882   4.901 -0.4516 -0.0806  0.2272
10459TIP3    H152792   3.337   2.941   4.868 -0.5068 -1.1468 -1.7385
10459TIP3    H252793   3.370   2.794   4.885  0.2387 -0.6549  1.7566
10460TIP3   OH252794   0.949   4.464   5.555 -0.7020 -0.5751  0.3342
10460TIP3    H152795   1.006   4.503   5.621  0.1705 -0.7160 -0.3215
10460TIP3    H252796   0.867   4.513   5.563  0.0145  0.7002  0.2469
10461TIP3   OH252797   0.804   0.162  11.418  0.0381  0.1418  0.4863
10461TIP3    H152798   0.841   0.073  11.417 -1.1259 -0.4667  2.9208
10461TIP3    H252799   0.877   0.218  11.446  0.6483 -0.0903 -0.5797
10462TIP3   OH252800   4.871   0.664  14.063 -0.1688 -0.2896  0.5841
10462TIP3    H152801   4.949   0.701  14.021 -0.1369 -0.7198  0.2605
10462TIP3    H252802   4.834   0.737  14.112 -0.7941  0.5063 -1.0117
10463TIP3   OH252803   4.616   4.177   3.179 -0.5601 -0.0204 -0.7538
10463TIP3    H152804   4.577   4.264   3.174 -0.2264  0.1906  0.1906
10463TIP3    H252805   4.599   4.139   3.093 -1.2073  0.7589 -0.9884
10464TIP3   OH252806   2.736   3.537  16.269  0.0096 -0.1391  0.2415
10464TIP3    H152807   2.710   3.503  16.183  0.2682  0.0417  0.0908
10464TIP3    H252808   2.697   3.475  16.332  0.2818 -0.5836 -0.0200
10465TIP3   OH252809   6.792   6.779   5.720  0.1059 -0.9928  0.4729
10465TIP3    H152810   6.793   6.694   5.677 -0.6007 -0.8783  0.2205
10465TIP3    H252811   6.774   6.841   5.650  1.8554 -0.4860  0.4315
10466TIP3   OH252812   6.474   5.443  13.100  0.4231  0.0629 -0.2678
10466TIP3    H152813   6.560   5.470  13.068  1.3819  0.7609  2.6091
10466TIP3    H252814   6.461   5.492  13.182 -2.4720 -0.4583 -0.2799
10467TIP3   OH252815   1.957   1.702  16.306  0.3736  0.3031  0.2120
10467TIP3    H152816   1.950   1.629  16.369 -0.2243  0.1295 -0.0523
10467TIP3    H252817   1.884   1.689  16.246  1.3422  0.0724 -0.9435
10468TIP3   OH252818   5.759   3.594   3.848  0.4454  0.0510  0.0079
10468TIP3    H152819   5.806   3.664   3.893  0.5396  0.2454 -0.3910
10468TIP3    H252820   5.798   3.589   3.761  0.8440 -0.9033  0.2240
10469TIP3   OH252821   1.757   2.732   1.799  0.6753 -0.0999 -0.2302
10469TIP3    H152822   1.839   2.728   1.750  1.1886 -1.5246  0.7007
10469TIP3    H252823   1.766   2.665   1.866 -0.7106  0.6521  0.7465
10470TIP3   OH252824   3.122   2.634  13.553 -0.5941 -0.3734 -0.3194
10470TIP3    H152825   3.105   2.615  13.645 -0.0521 -0.6297 -0.2690
10470TIP3    H252826   3.045   2.599  13.507 -0.2414 -1.5055 -0.0949
10471TIP3   OH252827   6.079   6.006  15.544 -0.0335  0.1563  0.1153
10471TIP3    H152828   6.056   6.078  15.602 -2.0018 -0.6039  0.3668
10471TIP3    H252829   6.034   5.930  15.582  0.1582 -0.7408 -1.3764
10472TIP3   OH252830   5.089   5.967  16.077  0.3784  0.4848  0.5339
10472TIP3    H152831   5.043   6.001  16.153 -0.3785  1.1617 -0.2074
10472TIP3    H252832   5.180   5.996  16.089  0.1806  0.9395  0.9725
10473TIP3   OH252833   3.142   6.028  14.388 -0.4650  0.8671  0.5837
10473TIP3    H152834   3.195   5.955  14.416  0.8398  0.2326 -2.9676
10473TIP3    H252835   3.052   6.001  14.404  0.0545 -1.0230  0.4718
10474TIP3   OH252836   3.799   2.576   5.053  0.2077  0.3046 -0.2724
10474TIP3    H152837   3.731   2.607   5.112  0.9814  1.4386  0.0449
10474TIP3    H252838   3.755   2.511   4.997 -0.6385 -0.4893  1.2546
10475TIP3   OH252839   5.088   1.825   6.063 -0.0229 -0.1413  0.1221
10475TIP3    H152840   5.061   1.899   6.119 -1.0595 -0.5920  0.2369
10475TIP3    H252841   5.169   1.855   6.022 -1.8209  2.2195 -2.0351
10476TIP3   OH252842   0.690   4.290  15.832  0.1324  0.4662  0.3785
10476TIP3    H152843   0.770   4.241  15.852 -1.1324 -1.8170  0.1680
10476TIP3    H252844   0.690   4.298  15.737  0.3607  0.9498  0.4158
10477TIP3   OH252845   1.910   5.970   2.642 -0.2526 -0.7460  0.1564
10477TIP3    H152846   1.838   6.023   2.606  1.4721  2.5887  1.1896
10477TIP3    H252847   1.866   5.904   2.695 -2.6197  0.5370 -0.0446
10478TIP3   OH252848   4.022   0.470   3.044  0.2578 -0.5975  0.3257
10478TIP3    H152849   4.032   0.420   3.125 -2.3532  0.2576  1.2742
10478TIP3    H252850   4.086   0.431   2.984  1.9621 -1.5637  2.6070
10479TIP3   OH252851   6.610   5.056   2.792 -0.3750  0.3718 -0.4087
10479TIP3    H152852   6.692   5.093   2.823  0.3818 -1.2075 -0.4383
10479TIP3    H252853   6.565   5.028   2.872  0.4674 -1.4380 -0.5214
10480TIP3   OH252854   6.736   1.018  13.532  0.4808  0.9726 -0.1617
10480TIP3    H152855   6.771   1.070  13.458  1.4000 -0.2270 -0.6048
10480TIP3    H252856   6.731   0.929  13.498 -0.8289  0.7030  0.6738
10481TIP3   OH252857   2.465   4.758  16.681  0.0641  0.1417  0.1777
10481TIP3    H152858   2.439   4.674  16.644  3.1497 -1.0169  0.3407
10481TIP3    H252859   2.533   4.790  16.622  0.4137  1.4920  1.2656
10482TIP3   OH252860   4.326   0.801   2.097  0.3699 -0.4143 -0.3543
10482TIP3    H152861   4.273   0.836   2.169 -1.1783  2.5547 -2.7035
10482TIP3    H252862   4.404   0.856   2.095 -0.0986  0.2690 -1.4836
10483TIP3   OH252863   4.002   3.874   4.069  0.2798  0.8598  0.0843
10483TIP3    H152864   4.036   3.788   4.045  0.6064  0.4621  1.8274
10483TIP3    H252865   3.999   3.923   3.987  0.0896 -0.8016 -0.9482
10484TIP3   OH252866   1.967   1.444   1.052  0.1147 -0.3321 -0.6154
10484TIP3    H152867   2.006   1.531   1.056  0.1417 -0.3040 -1.4246
10484TIP3    H252868   1.899   1.445   1.119  2.0011 -0.6587  1.4232
10485TIP3   OH252869   1.209   3.070   6.130 -0.2352  0.8116  0.2870
10485TIP3    H152870   1.272   3.075   6.059 -0.6748 -2.9608 -0.5842
10485TIP3    H252871   1.124   3.079   6.088 -0.5286 -2.0343  0.0894
10486TIP3   OH252872   2.797   4.268   0.765  0.8149 -0.1824  0.2737
10486TIP3    H152873   2.841   4.236   0.686  2.1013 -1.6663  1.5263
10486TIP3    H252874   2.719   4.214   0.774  1.8279 -1.5447  1.1808
10487TIP3   OH252875   5.804   4.246  12.937 -0.7240  0.1702  0.6693
10487TIP3    H152876   5.738   4.230  12.870  1.6429  0.0180 -1.7826
10487TIP3    H252877   5.775   4.195  13.012 -2.3753 -1.4260 -0.9606
10488TIP3   OH252878   2.734   3.267  14.266  0.3353 -0.6262 -0.8769
10488TIP3    H152879   2.667   3.333  14.250 -1.1130 -1.7190  0.4361
10488TIP3    H252880   2.746   3.224  14.181 -0.8030 -0.5718 -1.0740
10489TIP3   OH252881   3.359   5.205  14.216  0.4538  0.1129  0.1620
10489TIP3    H152882   3.318   5.288  14.192  0.9578  0.1244 -0.7095
10489TIP3    H252883   3.398   5.221  14.302  2.6745  1.5848 -1.0403
10490TIP3   OH252884   5.927   1.045   2.605 -0.1958 -0.2500  0.5649
10490TIP3    H152885   5.942   0.999   2.523 -0.5195 -1.2787  1.0578
10490TIP3    H252886   5.966   1.131   2.593 -1.5222  0.1527 -1.1800
10491TIP3   OH252887   3.004   2.525  12.790  0.2765 -0.2773 -0.8094
10491TIP3    H152888   3.087   2.504  12.747  1.0376  1.3219 -0.1725
10491TIP3    H252889   3.027   2.582  12.863 -1.2439 -1.0239  0.3162
10492TIP3   OH252890   5.375   5.160   2.732 -0.1725  0.0036 -0.0188
10492TIP3    H152891   5.305   5.103   2.762  1.2413 -0.5696  2.5014
10492TIP3    H252892   5.344   5.248   2.750 -0.4780 -0.2225  0.5815
10493TIP3   OH252893   3.823   0.378   1.283 -0.6207 -0.3780  0.2698
10493TIP3    H152894   3.807   0.336   1.198  1.6640  0.8815 -0.8962
10493TIP3    H252895   3.875   0.314   1.331  0.6915  0.0439 -0.5229
10494TIP3   OH252896   1.747   6.165  10.668  0.2531  0.2926 -0.0254
10494TIP3    H152897   1.678   6.218  10.707  0.6874  2.2327 -1.7338
10494TIP3    H252898   1.714   6.141  10.581  1.5698  1.0249 -0.7713
10495TIP3   OH252899   4.207   5.423   5.933 -0.1011 -0.2300  0.5412
10495TIP3    H152900   4.150   5.372   5.877  0.2064  0.8965 -0.8614
10495TIP3    H252901   4.233   5.498   5.880  1.0865  0.3299  1.8206
10496TIP3   OH252902   5.249   1.920  13.784 -0.1986  0.6857 -0.1957
10496TIP3    H152903   5.335   1.884  13.805  0.3937  2.5481  0.8396
10496TIP3    H252904   5.193   1.843  13.770  1.6906 -0.5765 -1.3250
10497TIP3   OH252905   4.640   4.120  16.011  0.6585  0.3925 -0.0390
10497TIP3    H152906   4.545   4.129  16.018  0.6758  1.3090 -0.6716
10497TIP3    H252907   4.675   4.191  16.065  1.0229 -0.7633  1.2752
10498TIP3   OH252908   4.646   3.100   0.933  0.2879  0.2068 -0.8142
10498TIP3    H152909   4.639   3.177   0.991  0.7507 -1.4325  1.5814
10498TIP3    H252910   4.557   3.063   0.933 -0.2338  1.2846 -2.9149
10499TIP3   OH252911   3.105   5.740  11.126 -0.1859  0.2440 -0.3932
10499TIP3    H152912   3.131   5.648  11.130  0.2945  0.2278 -2.7514
10499TIP3    H252913   3.023   5.744  11.177 -0.2917 -1.4939 -0.3696
10500TIP3   OH252914   0.484   2.311   6.263  0.3530 -0.2623  0.0310
10500TIP3    H152915   0.441   2.374   6.205 -0.0047  0.2833  0.8828
10500TIP3    H252916   0.420   2.240   6.273 -0.4850  0.6548  1.4792
10501TIP3   OH252917   5.457   0.154   1.631  0.3639 -0.2260 -0.2636
10501TIP3    H152918   5.373   0.187   1.600  0.6503  0.9998  0.2121
10501TIP3    H252919   5.439   0.064   1.657 -1.0188  0.2787  0.6549
10502TIP3   OH252920   2.182   5.755   1.341 -0.7002  0.3147  0.0222
10502TIP3    H152921   2.260   5.811   1.343 -1.1068  0.8859  0.4009
10502TIP3    H252922   2.162   5.746   1.248  0.3859 -0.6611 -0.1336
10503TIP3   OH252923   0.910   3.449  11.355 -0.1134  0.0451 -0.0691
10503TIP3    H152924   0.946   3.459  11.267 -0.1447 -0.7258 -0.1799
10503TIP3    H252925   0.925   3.357  11.376  0.1470  0.2852  0.8446
10504TIP3   OH252926   5.181   0.585   2.692 -0.3046 -0.1621 -0.2326
10504TIP3    H152927   5.224   0.500   2.703 -0.8116 -0.6264 -1.6266
10504TIP3    H252928   5.094   0.564   2.658 -0.5002  0.9093 -0.4322
10505TIP3   OH252929   5.622   4.106   5.362 -0.5706  0.6039 -0.1940
10505TIP3    H152930   5.542   4.117   5.413  0.5277 -0.1852  1.8323
10505TIP3    H252931   5.645   4.194   5.333 -1.5896  0.9946  0.1641
10506TIP3   OH252932   4.564   3.434  13.608  0.1094  0.0316  0.3047
10506TIP3    H152933   4.645   3.473  13.640  0.3184 -0.7163  0.6970
10506TIP3    H252934   4.499   3.504  13.616  0.7843  0.7612 -0.3803
10507TIP3   OH252935   2.574   1.555   2.928  0.3222 -0.2721  0.2857
10507TIP3    H152936   2.584   1.622   2.996  0.9934 -0.0718  0.0048
10507TIP3    H252937   2.636   1.581   2.860  0.9298 -1.4345  0.3738
10508TIP3   OH252938   3.501   3.049  16.697  0.5403 -0.2360 -0.0377
10508TIP3    H152939   3.467   3.111  16.761 -3.0525 -2.2940  0.2989
10508TIP3    H252940   3.529   3.103  16.623  0.2576  1.8976  1.3349
10509TIP3   OH252941   5.865   2.092   6.507 -0.0657 -0.5161  0.2496
10509TIP3    H152942   5.858   2.018   6.446  1.2576 -0.3663 -0.1027
10509TIP3    H252943   5.790   2.082   6.565  0.3951 -2.4547  0.5556
10510TIP3   OH252944   0.735   3.207  12.190 -0.2613  0.3035 -0.1761
10510TIP3    H152945   0.736   3.224  12.284  1.4651 -0.8652  0.0613
10510TIP3    H252946   0.752   3.292  12.150  0.8814  0.5042  0.6761
10511TIP3   OH252947   3.675   2.057   4.133  0.1260  0.2823  0.0553
10511TIP3    H152948   3.679   2.067   4.228 -1.1367  0.4184  0.1056
10511TIP3    H252949   3.699   2.143   4.099  3.1589 -0.3973  0.1361
10512TIP3   OH252950   1.139   4.104  14.297  0.0409 -0.1917  0.2355
10512TIP3    H152951   1.217   4.154  14.319  0.3747 -1.0724  1.1235
10512TIP3    H252952   1.121   4.052  14.375 -1.9497  0.6368  0.3818
10513TIP3   OH252953   4.098   3.306   1.422 -0.2197  0.1936  0.0278
10513TIP3    H152954   4.135   3.219   1.405  0.2792  0.2617  0.7135
10513TIP3    H252955   4.174   3.363   1.430 -0.5739  1.1024 -2.3261
10514TIP3   OH252956   0.904   3.613   4.491  0.3487  0.4487  0.4849
10514TIP3    H152957   0.911   3.650   4.580 -1.8747 -3.1308  2.4024
10514TIP3    H252958   0.814   3.630   4.465  0.4323 -0.1741 -0.2448
10515TIP3   OH252959   5.339   4.861   3.252  0.0541 -0.4336  0.2571
10515TIP3    H152960   5.347   4.845   3.158 -2.1533 -1.2243  0.1437
10515TIP3    H252961   5.260   4.915   3.261 -0.0701 -0.7986  1.6829
10516TIP3   OH252962   1.931   1.961   4.588  1.0006 -0.1448  0.6193
10516TIP3    H152963   1.880   1.992   4.513  0.3873 -1.1311  0.6035
10516TIP3    H252964   2.012   2.012   4.585  0.4748  0.6847  0.0055
10517TIP3   OH252965   2.114   1.428  17.037  0.3644  0.3829  0.3552
10517TIP3    H152966   2.157   1.347  17.064  0.4222 -0.4383 -1.9570
10517TIP3    H252967   2.021   1.410  17.047  0.3545 -0.1919 -0.6067
10518TIP3   OH252968   5.823   6.538   1.126  0.4079 -0.2779 -0.1729
10518TIP3    H152969   5.869   6.463   1.165  1.2638  0.3453  0.0481
10518TIP3    H252970   5.892   6.587   1.080  0.0395  0.8588  0.4526
10519TIP3   OH252971   2.379   4.475   2.346  0.0704  0.7137  0.2077
10519TIP3    H152972   2.436   4.399   2.361  0.5823  1.4553  2.4550
10519TIP3    H252973   2.295   4.437   2.321  0.6711 -0.5270 -0.0219
10520TIP3   OH252974   0.023   6.324   4.871 -0.6413  0.1837  0.0980
10520TIP3    H152975   0.065   6.318   4.956 -1.1702 -0.5889  0.3165
10520TIP3    H252976   0.034   6.416   4.845  1.4284 -0.0344  0.0028
10521TIP3   OH252977   6.020   5.080   3.821 -0.5653  0.4699  0.0819
10521TIP3    H152978   5.933   5.070   3.859 -1.2868  2.6971 -0.8085
10521TIP3    H252979   6.040   4.995   3.782 -2.2860 -0.1080  0.3989
10522TIP3   OH252980   6.375   1.793  14.589  0.1321  0.3172  0.1217
10522TIP3    H152981   6.469   1.810  14.593  0.0130  0.8765  0.5716
10522TIP3    H252982   6.363   1.712  14.640  0.6462 -1.0031 -1.7494
10523TIP3   OH252983   1.027   3.768  11.075 -0.6804  0.3227 -0.5527
10523TIP3    H152984   0.935   3.787  11.092 -0.3145  0.3130  1.6646
10523TIP3    H252985   1.033   3.673  11.080 -0.4692  0.3532 -0.1802
10524TIP3   OH252986   3.100   6.060   2.500  0.0216  0.2294  0.4945
10524TIP3    H152987   3.038   6.103   2.559  0.4716  1.2133  0.2689
10524TIP3    H252988   3.048   6.033   2.425 -0.3266  0.1037  0.7800
10525TIP3   OH252989   3.077   0.786  16.567  0.0837  0.1602  0.4553
10525TIP3    H152990   3.105   0.819  16.481  0.6579 -4.1518 -1.2763
10525TIP3    H252991   2.985   0.763  16.555  0.3687 -1.1703  0.7274
10526TIP3   OH252992   3.160   4.571  11.884  0.3673  0.4191 -0.0536
10526TIP3    H152993   3.149   4.611  11.970 -0.7626 -0.7951  0.4040
10526TIP3    H252994   3.253   4.579  11.865  0.4541  1.6316  0.8101
10527TIP3   OH252995   0.527   1.503  15.860 -0.0188  0.0178 -0.3867
10527TIP3    H152996   0.539   1.587  15.816  1.2508 -1.1173 -2.3742
10527TIP3    H252997   0.433   1.499  15.879 -0.3607  1.2648 -1.6144
10528TIP3   OH252998   1.370   1.213  12.322  0.5111 -0.4663 -0.2662
10528TIP3    H152999   1.283   1.202  12.360  0.3530  0.7114 -0.2401
10528TIP3    H253000   1.367   1.165  12.239 -0.5826  0.5958 -0.8696
10529TIP3   OH253001   1.988   4.583   5.756  0.2487 -0.1136 -0.3915
10529TIP3    H153002   2.060   4.531   5.790 -0.4911 -0.9510 -0.0496
10529TIP3    H253003   1.921   4.518   5.732 -0.8875  0.6873  0.4993
10530TIP3   OH253004   5.605   5.065   5.094  0.8723  0.0462  0.2489
10530TIP3    H153005   5.618   4.971   5.077 -1.0723 -0.5501  1.6164
10530TIP3    H253006   5.585   5.102   5.008  0.8298 -0.9801 -0.1990
10531TIP3   OH253007   1.752   3.107   5.020  0.0146 -0.0036  0.1309
10531TIP3    H153008   1.703   3.134   4.943 -1.9308  0.6874  1.5511
10531TIP3    H253009   1.772   3.189   5.066  2.2340 -0.2904 -0.1931
10532TIP3   OH253010   4.945   3.382   5.663  0.2984 -0.4193 -0.7420
10532TIP3    H153011   4.901   3.462   5.691 -0.5105 -1.6479  1.9076
10532TIP3    H253012   4.883   3.339   5.605 -0.9802 -0.8649  0.8648
10533TIP3   OH253013   5.138   2.809  11.608 -0.4821 -0.0258 -0.2235
10533TIP3    H153014   5.216   2.807  11.553  0.3545  0.0982  0.9387
10533TIP3    H253015   5.106   2.719  11.608  1.5570 -0.8541  1.9079
10534TIP3   OH253016   0.185   4.870   0.167 -0.5030  0.3086  0.2599
10534TIP3    H153017   0.090   4.866   0.176 -0.3504 -1.5756  1.6093
10534TIP3    H253018   0.202   4.839   0.078 -1.1736  1.7547 -0.4003
10535TIP3   OH253019   3.412   0.072  11.175  0.0920 -0.7747  0.7022
10535TIP3    H153020   3.430   0.164  11.157  1.1564 -0.8725  1.1877
10535TIP3    H253021   3.322   0.059  11.147  0.7356 -0.2321 -1.8585
10536TIP3   OH253022   4.535   0.657   2.334 -0.1552  0.2253  0.3782
10536TIP3    H153023   4.454   0.696   2.299  0.3335 -0.0034 -1.1067
10536TIP3    H253024   4.584   0.632   2.256  0.9495 -0.4802  1.2766
10537TIP3   OH253025   3.405   2.609  12.177 -0.3116  0.0533 -0.3593
10537TIP3    H153026   3.469   2.562  12.230 -0.7622 -0.0388  0.1054
10537TIP3    H253027   3.438   2.601  12.088  0.4427  0.1911 -0.1012
10538TIP3   OH253028   0.647   1.970  15.869  0.2363  0.3938  0.3242
10538TIP3    H153029   0.667   1.917  15.946 -0.6199 -0.5298 -0.0659
10538TIP3    H253030   0.691   1.924  15.797 -0.9701 -0.1379 -0.1042
10539TIP3   OH253031   6.260   2.544  14.690 -0.6555 -0.3917 -0.4141
10539TIP3    H153032   6.281   2.609  14.757 -0.5686  0.8674 -1.6332
10539TIP3    H253033   6.336   2.543  14.632 -2.2711  1.5696 -2.8058
10540TIP3   OH253034   0.701   2.532  10.903 -0.4833  0.0184  0.1500
10540TIP3    H153035   0.671   2.611  10.857 -0.1041  0.2917  0.3625
10540TIP3    H253036   0.693   2.462  10.839  0.3580  0.4582 -0.4407
10541TIP3   OH253037   0.095   1.391  12.039 -0.3287  0.1086 -0.0796
10541TIP3    H153038   0.160   1.443  12.086  1.2917 -1.0176 -0.9494
10541TIP3    H253039   0.098   1.426  11.949 -0.4628 -0.3691 -0.2706
10542TIP3   OH253040   2.360   2.221  12.542 -0.3170  0.5237  0.5657
10542TIP3    H153041   2.272   2.202  12.508  0.4379  0.1729 -1.3174
10542TIP3    H253042   2.358   2.189  12.632 -2.4757  1.6217  0.9747
10543TIP3   OH253043   5.042   5.120   1.291  0.7397 -0.3193  0.5459
10543TIP3    H153044   4.963   5.120   1.344 -0.6009  2.3928 -1.1985
10543TIP3    H253045   5.054   5.212   1.266  2.1561 -1.1889 -2.4871
10544TIP3   OH253046   6.191   5.448   4.541 -0.3678  0.6538  0.1996
10544TIP3    H153047   6.170   5.422   4.630 -1.4412 -0.1036 -0.2482
10544TIP3    H253048   6.114   5.422   4.490  0.9999 -0.7460 -1.2792
10545TIP3   OH253049   2.967   1.392  14.648 -0.3289 -0.0006 -0.0259
10545TIP3    H153050   2.958   1.479  14.687 -2.5831  0.6531 -1.7642
10545TIP3    H253051   2.929   1.333  14.713  0.7556  0.3342  0.9521
10546TIP3   OH253052   4.774   4.222  13.846  0.4436 -0.1453  0.3381
10546TIP3    H153053   4.832   4.165  13.795  0.7488  1.3607 -1.1082
10546TIP3    H253054   4.730   4.276  13.780 -2.7673 -1.3092  1.3584
10547TIP3   OH253055   1.149   0.425   1.079  0.0300 -0.4201  0.5917
10547TIP3    H153056   1.078   0.427   1.143  0.3620 -0.7578  0.9760
10547TIP3    H253057   1.129   0.497   1.019 -0.9960 -0.9276  0.3045
10548TIP3   OH253058   4.123   5.185   1.606  0.3041  0.1141 -0.3203
10548TIP3    H153059   4.103   5.159   1.516  2.9285  0.5647 -1.1089
10548TIP3    H253060   4.135   5.103   1.654  1.5618 -0.1677 -1.0772
10549TIP3   OH253061   2.633   4.024  15.830  0.1896  0.0321 -0.6465
10549TIP3    H153062   2.654   3.968  15.904  0.5450  0.4386 -0.4351
10549TIP3    H253063   2.664   4.111  15.855 -1.4782  0.6112 -0.4378
10550TIP3   OH253064   1.145   5.335   5.550 -0.0380 -0.1317 -0.0168
10550TIP3    H153065   1.153   5.318   5.644  1.5941  2.6893  0.4997
10550TIP3    H253066   1.051   5.344   5.535 -0.4838 -2.6349  0.8601
10551TIP3   OH253067   6.035   2.448   1.224 -0.3771  0.1777  0.3345
10551TIP3    H153068   6.005   2.383   1.288  1.4664 -0.9531  0.1027
10551TIP3    H253069   6.088   2.398   1.162  0.9343  1.8771  0.0421
10552TIP3   OH253070   0.799   6.364   1.247 -0.1395  0.0172  0.4266
10552TIP3    H153071   0.757   6.286   1.210  0.7160 -0.5784  0.6684
10552TIP3    H253072   0.732   6.404   1.301 -0.8725 -0.0521 -0.4148
10553TIP3   OH253073   0.324   3.766  17.071  0.2247  0.8308  0.6115
10553TIP3    H153074   0.364   3.690  17.112  0.8034  0.8871  0.1699
10553TIP3    H253075   0.239   3.775  17.114  0.1424 -0.0728  0.6537
10554TIP3   OH253076   3.361   2.658  16.184 -0.2554  0.4897 -0.5622
10554TIP3    H153077   3.428   2.597  16.216 -0.1307  0.5403 -0.7222
10554TIP3    H253078   3.379   2.739  16.231 -2.1178 -0.3254  1.7294
10555TIP3   OH253079   5.232   4.514   2.907  0.3282  0.2862 -0.4370
10555TIP3    H153080   5.182   4.453   2.853  3.2359 -0.9185 -2.0117
10555TIP3    H253081   5.272   4.574   2.845 -0.2566  2.1210  0.8777
10556TIP3   OH253082   2.145   2.586  12.633  0.4001 -0.3039 -0.7891
10556TIP3    H153083   2.221   2.559  12.684 -0.9600 -1.0889  0.9154
10556TIP3    H253084   2.091   2.507  12.625 -1.5329  0.7867  0.4782
10557TIP3   OH253085   5.629   5.087   2.133  0.0118  0.2687 -0.4849
10557TIP3    H153086   5.581   5.168   2.118  1.0641  0.9737 -0.1951
10557TIP3    H253087   5.719   5.108   2.107  0.0519 -1.2270 -1.7288
10558TIP3   OH253088   4.006   1.858   0.630 -0.2530 -0.3371  0.2603
10558TIP3    H153089   3.995   1.941   0.676 -2.7030 -0.2175 -0.3759
10558TIP3    H253090   4.024   1.883   0.540  2.2080 -0.5726  0.6141
10559TIP3   OH253091   2.065   5.363   5.220  0.3505 -0.0534  0.2106
10559TIP3    H153092   1.978   5.396   5.199 -0.0358 -1.0009  0.2744
10559TIP3    H253093   2.123   5.410   5.161 -0.5872 -1.8188 -2.2792
10560TIP3   OH253094   3.533   6.331  16.685 -0.4015 -0.3933  0.4978
10560TIP3    H153095   3.584   6.412  16.683 -0.3839 -0.4069 -1.6778
10560TIP3    H253096   3.443   6.359  16.666 -1.2608 -0.4294  3.8126
10561TIP3   OH253097   2.471   4.863   0.550 -0.1140  0.6785  0.1751
10561TIP3    H153098   2.440   4.945   0.588 -0.1804  2.2482 -2.8907
10561TIP3    H253099   2.555   4.847   0.592 -0.6706  1.6146  1.7261
10562TIP3   OH253100   0.373   5.506  12.187  0.2201 -0.4719 -0.0660
10562TIP3    H153101   0.446   5.544  12.139  0.6757 -0.5064  0.5871
10562TIP3    H253102   0.369   5.556  12.269  0.4225 -1.3982  0.5259
10563TIP3   OH253103   1.441   5.294   2.658  0.1009  0.7371 -0.2921
10563TIP3    H153104   1.440   5.282   2.563  1.5967 -0.5295 -0.1974
10563TIP3    H253105   1.455   5.206   2.693  2.9144  1.5423  0.9390
10564TIP3   OH253106   0.620   3.672   3.679 -0.4422  0.3094  0.0811
10564TIP3    H153107   0.621   3.602   3.614 -0.1579  0.6045 -0.2457
10564TIP3    H253108   0.648   3.631   3.760 -0.3428  0.0310 -0.0931
10565TIP3   OH253109   2.787   3.977   3.268 -0.1938  0.3969 -0.4103
10565TIP3    H153110   2.840   4.041   3.220 -0.2207 -0.3606 -1.4682
10565TIP3    H253111   2.751   4.027   3.341  2.4636  0.8196  0.7532
10566TIP3   OH253112   3.689   1.402  12.833 -0.1252 -0.9093  1.1894
10566TIP3    H153113   3.704   1.309  12.845 -1.5649 -1.3303  0.0502
10566TIP3    H253114   3.598   1.409  12.805  0.4200  0.6662 -0.4381
10567TIP3   OH253115   4.415   1.260   0.902 -0.2074  0.3569 -0.5534
10567TIP3    H153116   4.400   1.322   0.831 -1.2603 -0.1843 -0.8214
10567TIP3    H253117   4.421   1.175   0.859 -0.0923  0.1183 -0.0707
10568TIP3   OH253118   3.789   6.475   3.230 -0.0369  0.0132 -0.2715
10568TIP3    H153119   3.832   6.472   3.144  0.5305  0.3699 -0.0091
10568TIP3    H253120   3.862   6.485   3.292 -0.4314 -0.3739  0.2590
10569TIP3   OH253121   1.874   6.564   4.019  0.1637 -0.2023  0.8334
10569TIP3    H153122   1.940   6.502   3.989 -1.0737 -0.8802 -0.5863
10569TIP3    H253123   1.917   6.612   4.090  2.6188  0.2378 -0.8206
10570TIP3   OH253124   4.231   3.886   2.008  0.4088  0.5098 -0.0085
10570TIP3    H153125   4.135   3.887   2.011  0.4215  1.8879  1.3113
10570TIP3    H253126   4.255   3.794   2.012 -0.8279  0.2329  2.8776
10571TIP3   OH253127   5.948   2.721   5.148 -0.1418  0.0012  0.4340
10571TIP3    H153128   5.891   2.741   5.222 -0.7514  1.3321 -0.3458
10571TIP3    H253129   5.955   2.804   5.101  0.4504 -0.7432 -0.8419
10572TIP3   OH253130   5.511   2.134  14.075  0.0809  0.0884  0.0779
10572TIP3    H153131   5.443   2.192  14.108 -0.8048 -0.0447 -1.4520
10572TIP3    H253132   5.553   2.182  14.004  0.6598 -0.3689  0.0964
10573TIP3   OH253133   1.207   3.983  11.092  0.3052 -0.6136  0.1622
10573TIP3    H153134   1.186   4.066  11.050  1.3133 -0.4322 -0.0197
10573TIP3    H253135   1.138   3.923  11.063 -0.0772 -0.0023 -0.2122
10574TIP3   OH253136   4.686   5.756   3.809  0.2379  0.2895 -0.1692
10574TIP3    H153137   4.651   5.679   3.853 -0.5499  0.4717 -0.4602
10574TIP3    H253138   4.723   5.809   3.879 -2.6532  1.4783  0.6375
10575TIP3   OH253139   5.967   2.267  15.742  0.2362  0.0015  0.1946
10575TIP3    H153140   5.902   2.320  15.696  0.6915  0.6038  0.2193
10575TIP3    H253141   5.970   2.184  15.694 -0.9442 -0.2475  0.5293
10576TIP3   OH253142   5.150   4.786  15.788  0.0181  0.1963 -0.4753
10576TIP3    H153143   5.061   4.813  15.812  0.2692 -0.1736  1.0120
10576TIP3    H253144   5.144   4.690  15.781  0.6424 -0.0225  1.4117
10577TIP3   OH253145   4.377   1.088  16.171  0.1209  0.0684  0.0104
10577TIP3    H153146   4.375   1.175  16.210 -2.2475 -0.1327  0.5072
10577TIP3    H253147   4.307   1.089  16.106 -0.3564 -1.6149  0.4339
10578TIP3   OH253148   5.427   4.765  13.827 -0.1644 -0.0292 -0.7640
10578TIP3    H153149   5.508   4.815  13.831  0.5015 -1.0129 -1.3042
10578TIP3    H253150   5.358   4.829  13.839  0.7242  0.6478  1.0694
10579TIP3   OH253151   1.467   3.541   4.433  0.2056  0.0116  0.2797
10579TIP3    H153152   1.419   3.585   4.504 -0.5684 -0.5006  0.0879
10579TIP3    H253153   1.542   3.598   4.417 -1.6927  2.3228 -1.2330
10580TIP3   OH253154   4.331   0.679  14.002  0.0104 -0.0603  0.4306
10580TIP3    H153155   4.396   0.729  13.953 -1.2689  0.4970 -0.7642
10580TIP3    H253156   4.346   0.588  13.975 -0.0302  0.1252 -0.2328
10581TIP3   OH253157   1.003   5.224   6.222  0.3730  0.2537 -0.3927
10581TIP3    H153158   1.071   5.268   6.172 -0.4903 -0.4550 -2.2702
10581TIP3    H253159   1.050   5.159   6.274  1.1258 -0.7532 -2.2284
10582TIP3   OH253160   3.408   4.002   4.917  0.0116  0.1327 -0.0271
10582TIP3    H153161   3.362   4.083   4.894 -1.1675 -0.4792  0.0758
10582TIP3    H253162   3.464   3.985   4.841 -1.4302 -0.1410 -1.0997
10583TIP3   OH253163   5.593   4.991  12.765 -0.1778  0.1919  0.3045
10583TIP3    H153164   5.671   5.045  12.777 -1.2310  1.5814  1.2083
10583TIP3    H253165   5.552   4.988  12.852 -1.0073 -0.6962 -0.1017
10584TIP3   OH253166   6.131   0.093   2.531 -0.2230 -0.5258 -0.1828
10584TIP3    H153167   6.200   0.059   2.588 -1.1138 -1.9612  0.0938
10584TIP3    H253168   6.169   0.171   2.491  0.7488  0.0448  1.7040
10585TIP3   OH253169   6.314   4.367  13.830 -0.0673 -0.1483 -0.0063
10585TIP3    H153170   6.388   4.334  13.780  1.1096  0.5982  1.1959
10585TIP3    H253171   6.352   4.405  13.909 -1.5623  1.7510 -0.1149
10586TIP3   OH253172   4.760   1.635   4.366  0.0834 -0.0834 -0.5203
10586TIP3    H153173   4.815   1.709   4.340 -0.0790 -0.2771 -1.4423
10586TIP3    H253174   4.685   1.675   4.410 -1.7579  0.6240 -3.9688
10587TIP3   OH253175   6.495   0.977  13.398 -0.2826  0.1406  0.0022
10587TIP3    H153176   6.420   0.944  13.447 -0.0072  0.4917  0.6716
10587TIP3    H253177   6.571   0.938  13.442 -0.0877 -0.6428 -0.9962
10588TIP3   OH253178   2.642   6.458  14.884  0.3374 -0.6062 -0.0139
10588TIP3    H153179   2.713   6.493  14.831 -0.0706 -0.8840 -0.7649
10588TIP3    H253180   2.567   6.515  14.864  0.6953  0.6382  1.9243
10589TIP3   OH253181   4.481   4.960   1.333  0.2981  0.4137  0.6213
10589TIP3    H153182   4.485   4.928   1.423  0.3682  0.4179  0.6203
10589TIP3    H253183   4.439   5.045   1.340 -0.4157  0.0719  0.5558
10590TIP3   OH253184   6.035   3.422  15.384  0.1304  0.1009 -0.0016
10590TIP3    H153185   6.035   3.392  15.293 -0.8687 -1.5091  0.4768
10590TIP3    H253186   5.944   3.409  15.412  0.1522  1.6880  0.8935
10591TIP3   OH253187   1.407   6.384   4.602  0.6742 -0.0526  0.2002
10591TIP3    H153188   1.315   6.373   4.626  0.6786 -0.3818  0.0653
10591TIP3    H253189   1.428   6.307   4.550  0.0955  1.5164 -2.5818
10592TIP3   OH253190   1.895   2.731   0.204  0.7135 -0.0578  0.1379
10592TIP3    H153191   1.940   2.658   0.247 -0.5568 -0.5795  0.6247
10592TIP3    H253192   1.868   2.788   0.276 -0.7387 -0.5365  0.0117
10593TIP3   OH253193   1.609   0.976  13.725 -0.3759  0.6404 -0.5055
10593TIP3    H153194   1.702   0.993  13.708 -0.2833  0.4017 -0.2395
10593TIP3    H253195   1.604   0.961  13.819 -0.6811  0.6269 -0.5236
10594TIP3   OH253196   2.252   0.989   1.338 -0.2534 -0.7759 -0.2315
10594TIP3    H153197   2.173   0.935   1.347 -1.7805  1.4577  0.9099
10594TIP3    H253198   2.284   1.000   1.428  0.7752 -0.8175 -0.5818
10595TIP3   OH253199   1.562   6.093   3.004  0.0849  0.3090 -0.0661
10595TIP3    H153200   1.652   6.090   3.035  0.0848  1.5801  0.1292
10595TIP3    H253201   1.560   6.034   2.928  0.8820 -0.3157  0.3882
10596TIP3   OH253202   1.038   6.328  14.201  0.2266  0.0360 -0.8337
10596TIP3    H153203   1.097   6.370  14.263  1.0700 -0.2446 -1.4291
10596TIP3    H253204   1.042   6.235  14.222 -3.8004  0.2846  2.3755
10597TIP3   OH253205   6.603   6.434  12.788 -0.1521 -0.1703 -0.0695
10597TIP3    H153206   6.532   6.497  12.800 -0.6515 -1.0187  1.7863
10597TIP3    H253207   6.558   6.351  12.770  0.4230 -0.3789 -0.5534
10598TIP3   OH253208   3.431   5.964  14.501 -0.1909 -0.8612 -0.2113
10598TIP3    H153209   3.523   5.981  14.518 -0.5437  1.1332 -0.1539
10598TIP3    H253210   3.421   5.980  14.407 -0.6572 -0.1608 -0.0463
10599TIP3   OH253211   2.622   0.853  14.650  0.3193 -0.3302 -0.0936
10599TIP3    H153212   2.646   0.943  14.669  3.0441 -1.6066  3.5424
10599TIP3    H253213   2.536   0.842  14.692 -0.5184  0.7512 -1.4465
10600TIP3   OH253214   2.389   4.961  16.435  0.0181 -0.2418  0.0156
10600TIP3    H153215   2.480   4.938  16.418 -0.7265 -3.9239  0.1562
10600TIP3    H253216   2.388   4.991  16.525  1.0573 -0.4477  0.1058
10601TIP3   OH253217   0.014   4.800  16.959  0.2194  0.1592  0.1761
10601TIP3    H153218  -0.001   4.708  16.984 -0.3359  0.2821  0.3034
10601TIP3    H253219  -0.012   4.850  17.036  0.2614  0.4377  0.0109
10602TIP3   OH253220   2.568   1.305  15.105  0.4520  0.5201  0.1829
10602TIP3    H153221   2.598   1.392  15.082  0.1449  0.6928  0.4313
10602TIP3    H253222   2.474   1.315  15.121  0.6962  0.4522  1.7496
10603TIP3   OH253223   6.392   4.703  16.751 -0.2306 -0.2288 -0.8946
10603TIP3    H153224   6.305   4.670  16.771 -0.1107  0.0156  0.0849
10603TIP3    H253225   6.437   4.630  16.709 -0.6819 -0.5825 -0.7664
10604TIP3   OH253226   6.076   5.629   6.158  0.4475 -0.0877 -0.0785
10604TIP3    H153227   6.055   5.565   6.226 -0.7425  0.0168 -0.3181
10604TIP3    H253228   6.068   5.580   6.076 -0.2690  0.3034 -0.2522
10605TIP3   OH253229   3.267   5.183  16.167  0.0831  0.6475 -0.1958
10605TIP3    H153230   3.174   5.209  16.165  0.6903  3.1930  0.3807
10605TIP3    H253231   3.291   5.191  16.259  0.9283  0.1870 -0.3748
10606TIP3   OH253232   5.252   2.440   1.321 -0.0535 -0.3252 -0.3705
10606TIP3    H153233   5.251   2.456   1.227  1.0801 -1.5859 -0.6344
10606TIP3    H253234   5.200   2.511   1.359  0.1212  0.6344 -1.8753
10607TIP3   OH253235   3.595   0.012   4.706  0.6978 -0.4397  0.5815
10607TIP3    H153236   3.623  -0.015   4.619  1.8389  1.0010  0.4673
10607TIP3    H253237   3.601  -0.068   4.759  0.2474 -1.2696 -0.5757
10608TIP3   OH253238   3.593   3.862  13.087 -0.5624 -0.0360  0.5667
10608TIP3    H153239   3.676   3.848  13.132 -1.0285  0.8726  1.7805
10608TIP3    H253240   3.604   3.819  13.002  1.3829  0.6140  0.4243
10609TIP3   OH253241   5.628   5.056   0.191 -0.1727 -0.6847 -0.1940
10609TIP3    H153242   5.671   5.118   0.250  1.0675 -0.8732 -0.8483
10609TIP3    H253243   5.554   5.104   0.155  0.7162  0.4015 -0.6191
10610TIP3   OH253244   3.294   0.135  10.807  0.4967  0.0538 -1.1183
10610TIP3    H153245   3.368   0.179  10.849 -1.5056  1.8887  0.7021
10610TIP3    H253246   3.231   0.122  10.877 -0.6257 -2.2277 -2.4468
10611TIP3   OH253247   3.384   1.834  15.812 -0.4667  0.1041  0.0492
10611TIP3    H153248   3.471   1.871  15.798 -0.1049  0.1145  2.0365
10611TIP3    H253249   3.394   1.780  15.891 -1.8499 -1.3216 -0.6967
10612TIP3   OH253250   3.290   4.719  11.317 -0.4743 -0.6143  0.5002
10612TIP3    H153251   3.292   4.681  11.405  0.7133 -1.1288  0.2721
10612TIP3    H253252   3.379   4.752  11.304  0.0644 -2.6022 -1.3622
10613TIP3   OH253253   3.865   2.525   4.545  0.1992  0.5391  0.7934
10613TIP3    H153254   3.862   2.610   4.500  0.8924  1.3358  2.1803
10613TIP3    H253255   3.953   2.492   4.528  0.6903  1.1382  2.0032
10614TIP3   OH253256   2.160   3.859  13.455 -0.4691  0.0519  0.3181
10614TIP3    H153257   2.166   3.773  13.496 -1.0489  0.2138  0.7586
10614TIP3    H253258   2.163   3.921  13.529 -0.5871  0.3878  0.0426
10615TIP3   OH253259   6.396   2.063   1.848 -0.3090 -0.4522  0.2549
10615TIP3    H153260   6.410   2.128   1.779 -1.6996  0.0491  0.4190
10615TIP3    H253261   6.472   2.072   1.905  0.0872  0.2104 -0.3588
10616TIP3   OH253262   5.312   5.272  13.662 -0.0139 -0.2275  0.5247
10616TIP3    H153263   5.366   5.328  13.716  0.3870  0.0852 -0.1913
10616TIP3    H253264   5.224   5.310  13.667  0.0479 -0.1324  0.8591
10617TIP3   OH253265   6.239   1.644   5.165  0.3362 -0.0088 -0.3193
10617TIP3    H153266   6.252   1.668   5.257 -0.7169 -1.0988  0.1231
10617TIP3    H253267   6.150   1.611   5.161  0.1591  0.5890 -1.8726
10618TIP3   OH253268   4.854   0.550   1.438 -0.1737 -0.0085 -0.3621
10618TIP3    H153269   4.794   0.551   1.363  1.5535 -2.0308 -1.8971
10618TIP3    H253270   4.928   0.604   1.409  0.5530 -0.8837 -0.1684
10619TIP3   OH253271   2.492   1.137   1.257 -0.1556  0.3185 -0.7652
10619TIP3    H153272   2.577   1.102   1.283  0.2064 -0.2521 -2.6009
10619TIP3    H253273   2.428   1.083   1.303  0.4601 -0.1206 -0.4185
10620TIP3   OH253274   5.153   2.717  10.698  0.1933 -0.1390  0.3771
10620TIP3    H153275   5.175   2.802  10.737 -1.3631  0.3969  0.1674
10620TIP3    H253276   5.232   2.691  10.652 -0.1266  2.6800 -2.1282
10621TIP3   OH253277   4.376   4.231   1.362  0.7297  0.3231  0.2254
10621TIP3    H153278   4.430   4.298   1.403 -0.1537  1.0641  0.2024
10621TIP3    H253279   4.429   4.151   1.368  2.7100  1.3847 -1.6245
10622TIP3   OH253280   1.869   5.421   0.863  0.0389 -0.0158 -0.7097
10622TIP3    H153281   1.847   5.448   0.774 -2.5013 -0.3825 -0.2729
10622TIP3    H253282   1.869   5.502   0.914  0.7619  0.1034 -0.8858
10623TIP3   OH253283   6.356   4.324   5.595  0.2805  0.0803  0.6233
10623TIP3    H153284   6.280   4.282   5.634  0.1302 -0.5998 -0.3829
10623TIP3    H253285   6.325   4.410   5.568 -0.1461 -0.2103  0.1810
10624TIP3   OH253286   2.612   3.636  13.967 -0.2215 -0.2709  0.1803
10624TIP3    H153287   2.585   3.574  13.899 -0.5175  0.6007 -0.5202
10624TIP3    H253288   2.707   3.632  13.966 -0.1749  0.5795 -1.1216
10625TIP3   OH253289   1.204   3.697  12.971  0.2678 -0.0336 -0.5352
10625TIP3    H153290   1.250   3.776  12.941  0.0913 -0.9690 -3.4710
10625TIP3    H253291   1.273   3.632  12.984  0.3014  0.2430  0.8857
10626TIP3   OH253292   1.159   3.671   1.659  0.1562 -0.2718 -0.5856
10626TIP3    H153293   1.138   3.764   1.667  0.7339 -0.1789 -0.0476
10626TIP3    H253294   1.108   3.642   1.584 -0.0741  0.4676 -0.7310
10627TIP3   OH253295   1.100   5.216  10.219  0.3308 -0.7579 -0.7141
10627TIP3    H153296   1.062   5.134  10.251  1.2316 -1.1023 -0.4773
10627TIP3    H253297   1.032   5.255  10.166 -0.9300 -0.5796  0.9480
10628TIP3   OH253298   2.353   0.661  12.884  0.0420 -0.5748 -0.9490
10628TIP3    H153299   2.440   0.627  12.866 -0.2511 -0.2947 -3.3164
10628TIP3    H253300   2.350   0.673  12.979  2.0510 -1.9312 -0.6547
10629TIP3   OH253301   1.533   4.311   5.273 -0.3913  0.2156  0.1673
10629TIP3    H153302   1.562   4.222   5.250  0.1017  0.4141 -0.0014
10629TIP3    H253303   1.585   4.333   5.350 -1.4625 -0.1385  1.0149
10630TIP3   OH253304   6.674   4.764  12.937 -0.2363  1.3394 -0.0978
10630TIP3    H153305   6.625   4.796  12.861  0.9836  0.6161 -1.2266
10630TIP3    H253306   6.680   4.669  12.924 -1.6744  0.8908  1.9307
10631TIP3   OH253307   5.293   3.513  12.964 -0.1205 -0.2840  0.1519
10631TIP3    H153308   5.358   3.508  12.894  0.2335 -1.7647  0.5590
10631TIP3    H253309   5.246   3.595  12.947 -1.3956 -1.5169 -3.0002
10632TIP3   OH253310   5.177   3.518  13.989  0.0989 -0.2739 -0.4492
10632TIP3    H153311   5.119   3.445  13.965  1.5070 -2.1279  1.3542
10632TIP3    H253312   5.186   3.510  14.084  1.2605  1.5405 -0.3724
10633TIP3   OH253313   3.213   4.276  16.427 -0.2987 -0.5944  0.0364
10633TIP3    H153314   3.174   4.241  16.507  0.4030 -1.9002 -0.1608
10633TIP3    H253315   3.145   4.332  16.389 -1.4234 -1.6234  0.4743
10634TIP3   OH253316   4.170   4.459   5.328  0.1314 -0.4849  0.3087
10634TIP3    H153317   4.240   4.519   5.353  0.3257 -0.5507 -0.0810
10634TIP3    H253318   4.215   4.384   5.290  0.0244 -1.6759  2.3389
10635TIP3   OH253319   5.160   6.059   0.235  0.1287 -0.3544 -0.1352
10635TIP3    H153320   5.204   6.080   0.318 -1.0592  2.3801 -0.0750
10635TIP3    H253321   5.229   6.069   0.169  0.8107 -1.4038  0.3940
10636TIP3   OH253322   2.700   3.157   1.542 -0.2860  0.1079 -0.0037
10636TIP3    H153323   2.746   3.076   1.565  1.1524  1.3136  1.5806
10636TIP3    H253324   2.608   3.131   1.536 -0.1295 -1.2942  2.4222
10637TIP3   OH253325   1.698   5.309  16.904 -0.3581  0.1340 -0.4723
10637TIP3    H153326   1.651   5.385  16.870 -0.1831 -0.3184 -1.7886
10637TIP3    H253327   1.674   5.305  16.997 -0.1393  1.9572 -0.3073
10638TIP3   OH253328   4.145   5.207   3.654 -0.4142  0.3092  0.1592
10638TIP3    H153329   4.233   5.175   3.672 -0.9492 -0.3082  1.8660
10638TIP3    H253330   4.132   5.191   3.560  1.8291  1.8868 -0.5174
10639TIP3   OH253331   3.200   3.944   1.242  0.3297  0.2419 -0.0085
10639TIP3    H153332   3.292   3.924   1.226  0.2027 -0.3318 -0.0102
10639TIP3    H253333   3.203   4.014   1.309  0.7604  0.1708  0.0507
10640TIP3   OH253334   4.821   2.368  15.057  0.1264  0.4530  0.0636
10640TIP3    H153335   4.780   2.287  15.027  0.0291  0.3404  0.4932
10640TIP3    H253336   4.908   2.341  15.089 -0.1770  0.3957  0.8761
10641TIP3   OH253337   2.376   4.732   0.310  0.2564  0.2951  0.6913
10641TIP3    H153338   2.289   4.694   0.321  0.4530 -0.5986 -0.6121
10641TIP3    H253339   2.399   4.765   0.396 -1.6236  1.0971  0.9476
10642TIP3   OH253340   3.249   5.841   2.779 -0.1735 -0.3420  0.2382
10642TIP3    H153341   3.157   5.852   2.803 -0.3027 -0.5480 -0.1530
10642TIP3    H253342   3.255   5.874   2.689  0.0445 -0.7200  0.1091
10643TIP3   OH253343   1.184   4.985  13.621  0.2904 -0.3558  0.1478
10643TIP3    H153344   1.108   5.022  13.665  0.0865 -1.4806  0.7752
10643TIP3    H253345   1.259   5.033  13.656 -0.0876  0.5138 -0.2131
10644TIP3   OH253346   2.612   3.236   2.933 -0.0020  0.0958 -0.1559
10644TIP3    H153347   2.596   3.330   2.923 -0.0309  0.3454  1.8757
10644TIP3    H253348   2.697   3.222   2.891  0.2569  1.1280  0.0009
10645TIP3   OH253349   1.014   2.490  13.991 -0.3592 -0.1504  0.1968
10645TIP3    H153350   1.108   2.480  13.999 -0.0619  1.5518 -0.7481
10645TIP3    H253351   0.991   2.560  14.052 -0.6739  0.8291 -0.9913
10646TIP3   OH253352   2.720   5.973   1.532 -0.1117 -0.7322  0.0150
10646TIP3    H153353   2.757   5.975   1.444 -1.9043 -1.1490 -0.7955
10646TIP3    H253354   2.644   6.031   1.528  0.7800  0.6478  1.8023
10647TIP3   OH253355   5.699   6.730  16.528  0.0643 -0.3144 -0.0149
10647TIP3    H153356   5.704   6.683  16.445  1.2392 -0.8526  0.3300
10647TIP3    H253357   5.611   6.713  16.560 -0.1495 -0.7289 -0.7843
10648TIP3   OH253358   0.946   3.967  15.686  0.2750  0.1074  0.4885
10648TIP3    H153359   0.987   3.947  15.602 -0.2553  1.1870 -0.0611
10648TIP3    H253360   0.866   3.914  15.687 -0.9783  1.8166 -0.8248
10649TIP3   OH253361   1.522   4.465   3.702 -0.0456  0.1539  0.2039
10649TIP3    H153362   1.594   4.529   3.699  0.2186 -0.1783 -0.9109
10649TIP3    H253363   1.556   4.395   3.758  0.3648  0.1515 -0.0419
10650TIP3   OH253364   6.309   1.169  12.925  0.2245  0.0972 -1.0373
10650TIP3    H153365   6.299   1.209  13.011  2.6987 -0.1363 -0.5519
10650TIP3    H253366   6.224   1.129  12.906 -1.2527  2.5522 -0.0111
10651TIP3   OH253367   5.346   1.309   4.251  0.3071 -0.3483  0.2836
10651TIP3    H153368   5.434   1.283   4.279  1.0406  1.4855 -0.1524
10651TIP3    H253369   5.323   1.381   4.310 -0.6210 -0.3643 -0.0497
10652TIP3   OH253370   4.515   1.230  12.805 -0.4198 -0.5032  0.0147
10652TIP3    H153371   4.599   1.196  12.774  0.3247 -0.6978  2.0641
10652TIP3    H253372   4.488   1.168  12.873 -0.6114  1.2411  1.6266
10653TIP3   OH253373   5.568   0.801   0.891  0.1514  0.4216  0.1693
10653TIP3    H153374   5.663   0.810   0.893  0.4799 -1.5891  4.0448
10653TIP3    H253375   5.545   0.804   0.798  3.9716  0.8358 -0.9346
10654TIP3   OH253376   1.428   0.690  15.247 -0.3074 -0.6492  0.0980
10654TIP3    H153377   1.414   0.645  15.163  0.4430 -1.2482  0.2740
10654TIP3    H253378   1.513   0.733  15.236  0.0787 -1.2280  0.7500
10655TIP3   OH253379   2.944   1.400  14.328  0.5025  0.3820  0.2543
10655TIP3    H153380   3.024   1.369  14.284  0.4375  2.5216 -1.5608
10655TIP3    H253381   2.967   1.401  14.421  1.1104 -3.0382  0.2504
10656TIP3   OH253382   6.312   4.492   1.168 -0.1159 -0.2869  0.4079
10656TIP3    H153383   6.268   4.419   1.212 -0.4995  0.0594  0.6029
10656TIP3    H253384   6.243   4.536   1.119  0.0154  0.2361  0.6798
10657TIP3   OH253385   3.832   1.684   0.769 -0.0420  0.4591 -0.0559
10657TIP3    H153386   3.865   1.685   0.859 -1.5976  1.5833  0.5621
10657TIP3    H253387   3.891   1.743   0.721 -1.1060  2.5521  1.0525
10658TIP3   OH253388   1.227   0.628   0.452  0.0589 -0.2184 -0.2288
10658TIP3    H153389   1.299   0.634   0.390 -1.2027  0.0109 -1.7450
10658TIP3    H253390   1.252   0.559   0.513  2.7413  1.6312  0.9619
10659TIP3   OH253391   6.278   6.527  10.606 -0.5350 -0.8387 -0.5691
10659TIP3    H153392   6.239   6.608  10.641  0.4926 -1.2547  1.7464
10659TIP3    H253393   6.204   6.467  10.599 -1.0800 -0.1463 -0.9783
10660TIP3   OH253394   1.585   1.791   3.134  0.1707  0.1104  0.3257
10660TIP3    H153395   1.599   1.784   3.039  0.0437 -0.3005  0.3361
10660TIP3    H253396   1.604   1.703   3.168 -1.9596 -0.3751  0.3969
10661TIP3   OH253397   4.316   5.304  15.854  0.3809  0.3215 -0.5176
10661TIP3    H153398   4.283   5.380  15.902 -1.7125  0.1185 -1.5193
10661TIP3    H253399   4.405   5.328  15.829  0.3668  1.7297  0.6812
10662TIP3   OH253400   4.048   4.626  14.591 -0.0908  0.0269 -0.0671
10662TIP3    H153401   4.130   4.631  14.640 -0.4515 -0.7715  0.6458
10662TIP3    H253402   3.980   4.638  14.657 -0.5692  0.0917 -0.5636
10663TIP3   OH253403   4.649   1.200  12.080 -0.4254  0.5286  0.6355
10663TIP3    H153404   4.737   1.234  12.095 -0.7814  1.2432  1.1688
10663TIP3    H253405   4.662   1.109  12.053  0.4403  0.4410  1.3333
10664TIP3   OH253406   5.387   6.354  14.118 -0.1274  0.4963 -0.4769
10664TIP3    H153407   5.429   6.268  14.114 -1.0680  0.0337 -0.7809
10664TIP3    H253408   5.358   6.370  14.028 -0.4958  0.8519 -0.2948
10665TIP3   OH253409   6.776   1.584  13.392  0.1020 -0.4222  0.3959
10665TIP3    H153410   6.703   1.554  13.337 -0.1900 -1.9810  1.5839
10665TIP3    H253411   6.744   1.665  13.433  0.8267  1.6285 -2.6978
10666TIP3   OH253412   4.397   4.327   4.175 -0.4018 -0.0605 -0.3088
10666TIP3    H153413   4.333   4.256   4.174 -2.7763  1.8923 -2.8573
10666TIP3    H253414   4.401   4.355   4.266 -0.3587 -2.5759  0.5184
10667TIP3   OH253415   0.407   5.424  12.647  0.5081 -0.2208  0.4605
10667TIP3    H153416   0.350   5.444  12.721  2.2184 -0.5598  1.9403
10667TIP3    H253417   0.428   5.331  12.656  1.8557  0.0460  0.4065
10668TIP3   OH253418   3.000   2.643   4.696 -0.2245  0.5855  0.2337
10668TIP3    H153419   3.026   2.677   4.782  0.2362  0.8390 -0.0020
10668TIP3    H253420   2.907   2.620   4.706  0.1382 -0.5629  1.1686
10669TIP3   OH253421   2.165   5.932  12.755 -0.4462 -0.1398  0.7862
10669TIP3    H153422   2.244   5.977  12.726 -0.7849 -0.6025 -0.9781
10669TIP3    H253423   2.093   5.990  12.731 -0.9107 -1.6033 -1.7811
10670TIP3   OH253424   4.784   0.887   4.367 -0.0382  0.3106  0.6738
10670TIP3    H153425   4.734   0.964   4.391  0.0003  0.5726 -0.0509
10670TIP3    H253426   4.773   0.880   4.272 -1.4073 -1.5421  0.9286
10671TIP3   OH253427   1.445   1.466   1.658 -0.2171 -0.0304 -0.4594
10671TIP3    H153428   1.426   1.560   1.654 -1.3498 -0.2461 -0.6170
10671TIP3    H253429   1.362   1.424   1.636  0.0959 -1.0830  0.2756
10672TIP3   OH253430   2.304   4.912   4.706  0.3080 -0.9751  1.0075
10672TIP3    H153431   2.289   4.856   4.782 -1.6993  1.0700  2.2374
10672TIP3    H253432   2.314   5.000   4.742  0.2651 -0.0794 -1.0305
10673TIP3   OH253433   0.639   3.374  15.714 -0.0904 -0.3706  0.4006
10673TIP3    H153434   0.597   3.407  15.793 -0.9606  1.4854 -0.7588
10673TIP3    H253435   0.730   3.362  15.739 -0.2828  0.4829  1.6142
10674TIP3   OH253436   1.934   2.781  15.647 -0.3556  0.3648  0.5385
10674TIP3    H153437   1.916   2.704  15.701  0.3821  0.3554  0.7840
10674TIP3    H253438   1.886   2.852  15.689 -0.2028  0.2466  0.9192
10675TIP3   OH253439   0.076   0.608  10.648 -0.0296  0.3437 -0.1495
10675TIP3    H153440   0.168   0.621  10.668 -0.9035  3.3387  2.8507
10675TIP3    H253441   0.047   0.540  10.709  0.0234 -0.0881 -0.5995
10676TIP3   OH253442   5.918   6.001   4.566  0.2508  0.1099 -0.3561
10676TIP3    H153443   5.991   5.941   4.583  0.9903  1.1397  0.1837
10676TIP3    H253444   5.918   6.060   4.640  0.1427  1.3756 -1.3325
10677TIP3   OH253445   0.105   3.678   1.093 -0.4363  0.1975 -0.2065
10677TIP3    H153446   0.093   3.714   1.180  3.0680 -0.0247  0.5138
10677TIP3    H253447   0.123   3.585   1.107 -0.0331  0.1134 -1.1558
10678TIP3   OH253448   6.356   3.788  11.540 -0.2456 -0.5408  0.1881
10678TIP3    H153449   6.276   3.745  11.509 -0.3860  0.1776 -0.4904
10678TIP3    H253450   6.416   3.783  11.465 -0.4184  0.7927 -0.0737
10679TIP3   OH253451   2.236   1.455  11.256 -0.0078  0.2473 -0.4750
10679TIP3    H153452   2.172   1.454  11.185  0.5227  0.6274 -0.9676
10679TIP3    H253453   2.311   1.405  11.221 -0.4605 -1.1855  0.5094
10680TIP3   OH253454   6.035   4.839   2.176 -0.2936  0.3486 -0.1099
10680TIP3    H153455   5.976   4.885   2.236 -0.4460  1.7841 -1.2876
10680TIP3    H253456   6.122   4.851   2.213 -0.5613 -0.3603  0.7702
10681TIP3   OH253457   2.144   1.921   4.784 -0.1488 -0.2481  0.0024
10681TIP3    H153458   2.068   1.896   4.730 -0.9092  2.0870 -0.1039
10681TIP3    H253459   2.219   1.912   4.725 -0.6116 -0.4812 -0.5627
10682TIP3   OH253460   0.909   2.574   2.095 -0.1171 -0.0837  0.7910
10682TIP3    H153461   0.904   2.652   2.150  0.5659  0.1343  0.5592
10682TIP3    H253462   1.003   2.554   2.090 -0.1844 -0.2433 -0.0810
10683TIP3   OH253463   0.737   0.924  11.322  0.1016 -0.2951  0.3551
10683TIP3    H153464   0.804   0.870  11.279  0.3272 -0.5806  1.0559
10683TIP3    H253465   0.754   0.913  11.416 -0.3503  0.3643  0.5195
10684TIP3   OH253466   2.936   5.853   2.800  0.3754  0.3848  0.5004
10684TIP3    H153467   2.923   5.948   2.804  2.5048  0.7650 -0.2537
10684TIP3    H253468   2.881   5.825   2.727  1.2987  1.3769 -0.6100
10685TIP3   OH253469   3.932   0.338  13.674  0.2104 -0.1592  0.1019
10685TIP3    H153470   4.026   0.342  13.693  0.0318  1.9894  0.8479
10685TIP3    H253471   3.923   0.377  13.587 -0.0102 -0.0774  0.1609
10686TIP3   OH253472   5.626   1.659   0.099 -0.7791  0.3726 -0.2886
10686TIP3    H153473   5.625   1.586   0.160  0.7763 -0.5686 -1.3187
10686TIP3    H253474   5.638   1.736   0.154  1.4572 -0.5186  0.5904
10687TIP3   OH253475   1.573   6.709   1.864 -0.3391 -0.4353  0.1152
10687TIP3    H153476   1.659   6.726   1.903 -1.1280  1.1760  1.2931
10687TIP3    H253477   1.527   6.659   1.931 -0.6835 -0.3236 -0.0400
10688TIP3   OH253478   1.323   0.760   1.485  0.7801  0.2975  0.1631
10688TIP3    H153479   1.310   0.688   1.423 -1.3431  2.5078 -2.1975
10688TIP3    H253480   1.254   0.748   1.551 -0.0713  0.5232 -0.6580
10689TIP3   OH253481   1.295   4.262  15.155  0.2987  0.2295 -0.4361
10689TIP3    H153482   1.235   4.295  15.088 -1.6611 -1.8594  0.1722
10689TIP3    H253483   1.287   4.325  15.227 -1.4124 -0.0974 -0.2853
10690TIP3   OH253484   5.181   5.077  17.147 -0.0113 -0.0571  0.0383
10690TIP3    H153485   5.170   5.022  17.224 -2.4900 -0.0312 -0.2044
10690TIP3    H253486   5.186   5.016  17.073  0.1956 -0.0252  0.0255
10691TIP3   OH253487   3.321   0.684  13.154 -0.2949  0.5127  0.0609
10691TIP3    H153488   3.291   0.609  13.103  0.3693  0.0867  0.2932
10691TIP3    H253489   3.405   0.708  13.115  0.3447  0.0273  1.0918
10692TIP3   OH253490   1.531   5.134   0.313 -0.2473  0.3600 -0.2219
10692TIP3    H153491   1.493   5.102   0.231 -2.4244 -0.1828  0.9044
10692TIP3    H253492   1.569   5.057   0.354  0.8234  0.6270 -0.6944
10693TIP3   OH253493   3.905   2.025  15.446 -0.2386  0.7346  0.3987
10693TIP3    H153494   3.958   2.033  15.526 -0.3918  0.9839  0.4758
10693TIP3    H253495   3.969   2.021  15.375 -0.1247  1.7919  0.4253
10694TIP3   OH253496   4.544   1.820  10.838 -0.4205 -0.0246  0.1355
10694TIP3    H153497   4.502   1.853  10.918  2.4394  1.4167  1.2000
10694TIP3    H253498   4.505   1.872  10.768 -0.9831  0.7111  0.9654
10695TIP3   OH253499   2.684   0.527   6.055  0.6026  0.0947  1.1295
10695TIP3    H153500   2.641   0.610   6.035 -0.8080 -0.8456  0.0642
10695TIP3    H253501   2.616   0.474   6.097  1.2985 -0.7495  1.2280
10696TIP3   OH253502   4.723   1.807   4.758 -0.0489  0.0850  0.1085
10696TIP3    H153503   4.627   1.811   4.761 -0.0105  0.5871  0.9079
10696TIP3    H253504   4.748   1.879   4.700 -0.1195  0.6259  0.7336
10697TIP3   OH253505   2.383   5.743   5.585  0.6140 -0.1052  0.2931
10697TIP3    H153506   2.447   5.814   5.589  1.8655 -1.2449  0.9888
10697TIP3    H253507   2.340   5.746   5.671  2.4025 -1.7098  1.3162
10698TIP3   OH253508   2.964   1.167  11.689 -0.0585  0.3749  0.4230
10698TIP3    H153509   3.048   1.148  11.647 -1.9912 -0.5735 -3.4515
10698TIP3    H253510   2.948   1.091  11.745  1.3968  0.3271  0.8270
10699TIP3   OH253511   4.185   1.408   2.717 -0.1372  0.4114  0.0776
10699TIP3    H153512   4.215   1.499   2.713  1.1105  0.0189  0.0713
10699TIP3    H253513   4.184   1.387   2.810  1.4214 -0.1187  0.0145
10700TIP3   OH253514   6.712   0.507   6.408  0.1068 -0.1233  0.3613
10700TIP3    H153515   6.673   0.476   6.326  0.9736 -0.5231  0.0917
10700TIP3    H253516   6.729   0.427   6.459 -0.8174  0.1447  1.1211
10701TIP3   OH253517   0.630   1.302   5.751  0.0263 -0.8709  0.0772
10701TIP3    H153518   0.665   1.339   5.833 -0.8475 -0.6926  0.3767
10701TIP3    H253519   0.561   1.363   5.725  1.3162 -0.0592 -1.6439
10702TIP3   OH253520   4.736   5.695  15.165 -0.3034 -0.3259 -0.2414
10702TIP3    H153521   4.747   5.634  15.092 -0.4808  0.3190 -0.8127
10702TIP3    H253522   4.819   5.691  15.213  0.7880  1.0808 -1.8974
10703TIP3   OH253523   3.259   2.346  13.848  0.0129  0.4565  0.2747
10703TIP3    H153524   3.273   2.253  13.864 -0.1470  0.5990  1.3496
10703TIP3    H253525   3.348   2.382  13.839  0.1048  0.3260  0.6448
10704TIP3   OH253526   1.342   4.343   1.903  0.1731  0.1707 -0.1859
10704TIP3    H153527   1.333   4.438   1.893 -0.8472  0.0254 -0.7357
10704TIP3    H253528   1.254   4.313   1.925  0.4124 -0.6976 -0.3940
10705TIP3   OH253529   2.893   1.111   0.631 -1.0465 -0.2011 -0.1364
10705TIP3    H153530   2.857   1.136   0.716  2.0795 -0.4575  1.3870
10705TIP3    H253531   2.866   1.020   0.619  1.3414 -1.3902  2.4071
10706TIP3   OH253532   1.518   6.374  15.824  0.2592 -0.2637 -0.6384
10706TIP3    H153533   1.556   6.364  15.911 -0.4021 -0.4149 -0.3635
10706TIP3    H253534   1.563   6.450  15.786  0.4234 -0.0907 -0.0977
10707TIP3   OH253535   3.608   2.710   0.063 -0.2813  0.3535  0.4604
10707TIP3    H153536   3.682   2.762   0.031 -0.0469  0.6456  1.4298
10707TIP3    H253537   3.532   2.765   0.049 -0.2147  0.3716  0.1697
10708TIP3   OH253538   4.694   0.808  15.724 -0.0731 -0.3201  0.1748
10708TIP3    H153539   4.786   0.785  15.730 -0.2759 -0.8674  1.7687
10708TIP3    H253540   4.667   0.779  15.637  1.1508 -0.5241 -0.1513
10709TIP3   OH253541   3.769   4.510   5.954 -0.2059  0.4524 -0.3076
10709TIP3    H153542   3.794   4.536   6.042  1.2648  1.1940 -0.9072
10709TIP3    H253543   3.732   4.590   5.915 -0.1134  0.3572 -0.5990
10710TIP3   OH253544   2.005   5.696   2.217  0.2063 -0.2241  0.3156
10710TIP3    H153545   1.948   5.645   2.160  1.3894 -0.2285 -0.9178
10710TIP3    H253546   1.949   5.764   2.253 -0.1419  1.2889 -2.7687
10711TIP3   OH253547   0.931   6.156  12.551 -0.0586  0.3076 -0.0229
10711TIP3    H153548   0.988   6.092  12.508 -1.0538 -1.3430  0.9871
10711TIP3    H253549   0.990   6.218  12.592  1.1118 -1.6275  1.4218
10712TIP3   OH253550   5.115   0.605  13.132  0.5156 -0.5220  0.8320
10712TIP3    H153551   5.097   0.511  13.128  0.1094 -0.5163  1.9501
10712TIP3    H253552   5.187   0.612  13.195  2.1201 -0.2453 -0.9322
10713TIP3   OH253553   6.538   5.894  14.302 -0.1653 -0.3656  0.2970
10713TIP3    H153554   6.474   5.867  14.236 -0.1405 -0.3553  0.2693
10713TIP3    H253555   6.614   5.838  14.287  0.6221  0.9433 -0.9586
10714TIP3   OH253556   4.395   1.031  13.672 -0.4985 -0.4073  0.2580
10714TIP3    H153557   4.461   1.048  13.604  1.5923 -0.3400  2.1836
10714TIP3    H253558   4.379   0.937  13.666 -1.0448 -0.2576 -0.9013
10715TIP3   OH253559   4.607   0.145  16.349 -0.5387 -0.6354 -0.3106
10715TIP3    H153560   4.550   0.110  16.280 -0.7604 -1.8457  0.4585
10715TIP3    H253561   4.572   0.108  16.430  0.7463 -0.6100  0.2803
10716TIP3   OH253562   4.420   1.584  12.491  0.5776  0.1358  0.4326
10716TIP3    H153563   4.454   1.633  12.567  1.2451 -1.7731  1.4377
10716TIP3    H253564   4.403   1.651  12.425  1.5966  1.6996  1.6735
10717TIP3   OH253565   1.012   0.346  14.213  0.2040  0.3822  0.1551
10717TIP3    H153566   0.919   0.325  14.218  0.6939 -1.7426  1.2932
10717TIP3    H253567   1.057   0.263  14.227  2.3018  1.5174  0.6445
10718TIP3   OH253568   1.190   2.546  16.553 -0.0357  0.3778  0.2710
10718TIP3    H153569   1.217   2.454  16.550  1.9597  0.9040  0.8187
10718TIP3    H253570   1.108   2.545  16.602 -0.0686 -1.1055  0.2394
10719TIP3   OH253571   1.906   2.448   0.013  0.2923 -0.2065 -0.1453
10719TIP3    H153572   1.935   2.482   0.098 -0.3980  0.2074 -0.0605
10719TIP3    H253573   1.983   2.453  -0.043  0.4349  0.7174  0.1083
10720TIP3   OH253574   0.149   5.486  13.588  0.3997  0.2291  0.0791
10720TIP3    H153575   0.067   5.465  13.543  0.1196  0.3088  0.5434
10720TIP3    H253576   0.210   5.509  13.518 -0.0439  0.4010 -0.2532
10721TIP3   OH253577   5.175   0.691  13.939 -0.0861  0.8262  0.0177
10721TIP3    H153578   5.172   0.613  13.995 -2.0065  0.9163  0.1250
10721TIP3    H253579   5.203   0.761  13.998 -0.4170  0.6009  0.4524
10722TIP3   OH253580   5.798   4.208  15.602  0.3792 -0.1965 -0.2534
10722TIP3    H153581   5.880   4.226  15.649  1.0467 -1.1947 -1.0097
10722TIP3    H253582   5.772   4.120  15.630 -1.5703  0.8421  1.5467
10723TIP3   OH253583   2.409   6.176  11.564 -0.9735 -0.1027 -0.2643
10723TIP3    H153584   2.492   6.222  11.549  0.2221 -2.5129 -1.7207
10723TIP3    H253585   2.424   6.126  11.644 -1.6287  0.6328  0.3349
10724TIP3   OH253586   4.495   0.558   5.401 -0.3646 -0.3107  0.8854
10724TIP3    H153587   4.559   0.488   5.390 -0.7555 -0.4326 -1.0629
10724TIP3    H253588   4.538   0.635   5.363 -1.5144 -0.5229 -0.9756
10725TIP3   OH253589   3.271   4.597  14.707 -0.1596 -0.0279  0.5085
10725TIP3    H153590   3.268   4.556  14.621  1.8011 -1.0907  0.8814
10725TIP3    H253591   3.346   4.656  14.703 -1.0058  1.1254  1.0163
10726TIP3   OH253592   1.082   6.541   2.823  0.1799  0.2895 -0.5163
10726TIP3    H153593   1.135   6.579   2.752 -0.2437  1.4882 -0.2211
10726TIP3    H253594   1.020   6.484   2.778  0.9745 -0.2358 -0.9655
10727TIP3   OH253595   6.101   4.135   0.280 -0.3918 -0.8823  0.3210
10727TIP3    H153596   6.195   4.149   0.286 -0.4620 -0.3007  0.0909
10727TIP3    H253597   6.081   4.075   0.353 -0.3041  1.3578  2.3320
10728TIP3   OH253598   6.473   4.656   5.683  0.7178  0.0578  0.1279
10728TIP3    H153599   6.546   4.633   5.626  0.9674  2.0001 -0.4079
10728TIP3    H253600   6.510   4.718   5.746 -0.4046  1.0118 -0.1030
10729TIP3   OH253601   6.783   0.277  13.145 -0.2512 -0.3350 -0.3339
10729TIP3    H153602   6.846   0.308  13.079 -0.3470 -0.6550 -0.5803
10729TIP3    H253603   6.806   0.324  13.224 -1.7698  2.0566 -1.2087
10730TIP3   OH253604   0.166   2.769   3.473  0.1129 -0.4680 -0.0607
10730TIP3    H153605   0.199   2.838   3.416 -0.1449 -0.5535 -0.3150
10730TIP3    H253606   0.126   2.816   3.547 -1.9231 -0.2424 -1.2166
10731TIP3   OH253607   6.655   0.019  13.740  0.0756 -0.2476  0.4215
10731TIP3    H153608   6.743   0.002  13.707  0.2930  0.2399  0.7574
10731TIP3    H253609   6.610   0.061  13.667 -0.0145 -0.8737  0.1038
10732TIP3   OH253610   6.347   4.737   6.031  0.2969  0.0120 -0.2037
10732TIP3    H153611   6.417   4.802   6.032  0.2453  0.1075  2.2230
10732TIP3    H253612   6.341   4.706   6.121 -2.0896 -0.7423 -0.5401
10733TIP3   OH253613   0.588   1.524   4.385  0.1433  0.5860 -0.8714
10733TIP3    H153614   0.557   1.453   4.443  1.3065 -0.5887 -1.6287
10733TIP3    H253615   0.655   1.569   4.436 -0.9281  1.4967 -0.2060
10734TIP3   OH253616   3.208   0.470  11.738  0.0274 -0.0112  0.3156
10734TIP3    H153617   3.255   0.418  11.672  0.1462  0.4295  0.0533
10734TIP3    H253618   3.120   0.479  11.703  0.4211  1.3043 -0.4121
10735TIP3   OH253619   2.592   4.182  16.172 -0.0754 -1.0752 -0.2736
10735TIP3    H153620   2.503   4.167  16.140  0.4293 -0.2856 -2.1876
10735TIP3    H253621   2.586   4.263  16.222  0.1670  1.3371 -3.7460
10736TIP3   OH253622   2.294   3.605   3.937  0.0511 -0.2097  0.3179
10736TIP3    H153623   2.310   3.670   3.869 -0.0471  1.1004  1.4970
10736TIP3    H253624   2.378   3.560   3.947  1.0096  1.6871  1.4292
10737TIP3   OH253625   0.309   4.758  15.099 -0.0711  0.6319  0.2205
10737TIP3    H153626   0.229   4.762  15.047 -0.3786  0.4371  0.6721
10737TIP3    H253627   0.295   4.684  15.158  0.1552  1.0239  0.7733
10738TIP3   OH253628   2.106   3.267  15.705 -0.0444  0.0558  0.2523
10738TIP3    H153629   2.019   3.257  15.745 -0.4503 -0.3625 -0.7015
10738TIP3    H253630   2.107   3.203  15.633  1.1661 -0.1546  0.4321
10739TIP3   OH253631   4.078   4.885   5.443  0.1267  0.1099  0.0931
10739TIP3    H153632   4.129   4.836   5.507 -1.4410 -0.7729  0.6986
10739TIP3    H253633   4.144   4.934   5.393  1.6583 -1.8403  0.1003
10740TIP3   OH253634   3.639   1.150  16.590 -0.1059  0.0347  0.5330
10740TIP3    H153635   3.596   1.065  16.581 -1.1017  0.6207 -0.6307
10740TIP3    H253636   3.731   1.133  16.568 -0.8807 -0.2153 -3.3173
10741TIP3   OH253637   4.968   4.833   2.364  0.5508  0.5784  0.0354
10741TIP3    H153638   5.053   4.789   2.362  0.7021  0.8637  0.1444
10741TIP3    H253639   4.960   4.873   2.277  0.0707 -0.2968 -0.3432
10742TIP3   OH253640   4.799   6.437   5.471  0.0136  0.4195 -0.0176
10742TIP3    H153641   4.856   6.442   5.547  0.6630 -0.9151 -0.3951
10742TIP3    H253642   4.711   6.455   5.506  0.2589 -0.4658  1.1169
10743TIP3   OH253643   2.484   3.076  16.446 -0.2164  0.1139 -0.1165
10743TIP3    H153644   2.412   3.128  16.481  0.6785 -0.6752  3.2017
10743TIP3    H253645   2.550   3.140  16.420  0.3830  0.8220  2.7947
10744TIP3   OH253646   4.521   4.144   4.574 -0.6911 -0.2713  0.0407
10744TIP3    H153647   4.455   4.089   4.616  0.2987 -0.0064  2.1005
10744TIP3    H253648   4.548   4.205   4.643 -1.3335  2.4809 -1.9821
10745TIP3   OH253649   3.172   5.419   4.641  0.7083 -0.0690  0.2927
10745TIP3    H153650   3.087   5.455   4.615  0.6168  0.2420  0.9946
10745TIP3    H253651   3.210   5.386   4.560 -0.2922 -0.6511  0.0506
10746TIP3   OH253652   0.661   3.071  11.127  0.1128  0.0705  0.1226
10746TIP3    H153653   0.608   2.997  11.097 -2.6858  0.6420  3.0147
10746TIP3    H253654   0.654   3.135  11.057  0.9322 -1.5701 -1.5638
10747TIP3   OH253655   5.232   0.562  12.754  0.0594 -0.2522  0.4342
10747TIP3    H153656   5.223   0.475  12.792  0.9265  0.0916  1.4828
10747TIP3    H253657   5.288   0.549  12.677 -2.4574 -1.1011 -1.4003
10748TIP3   OH253658   6.675   5.891   4.755 -0.1174  0.4594 -0.0310
10748TIP3    H153659   6.760   5.869   4.791 -1.3548 -1.7316  1.7867
10748TIP3    H253660   6.674   5.853   4.667  0.1533 -1.1520  0.6376
10749TIP3   OH253661   2.544   0.714   0.192 -0.0257  0.4394  0.5856
10749TIP3    H153662   2.497   0.797   0.190 -0.1654  0.5366  3.4630
10749TIP3    H253663   2.475   0.648   0.207  0.1182 -0.1934 -1.3517
10750TIP3   OH253664   2.523   6.497  14.248 -0.0267 -0.7210  0.1332
10750TIP3    H153665   2.597   6.505  14.309 -0.9178 -0.3966  1.1977
10750TIP3    H253666   2.562   6.510  14.162  1.2135 -0.8701  0.6492
10751TIP3   OH253667   5.878   3.545  12.103 -1.4116  0.4358 -0.0744
10751TIP3    H153668   5.871   3.526  12.197  1.0873 -0.5928 -0.0137
10751TIP3    H253669   5.918   3.632  12.099 -0.4875  0.0211 -0.1362
10752TIP3   OH253670   1.961   1.863  14.697  0.3374  0.2338  0.2208
10752TIP3    H153671   1.920   1.783  14.728  2.1818 -0.3182  1.4420
10752TIP3    H253672   2.049   1.836  14.670  0.9909  1.8185  0.6223
10753TIP3   OH253673   4.279   1.000  14.903 -0.6297  0.0731 -0.0142
10753TIP3    H153674   4.328   1.034  14.978  1.4272 -0.8196 -0.8631
10753TIP3    H253675   4.221   0.934  14.940 -0.2257  0.2194  0.8999
10754TIP3   OH253676   5.391   6.567   2.455  0.2803 -0.3817 -0.3126
10754TIP3    H153677   5.444   6.526   2.386  0.3486  0.2275 -0.6215
10754TIP3    H253678   5.437   6.545   2.536 -0.1016 -1.5779 -0.3964
10755TIP3   OH253679   5.306   4.037  11.798 -0.4965  0.3186  0.7660
10755TIP3    H153680   5.378   3.974  11.790 -0.8744 -0.1326  0.8736
10755TIP3    H253681   5.275   4.026  11.888 -0.6314  0.5868  0.7524
10756TIP3   OH253682   5.503   5.522  12.192 -0.0278  0.3570 -0.1448
10756TIP3    H153683   5.418   5.560  12.213  0.1773  0.2231  0.9709
10756TIP3    H253684   5.547   5.589  12.139 -1.2846 -0.0841 -1.8430
10757TIP3   OH253685   2.207   1.304  10.815  0.3361  0.4602  0.0589
10757TIP3    H153686   2.173   1.304  10.725 -1.9018  1.8285  0.8044
10757TIP3    H253687   2.257   1.222  10.822 -1.5999 -0.9985 -1.6871
10758TIP3   OH253688   0.339   4.134   3.690  0.5550 -0.4169 -0.2274
10758TIP3    H153689   0.367   4.134   3.598 -0.8496 -0.3515 -0.6713
10758TIP3    H253690   0.258   4.085   3.691  0.6529 -0.5950  1.0331
10759TIP3   OH253691   0.536   5.024   4.696  0.3842  0.3610  0.2937
10759TIP3    H153692   0.522   4.939   4.656  1.6158 -0.5381  1.6901
10759TIP3    H253693   0.570   5.078   4.625 -1.4667  0.0741 -0.8935
10760TIP3   OH253694   3.538   3.343  11.970 -0.5617 -0.3679  0.1240
10760TIP3    H153695   3.524   3.418  12.028  0.0199 -0.5288  0.4809
10760TIP3    H253696   3.622   3.306  11.998  0.3141  0.2409 -1.5671
10761TIP3   OH253697   6.078   4.150  15.347  0.3523  0.3501  0.0708
10761TIP3    H153698   6.121   4.229  15.314 -1.0821  1.4833  0.7872
10761TIP3    H253699   6.144   4.108  15.403  0.8315  1.5628  0.4547
10762TIP3   OH253700   4.940   2.712  13.209  0.0345 -0.9759  0.7110
10762TIP3    H153701   4.848   2.689  13.225 -0.1628 -1.8060 -1.3441
10762TIP3    H253702   4.943   2.736  13.116  2.3547 -3.5949 -0.0188
10763TIP3   OH253703   1.989   1.487   2.084 -0.0995  0.3308 -0.3501
10763TIP3    H153704   2.050   1.501   2.156  1.4689  0.2763 -1.6036
10763TIP3    H253705   1.936   1.413   2.112 -0.8719  1.5148  1.5442
10764TIP3   OH253706   3.501   6.270  15.005 -0.0179  0.4470  0.0787
10764TIP3    H153707   3.450   6.290  14.927 -2.5158 -1.7146  1.0121
10764TIP3    H253708   3.588   6.247  14.971  0.3576  3.7543 -1.5928
10765TIP3   OH253709   0.778   0.152   4.594 -0.1374  0.5362 -0.5835
10765TIP3    H153710   0.869   0.180   4.595 -0.0613  0.3238 -1.4839
10765TIP3    H253711   0.749   0.163   4.685  2.0051 -3.4588  0.8443
10766TIP3   OH253712   2.431   1.509   3.457 -0.2766  0.2805  0.3483
10766TIP3    H153713   2.508   1.454   3.439  1.0018  1.3292  2.2245
10766TIP3    H253714   2.439   1.582   3.396 -0.2785 -0.0806 -0.0836
10767TIP3   OH253715   6.808   1.123   2.574 -0.4820  0.2325  0.0551
10767TIP3    H153716   6.736   1.062   2.588 -0.0386  0.0118  1.5466
10767TIP3    H253717   6.779   1.204   2.617  0.6794 -0.2668  1.8590
10768TIP3   OH253718   2.447   0.816  16.172  0.3041  0.3248  0.2061
10768TIP3    H153719   2.361   0.785  16.143  0.2211 -0.0131  0.7906
10768TIP3    H253720   2.508   0.748  16.142  0.2976  0.2956  0.2580
10769TIP3   OH253721   6.558   2.258  16.762  0.1403  0.3184 -0.4932
10769TIP3    H153722   6.641   2.269  16.716  1.8196 -0.1503  2.2161
10769TIP3    H253723   6.517   2.345  16.759  1.9638  1.2576  0.2712
10770TIP3   OH253724   5.224   6.100  14.372  0.0218  0.2385  0.0615
10770TIP3    H153725   5.155   6.111  14.307  0.7265 -0.6482 -0.8600
10770TIP3    H253726   5.178   6.067  14.450 -0.8868  1.7020  0.1834
10771TIP3   OH253727   6.158   2.429   3.766  0.3051 -0.0903  0.4194
10771TIP3    H153728   6.216   2.394   3.699 -1.6568  0.9366 -1.9543
10771TIP3    H253729   6.215   2.486   3.818  1.9351 -1.0551 -0.2048
10772TIP3   OH253730   3.504   5.371   3.661  0.5159  0.8464 -0.0271
10772TIP3    H153731   3.471   5.458   3.684 -1.2297  0.2286 -0.0234
10772TIP3    H253732   3.474   5.315   3.733 -2.7088 -0.6366 -2.2884
10773TIP3   OH253733   0.275   3.554   3.116  0.7075  0.4564  0.3391
10773TIP3    H153734   0.241   3.535   3.204  0.5543 -0.9450  0.0081
10773TIP3    H253735   0.357   3.505   3.112  0.3688 -0.0461 -0.5345
10774TIP3   OH253736   2.911   0.525   3.005  0.3847  0.1520  0.2858
10774TIP3    H153737   2.825   0.539   2.966  0.8479  0.3701 -0.6846
10774TIP3    H253738   2.944   0.447   2.962  0.4836 -0.2151  1.0108
10775TIP3   OH253739   2.864   1.167  12.303 -0.6468  0.3779 -0.2096
10775TIP3    H153740   2.885   1.178  12.395  1.5106  0.3286 -0.6367
10775TIP3    H253741   2.833   1.253  12.275  0.5562  0.9577  0.1563
10776TIP3   OH253742   2.833   6.123  15.382 -0.1793 -0.4826  0.5587
10776TIP3    H153743   2.750   6.140  15.338 -0.9251 -1.2963  1.6146
10776TIP3    H253744   2.877   6.208  15.383 -0.2091 -0.3785 -1.5313
10777TIP3   OH253745   0.794   3.418   5.572  0.2989  0.8371  0.3055
10777TIP3    H153746   0.803   3.512   5.558 -0.1809  0.8037 -0.2330
10777TIP3    H253747   0.704   3.406   5.603  0.1655  0.4938 -0.1986
10778TIP3   OH253748   3.806   0.879   1.783  0.0606 -0.4427  0.1420
10778TIP3    H153749   3.836   0.914   1.867  0.3365 -0.8935  0.2306
10778TIP3    H253750   3.849   0.794   1.775 -0.1972 -0.5332 -0.3188
10779TIP3   OH253751   3.151   5.327  10.525 -0.4184  0.0222  0.0301
10779TIP3    H153752   3.175   5.304  10.435  1.1963 -0.1958  0.4931
10779TIP3    H253753   3.105   5.410  10.517  1.5996  1.1270 -0.8366
10780TIP3   OH253754   2.229   3.374  14.914 -0.2449 -0.2425 -0.1669
10780TIP3    H153755   2.187   3.310  14.857  0.5972 -1.0285  0.0737
10780TIP3    H253756   2.264   3.440  14.853  0.6169 -1.0533 -0.5715
10781TIP3   OH253757   6.374   2.774   0.668 -0.1481 -0.1356  0.0792
10781TIP3    H153758   6.322   2.694   0.678 -0.5539  0.0011 -0.8364
10781TIP3    H253759   6.465   2.746   0.681 -0.3471 -0.5919  0.5245
10782TIP3   OH253760   2.107   1.847  15.214  0.1344  0.2846 -0.1836
10782TIP3    H153761   2.065   1.809  15.137  0.6135 -0.4289 -0.1048
10782TIP3    H253762   2.051   1.823  15.287 -0.4549  1.1759 -0.3249
10783TIP3   OH253763   5.082   2.787  14.321 -0.1087 -0.1263 -0.3971
10783TIP3    H153764   5.091   2.714  14.382  0.3461  0.0881 -0.2075
10783TIP3    H253765   5.120   2.861  14.367  0.2345  0.0368 -0.9412
10784TIP3   OH253766   3.612   6.316   4.721 -0.5052  0.2459  0.9757
10784TIP3    H153767   3.694   6.338   4.764  1.2475  2.4703 -2.9410
10784TIP3    H253768   3.617   6.222   4.704  0.6753  0.1448  1.8281
10785TIP3   OH253769   2.893   6.040   1.737 -0.3175 -0.2271 -0.0200
10785TIP3    H153770   2.844   5.983   1.796  0.7356 -0.4412  0.6688
10785TIP3    H253771   2.859   6.018   1.650 -1.5369 -0.2558  0.4418
10786TIP3   OH253772   1.961   4.649   2.305  0.5984  0.6475 -1.1612
10786TIP3    H153773   1.985   4.736   2.273 -3.3111  2.0736 -0.8505
10786TIP3    H253774   1.922   4.606   2.229 -1.0068  0.7435 -0.4256
10787TIP3   OH253775   3.165   4.534   0.314  0.0109 -0.2517 -0.3136
10787TIP3    H153776   3.222   4.591   0.262  0.6687 -1.5443 -1.0560
10787TIP3    H253777   3.224   4.492   0.377 -0.4009 -0.3955 -0.0171
10788TIP3   OH253778   5.049   1.473   4.656 -0.1799 -0.2781  0.2050
10788TIP3    H153779   5.084   1.507   4.738 -0.1631 -0.1912  0.1619
10788TIP3    H253780   4.971   1.526   4.639  0.9260  1.1097 -0.8902
10789TIP3   OH253781   3.163   0.826   0.152  0.1223 -0.1139 -0.0936
10789TIP3    H153782   3.154   0.905   0.099 -0.0093 -0.0220  0.0647
10789TIP3    H253783   3.148   0.855   0.242 -0.9600 -0.4901 -0.1366
10790TIP3   OH253784   1.493   3.595  16.740 -0.1606 -0.0234 -0.2251
10790TIP3    H153785   1.475   3.632  16.653 -0.6439 -0.1169 -0.1673
10790TIP3    H253786   1.471   3.665  16.801 -0.0558 -0.0418 -0.1668
10791TIP3   OH253787   1.673   2.702   0.755  0.3527  0.3195 -0.4666
10791TIP3    H153788   1.676   2.791   0.719 -0.5036  0.0240 -1.3228
10791TIP3    H253789   1.640   2.713   0.844 -0.5949  0.7917 -0.8626
10792TIP3   OH253790   0.686   3.685  15.803 -0.4595  0.0765  0.3488
10792TIP3    H153791   0.648   3.606  15.842 -0.8586 -0.1844 -0.5204
10792TIP3    H253792   0.779   3.680  15.824 -0.3246 -1.0984 -0.4310
10793TIP3   OH253793   4.240   0.675   5.139  0.6549  0.3940 -0.4013
10793TIP3    H153794   4.149   0.700   5.127  0.2564  0.3088  1.9869
10793TIP3    H253795   4.244   0.639   5.228  3.2820  1.7679  0.1610
10794TIP3   OH253796   3.812   4.290   5.829  0.1016  0.9579  0.5719
10794TIP3    H153797   3.785   4.373   5.869 -0.3533  2.3053 -2.2723
10794TIP3    H253798   3.896   4.269   5.871 -0.0321  2.5692  1.7307
10795TIP3   OH253799   1.220   2.800  11.370  0.0887 -0.3651  0.5052
10795TIP3    H153800   1.172   2.823  11.290 -0.7421 -0.2309  1.0260
10795TIP3    H253801   1.154   2.805  11.439  0.9945  0.3996  1.3359
10796TIP3   OH253802   4.335   3.326   3.783 -0.3737  0.4838  0.2631
10796TIP3    H153803   4.290   3.382   3.719 -0.1552  2.6027  1.8360
10796TIP3    H253804   4.397   3.276   3.731 -0.5655  1.7361 -1.2716
10797TIP3   OH253805   3.410   0.060  15.158 -0.2345  0.6796  0.5237
10797TIP3    H153806   3.457  -0.008  15.109 -0.8284  0.8784 -0.3497
10797TIP3    H253807   3.325   0.021  15.177 -0.0372  0.6334  1.3556
10798TIP3   OH253808   1.688   2.239  16.672  0.5163 -1.0482 -0.1980
10798TIP3    H153809   1.615   2.197  16.626  0.6017 -2.4953  0.8862
10798TIP3    H253810   1.702   2.183  16.749  1.7467  0.0905  0.4387
10799TIP3   OH253811   4.188   6.309   3.904  0.3227 -0.2521  0.6864
10799TIP3    H153812   4.221   6.372   3.969  0.0078  0.3635  0.2584
10799TIP3    H253813   4.169   6.362   3.827 -1.4807 -0.6012  0.8441
10800TIP3   OH253814   1.359   2.258   1.042  0.0462  0.0705 -0.1914
10800TIP3    H153815   1.384   2.224   1.128  1.2208 -0.9510 -0.9105
10800TIP3    H253816   1.364   2.353   1.051 -1.2227  0.0495  1.2538
10801TIP3   OH253817   0.513   1.864   3.704 -0.7622  0.9865  0.0667
10801TIP3    H153818   0.489   1.816   3.783  1.0858  1.8687  1.2372
10801TIP3    H253819   0.485   1.808   3.632 -0.1959 -1.0780  1.3763
10802TIP3   OH253820   2.544   5.716  14.443 -0.1022  0.6225 -0.1909
10802TIP3    H153821   2.467   5.733  14.389 -0.2064  1.4496  0.1936
10802TIP3    H253822   2.542   5.786  14.509  0.8779  0.5535 -0.0759
10803TIP3   OH253823   3.288   5.296   0.301  0.0670 -0.2050 -0.4881
10803TIP3    H153824   3.244   5.212   0.317  0.0423 -0.2850 -0.9774
10803TIP3    H253825   3.363   5.274   0.247  0.0556  0.0942 -0.6268
10804TIP3   OH253826   2.918   6.475  15.037 -0.0326 -0.1605  0.0801
10804TIP3    H153827   2.950   6.387  15.017  0.3620  0.6468 -3.7101
10804TIP3    H253828   2.970   6.532  14.981 -1.2970  2.3350  1.3196
10805TIP3   OH253829   2.617   2.241   0.307  0.3001  0.2188 -0.7798
10805TIP3    H153830   2.585   2.275   0.391 -2.9941  0.3713 -1.9437
10805TIP3    H253831   2.685   2.303   0.280  0.6000  0.8082  1.2105
10806TIP3   OH253832   4.993   2.547  11.643  0.3562  0.2856  0.2719
10806TIP3    H153833   4.998   2.480  11.712  1.3483 -0.1908 -0.2448
10806TIP3    H253834   5.013   2.500  11.562 -1.4429  0.7080 -0.4599
10807TIP3   OH253835   2.451   2.883   3.363  0.3830 -0.3601  0.1451
10807TIP3    H153836   2.372   2.844   3.327  1.3059 -1.4111 -0.8330
10807TIP3    H253837   2.420   2.944   3.429 -1.3812  1.0067 -1.8081
10808TIP3   OH253838   4.426   0.576   4.539  0.4476  0.3079 -1.0623
10808TIP3    H153839   4.477   0.590   4.459  0.2245  1.4125 -1.0281
10808TIP3    H253840   4.335   0.576   4.510  0.4090 -0.3439 -0.9474
10809TIP3   OH253841   6.194   0.285  12.629  0.3657 -0.1561  0.1603
10809TIP3    H153842   6.209   0.243  12.713 -1.9101 -0.1276  0.6401
10809TIP3    H253843   6.238   0.370  12.637  0.9169 -0.5047  0.9715
10810TIP3   OH253844   1.687   0.491   4.825  0.0609 -0.5151 -0.2049
10810TIP3    H153845   1.750   0.534   4.882 -1.8795  0.0782  1.6333
10810TIP3    H253846   1.664   0.411   4.872  0.6513 -1.6064 -1.6764
10811TIP3   OH253847   3.393   6.318   0.601  0.2085  0.0612 -0.4848
10811TIP3    H153848   3.387   6.353   0.690  1.8701 -0.9183  0.0680
10811TIP3    H253849   3.472   6.358   0.564 -0.5171  0.5327 -1.5756
10812TIP3   OH253850   0.695   3.654  15.012  0.1658  0.0304 -0.4023
10812TIP3    H153851   0.658   3.722  14.956 -0.1242  0.6090  0.4711
10812TIP3    H253852   0.778   3.631  14.970  1.1461  2.1908  0.1818
10813TIP3   OH253853   1.775   5.521  14.109  0.1412 -0.0954 -0.2606
10813TIP3    H153854   1.849   5.475  14.150 -0.0337 -0.4324 -0.3122
10813TIP3    H253855   1.748   5.585  14.174  1.4283  1.0727 -0.8376
10814TIP3   OH253856   3.349   3.478  14.089  0.8814  0.2205 -0.4236
10814TIP3    H153857   3.319   3.403  14.037 -0.8843  0.2161  0.5344
10814TIP3    H253858   3.442   3.486  14.068  0.3995 -0.1411 -3.1333
10815TIP3   OH253859   2.143   2.544   2.168 -0.3860 -0.2377 -0.5209
10815TIP3    H153860   2.145   2.450   2.181 -2.9524 -0.3146 -0.1507
10815TIP3    H253861   2.053   2.564   2.144  0.1802  2.0866 -1.0645
10816TIP3   OH253862   2.086   4.834  10.907 -0.4745 -0.3002  0.0591
10816TIP3    H153863   2.002   4.873  10.883 -0.5748 -0.1546  0.6265
10816TIP3    H253864   2.139   4.841  10.828 -0.7201  0.3683 -0.0585
10817TIP3   OH253865   2.435   0.795  10.971  0.3754  0.0329 -0.5886
10817TIP3    H153866   2.402   0.730  10.909 -0.8392 -0.4919  0.5423
10817TIP3    H253867   2.504   0.840  10.924  0.2731 -1.1093 -1.9164
10818TIP3   OH253868   0.492   6.295   4.754  0.4188 -0.4393  0.0113
10818TIP3    H153869   0.429   6.282   4.683 -0.3512  2.5014  0.0234
10818TIP3    H253870   0.573   6.255   4.722 -0.5086 -1.1672 -1.5351
10819TIP3   OH253871   1.551   5.941   4.785  0.8610  0.3700  0.1633
10819TIP3    H153872   1.566   6.016   4.842 -0.6207  1.9759 -1.4400
10819TIP3    H253873   1.595   5.868   4.829 -0.0754  1.5169  3.2611
10820TIP3   OH253874   2.864   2.015   0.941  0.2005  0.2637 -0.2274
10820TIP3    H153875   2.810   1.936   0.941 -1.9215  1.6243 -0.0270
10820TIP3    H253876   2.932   1.997   0.876 -1.9537 -0.6735 -2.4132
10821TIP3   OH253877   4.933   6.654  11.693  0.2197 -0.2032 -0.5521
10821TIP3    H153878   4.857   6.705  11.720 -1.5908 -2.0421 -1.8633
10821TIP3    H253879   4.951   6.684  11.604  1.2807  0.4318 -0.1486
10822TIP3   OH253880   0.338   4.543   3.952 -0.2886 -0.3109  0.1565
10822TIP3    H153881   0.246   4.515   3.952 -0.2412 -0.5916  1.9320
10822TIP3    H253882   0.337   4.629   3.910 -1.9562  1.2971  3.1425
10823TIP3   OH253883   3.806   3.865   4.579  0.5280 -0.6678  0.3079
10823TIP3    H153884   3.831   3.843   4.489 -1.1559 -1.5268  0.0186
10823TIP3    H253885   3.777   3.782   4.617 -2.0777  0.2593  0.5101
10824TIP3   OH253886   2.237   4.629  13.743 -0.0188 -0.3558 -0.2673
10824TIP3    H153887   2.277   4.684  13.676  0.1798  1.0198  0.9372
10824TIP3    H253888   2.211   4.690  13.812  3.5007 -1.9590  2.8393
10825TIP3   OH253889   5.952   1.495   4.003  0.7327 -0.0066 -0.6298
10825TIP3    H153890   5.942   1.576   4.053  0.6416 -0.0785 -0.5286
10825TIP3    H253891   5.867   1.483   3.959  0.8201  0.0676 -0.8188
10826TIP3   OH253892   5.140   3.757  12.615  0.0542  0.3030  0.9371
10826TIP3    H153893   5.211   3.705  12.579 -0.8654  0.8997 -1.9573
10826TIP3    H253894   5.062   3.703  12.605 -0.1571  0.1451  2.9539
10827TIP3   OH253895   5.352   3.372   1.890 -0.0332 -0.2406 -0.5665
10827TIP3    H153896   5.310   3.412   1.813 -1.8130 -2.2617 -0.7234
10827TIP3    H253897   5.438   3.414   1.894 -0.7187  1.5119 -2.3474
10828TIP3   OH253898   4.097   6.360  12.833  0.7385 -0.1446  0.5368
10828TIP3    H153899   4.171   6.396  12.882 -0.3992 -0.1941  2.3666
10828TIP3    H253900   4.084   6.422  12.761  1.3612  0.9049  1.2971
10829TIP3   OH253901   5.970   6.675   2.497  0.1241 -0.6306  0.5214
10829TIP3    H153902   5.899   6.728   2.460  1.4636  0.5234 -0.4908
10829TIP3    H253903   6.022   6.737   2.548 -0.4020 -1.7631  2.5233
10830TIP3   OH253904   6.139   4.835  10.871 -0.0939  0.1764  0.2740
10830TIP3    H153905   6.147   4.765  10.806 -1.5870 -0.5798  0.8523
10830TIP3    H253906   6.206   4.899  10.846 -0.1367 -0.4391 -1.5494
10831TIP3   OH253907   1.508   2.990   4.336  0.8378  0.4776  0.1081
10831TIP3    H153908   1.558   2.941   4.401  1.9738 -0.7071 -1.5449
10831TIP3    H253909   1.433   3.024   4.383  0.5149 -2.0387  1.6033
10832TIP3   OH253910   2.300   0.086  13.450  0.0182 -0.4120 -0.1571
10832TIP3    H153911   2.277   0.154  13.385 -0.2201  0.8529  1.1976
10832TIP3    H253912   2.222   0.079  13.505  1.0688  0.3335  1.4827
10833TIP3   OH253913   2.566   1.648  11.572 -0.3222 -0.5148 -0.4612
10833TIP3    H153914   2.648   1.669  11.616 -1.4060 -0.3348  1.6330
10833TIP3    H253915   2.526   1.733  11.553 -0.2559 -0.6027 -0.9928
10834TIP3   OH253916   5.378   2.142   0.503  0.7386  0.0436  0.1541
10834TIP3    H153917   5.409   2.167   0.417  1.3892 -0.3239  0.2800
10834TIP3    H253918   5.336   2.221   0.537  1.0695  0.3857 -0.2252
10835TIP3   OH253919   4.548   2.101   4.087 -0.4956 -0.1668 -0.5574
10835TIP3    H153920   4.577   2.183   4.128  1.5519 -0.2159 -1.7411
10835TIP3    H253921   4.455   2.097   4.105  0.1394 -0.0059  3.6432
10836TIP3   OH253922   0.840   2.277  15.261 -0.2596  0.0191 -0.2958
10836TIP3    H153923   0.906   2.244  15.200 -0.7072  0.2058 -0.8785
10836TIP3    H253924   0.883   2.272  15.347  0.3426 -0.3082 -0.6107
10837TIP3   OH253925   2.951   5.226   4.307 -0.3186 -0.7147 -0.0570
10837TIP3    H153926   2.861   5.255   4.293 -0.0257  1.3597  1.7629
10837TIP3    H253927   2.969   5.247   4.398  2.3304 -0.1346 -0.6312
10838TIP3   OH253928   3.611   5.674   4.735  0.2246  0.2486 -0.2145
10838TIP3    H153929   3.566   5.669   4.819  1.0026 -0.6462  0.1753
10838TIP3    H253930   3.704   5.670   4.757  0.6347  3.3832 -0.8934
10839TIP3   OH253931   3.754   4.172   2.344  0.1295  0.3254 -0.4109
10839TIP3    H153932   3.792   4.210   2.264 -0.8494  2.4353  0.0488
10839TIP3    H253933   3.757   4.078   2.329 -1.7923  0.6344 -3.8195
10840TIP3   OH253934   2.756   1.990  11.492 -0.3455 -0.0944  0.5393
10840TIP3    H153935   2.775   1.905  11.532 -1.0826 -1.3580 -1.6363
10840TIP3    H253936   2.711   1.969  11.411 -3.1617  2.4982  1.2611
10841TIP3   OH253937   3.692   0.976  12.120 -0.6501 -0.1724  0.2013
10841TIP3    H153938   3.616   1.033  12.129 -0.9805 -0.6651  0.5698
10841TIP3    H253939   3.673   0.901  12.177  0.6258  0.2362  1.2251
10842TIP3   OH253940   6.261   4.556  11.265  0.1794  0.2116 -0.2122
10842TIP3    H153941   6.275   4.463  11.281 -2.7974 -0.3804 -0.4000
10842TIP3    H253942   6.336   4.583  11.212  1.3290 -1.9565  0.2044
10843TIP3   OH253943   3.478   0.771  13.358  0.0185 -0.3568 -0.7056
10843TIP3    H153944   3.417   0.704  13.329 -0.8232  0.3214 -0.5494
10843TIP3    H253945   3.455   0.848  13.306 -2.0119  1.1243  2.1049
10844TIP3   OH253946   4.327   3.807  13.142  0.0270  0.5122 -0.1636
10844TIP3    H153947   4.249   3.756  13.120  0.3500  1.1517 -3.3842
10844TIP3    H253948   4.293   3.885  13.185 -1.0247  0.3134 -0.5968
10845TIP3   OH253949   4.033   5.543  15.802 -0.2707 -0.1472  0.3227
10845TIP3    H153950   4.101   5.567  15.864  0.2162  2.4865 -1.0975
10845TIP3    H253951   3.991   5.466  15.841  3.2617 -1.7338  1.3953
10846TIP3   OH253952   4.772   3.468   1.208 -0.0101  0.3604  0.1455
10846TIP3    H153953   4.861   3.492   1.234 -0.2659  1.4071  0.0846
10846TIP3    H253954   4.717   3.500   1.280 -0.3166 -0.6244  0.3727
10847TIP3   OH253955   6.200   3.503  15.856 -0.0846  0.0503  0.3625
10847TIP3    H153956   6.248   3.586  15.852 -1.1439  0.6988  0.5847
10847TIP3    H253957   6.260   3.443  15.899 -0.0522  1.2819  2.1414
10848TIP3   OH253958   5.408   2.888   4.204 -0.4920  0.2840 -0.1979
10848TIP3    H153959   5.443   2.904   4.117 -0.5742  0.0782 -0.2720
10848TIP3    H253960   5.460   2.815   4.238 -2.5001 -1.8658 -1.3612
10849TIP3   OH253961   5.687   6.167   3.974  0.2829  0.0725 -0.0744
10849TIP3    H153962   5.611   6.122   4.011  0.7037  0.2489  1.0416
10849TIP3    H253963   5.653   6.211   3.895 -0.1609 -2.0858 -1.1643
10850TIP3   OH253964   5.976   4.306   3.894  0.2624  0.4055 -0.2960
10850TIP3    H153965   5.986   4.281   3.986 -0.5688  1.7722  0.2084
10850TIP3    H253966   5.888   4.344   3.890 -0.3648 -1.1046 -2.0373
10851TIP3   OH253967   0.924   5.710  16.978  0.5870  0.8357  0.3696
10851TIP3    H153968   0.924   5.637  17.041  0.5074  0.4469 -0.0734
10851TIP3    H253969   0.833   5.720  16.952  0.8102 -0.0312 -0.8364
10852TIP3   OH253970   1.445   2.955   1.260  0.1031  0.1439 -0.2350
10852TIP3    H153971   1.526   2.958   1.312  0.2968 -0.6148 -0.4856
10852TIP3    H253972   1.447   2.869   1.217 -1.4090 -0.3640  0.6573
10853TIP3   OH253973   1.215   2.119  12.297 -0.3636  0.5459  0.7305
10853TIP3    H153974   1.297   2.086  12.335 -0.0224 -1.9277 -1.7953
10853TIP3    H253975   1.239   2.144  12.208 -2.1787  0.8221  0.2886
10854TIP3   OH253976   4.663   2.896   4.404 -0.0674 -0.0823 -0.1405
10854TIP3    H153977   4.641   2.910   4.496  1.1039 -1.9969  0.4952
10854TIP3    H253978   4.581   2.864   4.364 -0.2834 -0.3695  0.5190
10855TIP3   OH253979   5.297   4.241  15.372  0.3437  0.4327 -0.3344
10855TIP3    H153980   5.232   4.308  15.357 -1.3881 -0.9622  0.6164
10855TIP3    H253981   5.340   4.230  15.287  0.9628  2.9447 -0.4132
10856TIP3   OH253982   3.821   0.588   1.716  0.2833  0.2409  0.1442
10856TIP3    H153983   3.871   0.507   1.718  0.0740  0.0565 -1.2221
10856TIP3    H253984   3.738   0.566   1.760  0.9725  0.2757  1.5161
10857TIP3   OH253985   6.636   1.190   2.118 -0.1925  0.0237  0.3436
10857TIP3    H153986   6.604   1.269   2.073 -0.4485 -0.8380 -1.0732
10857TIP3    H253987   6.609   1.118   2.061  1.8764 -0.9534  0.4998
10858TIP3   OH253988   3.522   1.421   4.176 -0.6091 -0.8900  0.0575
10858TIP3    H153989   3.443   1.404   4.228 -1.5383  0.0779 -0.9633
10858TIP3    H253990   3.522   1.516   4.164  0.1696 -0.9878 -0.8051
10859TIP3   OH253991   3.432   0.526   3.979 -0.4855 -0.1534  0.3604
10859TIP3    H153992   3.514   0.574   3.986 -1.0276  0.8193  0.2640
10859TIP3    H253993   3.383   0.550   4.058 -0.9395 -0.1946  0.0975
10860TIP3   OH253994   2.540   0.341   4.114 -0.6720 -0.0255 -0.2484
10860TIP3    H153995   2.559   0.356   4.206 -1.0467 -0.9045 -0.0190
10860TIP3    H253996   2.610   0.282   4.085  0.4520  1.5863 -0.9878
10861TIP3   OH253997   4.214   3.685   5.321 -0.3467  0.4547 -0.1488
10861TIP3    H153998   4.126   3.657   5.345  0.6031 -1.0972  1.7921
10861TIP3    H253999   4.252   3.610   5.275  0.0166  1.0739 -0.8836
10862TIP3   OH254000   0.905   2.897   3.378 -0.5952 -0.1071 -0.5357
10862TIP3    H154001   0.898   2.812   3.422 -1.5779  0.7478  1.0568
10862TIP3    H254002   0.883   2.878   3.286 -2.7242 -1.3124  0.1429
10863TIP3   OH254003   5.935   3.395   5.548 -0.1129  0.2515 -0.1166
10863TIP3    H154004   5.854   3.344   5.545 -0.8103  1.3460 -0.6670
10863TIP3    H254005   5.944   3.422   5.639 -0.9072  0.9338 -0.2278
10864TIP3   OH254006   6.364   4.186   4.820 -0.2053 -0.0976 -0.2288
10864TIP3    H154007   6.288   4.213   4.768  0.8673 -0.0079 -1.7992
10864TIP3    H254008   6.423   4.144   4.757  1.1613  0.0389  0.9175
10865TIP3   OH254009   5.506   5.087  15.986  0.0775  0.1535 -0.1279
10865TIP3    H154010   5.552   5.091  16.070  0.9832  0.1894 -0.6189
10865TIP3    H254011   5.463   5.001  15.987  2.1161 -0.9323 -0.6551
10866TIP3   OH254012   6.201   0.699   0.525 -0.3244 -0.0375  0.3385
10866TIP3    H154013   6.215   0.793   0.519 -3.0766  0.4040 -0.6391
10866TIP3    H254014   6.269   0.661   0.469  1.7853  1.1854  1.9320
10867TIP3   OH254015   6.372   2.935  10.732  0.3333  0.2729 -0.6480
10867TIP3    H154016   6.443   2.903  10.789 -0.1209 -0.2465 -0.3688
10867TIP3    H254017   6.405   3.018  10.698  0.4832  0.7642  0.6281
10868TIP3   OH254018   0.317   3.303  15.268  0.2289  0.4650 -0.4783
10868TIP3    H154019   0.403   3.338  15.292  0.0752  1.3377 -1.1406
10868TIP3    H254020   0.330   3.267  15.180  0.0218  0.1731 -0.3905
10869TIP3   OH254021   3.750   1.603   5.448 -0.7533  0.0002 -0.3832
10869TIP3    H154022   3.837   1.581   5.482 -0.2274  0.2210 -1.5278
10869TIP3    H254023   3.690   1.585   5.521  0.2787  0.1278  0.5260
10870TIP3   OH254024   6.293   3.392  11.580  0.4759 -0.2652 -0.1643
10870TIP3    H154025   6.321   3.364  11.493  0.0823 -0.6347 -0.1762
10870TIP3    H254026   6.270   3.485  11.569  0.0615 -0.4068 -0.5505
10871TIP3   OH254027   0.846   6.022   6.022  0.0134  0.4576 -0.1287
10871TIP3    H154028   0.771   5.964   6.027 -0.2161  0.7847  0.2300
10871TIP3    H254029   0.922   5.963   6.017 -0.1290  0.1205  1.4564
10872TIP3   OH254030   1.567   2.469   4.534  0.1881  0.0492  0.0354
10872TIP3    H154031   1.662   2.460   4.532  0.1951 -0.5373  1.5556
10872TIP3    H254032   1.546   2.478   4.627 -1.2920 -0.4358 -0.2262
10873TIP3   OH254033   0.404   2.876  11.152 -0.3199  0.1934  0.5941
10873TIP3    H154034   0.380   2.789  11.183  0.3903 -0.5129 -0.7686
10873TIP3    H254035   0.406   2.868  11.057  0.7071  1.4483  0.4880
10874TIP3   OH254036   4.597   5.058  12.939  0.2694 -0.3910 -0.2832
10874TIP3    H154037   4.623   5.024  13.025 -1.3580  0.8137  0.7459
10874TIP3    H254038   4.641   5.001  12.877  1.7859 -1.0930  1.3389
10875TIP3   OH254039   1.267   4.140   6.619  0.0206 -0.1585  0.1934
10875TIP3    H154040   1.182   4.180   6.605  0.0369 -0.4994 -1.0437
10875TIP3    H254041   1.324   4.179   6.552  0.5088 -0.8208  0.2027
10876TIP3   OH254042   2.879   3.099  16.632 -0.2255 -0.0609  0.4555
10876TIP3    H154043   2.841   3.024  16.586  2.7062 -1.9031  0.8055
10876TIP3    H254044   2.911   3.155  16.561 -0.7987 -0.0229  0.2152
10877TIP3   OH254045   5.289   2.170   2.704 -0.0897 -0.2721  0.2445
10877TIP3    H154046   5.270   2.154   2.796 -0.0312 -1.0560  0.1262
10877TIP3    H254047   5.321   2.086   2.671 -0.9685 -0.2483 -0.7077
10878TIP3   OH254048   1.459   6.408   0.087 -0.0806  0.0293  0.1192
10878TIP3    H154049   1.514   6.473   0.044  0.3268 -0.5956 -0.3340
10878TIP3    H254050   1.386   6.458   0.125  0.2144  0.7334 -0.2318
10879TIP3   OH254051   6.673   5.922   4.415 -0.0662 -0.0690 -0.1856
10879TIP3    H154052   6.587   5.888   4.392 -0.1062  1.4638 -2.6495
10879TIP3    H254053   6.661   6.017   4.420  1.2588  0.0941  0.5423
10880TIP3   OH254054   3.075   2.012   5.072 -0.0211  0.0114  0.4455
10880TIP3    H154055   3.084   1.999   4.978  2.3153 -3.1721  0.9240
10880TIP3    H254056   3.010   1.947   5.099 -0.4652  0.7010  1.0895
10881TIP3   OH254057   1.602   3.168  13.476  0.0963 -0.6718 -0.3555
10881TIP3    H154058   1.685   3.211  13.497 -0.1292 -0.1255 -0.5769
10881TIP3    H254059   1.620   3.116  13.398 -0.0245  0.2348 -0.9946
10882TIP3   OH254060   6.527   0.614   1.573  0.2767 -0.0288 -0.4763
10882TIP3    H154061   6.451   0.606   1.516 -0.0561  0.1128 -0.0595
10882TIP3    H254062   6.601   0.586   1.519  0.0725  0.8111 -1.2055
10883TIP3   OH254063   3.647   1.946  14.511  0.1285 -0.4548 -0.1176
10883TIP3    H154064   3.622   1.878  14.447 -0.5608 -0.2461 -0.0808
10883TIP3    H254065   3.567   1.961  14.561 -0.1078  1.2768 -0.9398
10884TIP3   OH254066   3.585   4.942  10.754 -0.0480  0.0283  0.1547
10884TIP3    H154067   3.572   5.035  10.771 -1.8766 -0.2856  0.6180
10884TIP3    H254068   3.672   4.937  10.715  0.5780  1.7915  1.2100
10885TIP3   OH254069   3.668   5.827  16.371  0.2322  0.1595 -0.1737
10885TIP3    H154070   3.723   5.897  16.406 -0.0736  0.0754  0.4869
10885TIP3    H254071   3.622   5.792  16.448 -1.0672  0.5102 -0.7707
10886TIP3   OH254072   1.735   2.168   0.727  0.4856 -0.5878 -0.3317
10886TIP3    H154073   1.708   2.251   0.687  0.2021 -0.4207  0.1977
10886TIP3    H254074   1.783   2.123   0.658 -2.6135 -1.6731 -1.9853
10887TIP3   OH254075   2.521   4.763   5.259 -0.0790  0.0566  0.1970
10887TIP3    H154076   2.545   4.716   5.339 -0.2092 -0.8336 -0.2772
10887TIP3    H254077   2.504   4.694   5.195  1.3933  0.7814 -1.0059
10888TIP3   OH254078   4.343   2.330   0.232 -0.4941 -0.0052 -0.1727
10888TIP3    H154079   4.325   2.241   0.261 -1.2000  0.6404  1.4987
10888TIP3    H254080   4.359   2.322   0.138  1.0660 -2.1002  0.2126
10889TIP3   OH254081   3.587   3.052   3.160  0.2134 -0.3034 -0.3041
10889TIP3    H154082   3.566   2.979   3.102 -0.7194 -1.0454  0.9224
10889TIP3    H254083   3.569   3.019   3.248  1.2035  0.9229  0.3953
10890TIP3   OH254084   0.674   2.666   1.081  0.4395 -0.3942  0.0502
10890TIP3    H154085   0.703   2.745   1.036  0.5032 -1.1670 -1.3372
10890TIP3    H254086   0.729   2.660   1.158 -0.3171  1.5044  0.7910
10891TIP3   OH254087   4.690   6.797  13.347 -0.4219 -0.0054 -0.4098
10891TIP3    H154088   4.633   6.848  13.405 -0.4835 -2.0298  1.4298
10891TIP3    H254089   4.715   6.721  13.399  0.0074 -1.6579 -2.8680
10892TIP3   OH254090   0.673   1.885  13.789  0.2023 -0.0650  0.1241
10892TIP3    H154091   0.660   1.804  13.837  0.8289  0.5349  1.3416
10892TIP3    H254092   0.754   1.922  13.824  1.5884 -0.3524 -2.4885
10893TIP3   OH254093   3.570   4.293   4.908  0.3031 -0.0528  0.0769
10893TIP3    H154094   3.622   4.374   4.908  0.5923 -0.1774 -2.0328
10893TIP3    H254095   3.626   4.230   4.953  0.6307  0.5867  0.5998
10894TIP3   OH254096   0.430   6.789   5.150 -0.1435  0.1859  0.3877
10894TIP3    H154097   0.476   6.858   5.198  1.2497 -0.8165  0.5489
10894TIP3    H254098   0.404   6.831   5.067 -1.4370  1.5538  1.4306
10895TIP3   OH254099   6.670   1.979  12.991 -0.4250 -0.0932  0.1111
10895TIP3    H154100   6.591   1.930  12.969  0.2214 -0.0238 -2.6672
10895TIP3    H254101   6.737   1.911  13.004 -0.9152 -0.1763  2.8550
10896TIP3   OH254102   0.597   6.224   3.704 -0.0149  0.3100 -0.3250
10896TIP3    H154103   0.597   6.162   3.776 -1.0247 -1.5943 -1.8691
10896TIP3    H254104   0.689   6.228   3.676  0.5396  1.7417  1.5411
10897TIP3   OH254105   0.603   6.538  16.517 -0.1748  0.3967 -0.1532
10897TIP3    H154106   0.660   6.597  16.466  1.0158 -1.1195 -0.6771
10897TIP3    H254107   0.515   6.560  16.489  0.2951  1.3263 -0.9904
10898TIP3   OH254108   0.063   0.915  14.929  0.3309  0.7938  0.3394
10898TIP3    H154109   0.082   0.898  14.837 -1.1494  1.6131 -0.1416
10898TIP3    H254110   0.073   0.830  14.971  2.7878  0.7213 -0.2019
10899TIP3   OH254111   5.243   1.897  11.693 -0.2271  0.5866  0.7141
10899TIP3    H154112   5.185   1.858  11.629 -0.2427  0.0391  1.0517
10899TIP3    H254113   5.250   1.989  11.668  1.8707 -0.1158 -1.6557
10900TIP3   OH254114   0.306   5.194   5.106  0.3351  0.0817  0.0229
10900TIP3    H154115   0.379   5.145   5.144  0.8670  0.5045 -0.4377
10900TIP3    H254116   0.320   5.189   5.012  0.1720  0.7790 -0.0452
10901TIP3   OH254117   5.555   5.501  11.293  0.4056 -0.0078 -0.9029
10901TIP3    H154118   5.522   5.545  11.215 -0.2705  1.2973  0.0867
10901TIP3    H254119   5.617   5.563  11.332  0.5663 -0.5476 -0.2816
10902TIP3   OH254120   5.848   4.437   1.145 -0.7759 -0.8010  0.0488
10902TIP3    H154121   5.787   4.382   1.098 -0.3604 -0.8109 -0.4807
10902TIP3    H254122   5.805   4.453   1.230 -1.7343 -0.4013 -0.4909
10903TIP3   OH254123   5.029   5.437  12.547 -0.8157 -0.5302 -0.0876
10903TIP3    H154124   5.006   5.497  12.617 -1.5923  1.2953 -1.8084
10903TIP3    H254125   5.119   5.412  12.565 -0.2705  1.6113  0.4046
10904TIP3   OH254126   3.641   0.040  11.661  0.1230 -0.0208 -0.2784
10904TIP3    H154127   3.589   0.085  11.595  0.5531  2.2358  0.8241
10904TIP3    H254128   3.732   0.054  11.635  0.2604 -0.5609 -0.1061
10905TIP3   OH254129   2.942   5.019  13.760  0.5769  0.5354  0.1201
10905TIP3    H154130   2.968   5.100  13.803  0.8807  0.4811  0.0420
10905TIP3    H254131   2.940   4.954  13.829  0.1771  0.6430  0.2107
10906TIP3   OH254132   4.308   4.162   5.421  1.0776 -0.4865  0.3847
10906TIP3    H154133   4.256   4.084   5.442 -0.8319  0.2127 -1.4381
10906TIP3    H254134   4.399   4.134   5.434  0.3633 -1.8838  3.3048
10907TIP3   OH254135   5.020   3.690   1.112  0.1554  1.0911  0.6137
10907TIP3    H154136   4.958   3.700   1.185  0.2967  0.9536  0.7531
10907TIP3    H254137   5.050   3.599   1.118  0.7538  1.3007  0.8525
10908TIP3   OH254138   3.138   5.933  11.928 -0.1941 -0.1684 -0.0902
10908TIP3    H154139   3.057   5.983  11.931 -0.1512 -0.1546  1.1538
10908TIP3    H254140   3.207   6.000  11.921 -0.2497 -0.1575 -0.5809
10909TIP3   OH254141   4.925   1.419  11.838 -0.2824 -0.1623  0.0212
10909TIP3    H154142   4.928   1.493  11.778 -0.6570  0.4805  0.7724
10909TIP3    H254143   4.869   1.354  11.795 -2.3085  1.1337  0.5646
10910TIP3   OH254144   5.508   0.614   4.085 -0.1436  0.3021  0.9430
10910TIP3    H154145   5.445   0.551   4.050  2.7030 -2.0028 -0.4720
10910TIP3    H254146   5.554   0.566   4.153  3.3151  0.0500 -1.3568
10911TIP3   OH254147   1.195   3.075  15.655 -0.5494  0.1950  0.0538
10911TIP3    H154148   1.186   3.165  15.624  2.2435  0.4884 -0.1902
10911TIP3    H254149   1.205   3.084  15.750  0.9990  0.3099 -0.0993
10912TIP3   OH254150   4.326   4.192  14.012 -0.0222  0.3295 -0.2225
10912TIP3    H154151   4.292   4.138  13.941  0.5235  0.1177 -0.3265
10912TIP3    H254152   4.369   4.265  13.968  0.5352  0.0667 -0.1156
10913TIP3   OH254153   6.437   6.741   2.086  0.1232  0.0249  0.2880
10913TIP3    H154154   6.461   6.651   2.110 -0.5048 -0.0519  0.6426
10913TIP3    H254155   6.423   6.737   1.991 -2.2342 -0.8272  0.6028
10914TIP3   OH254156   5.149   3.668   1.528  0.5240 -0.1671  0.3518
10914TIP3    H154157   5.069   3.639   1.572  0.4365 -0.5826 -0.0772
10914TIP3    H254158   5.121   3.740   1.471  0.3241 -0.7621 -0.3168
10915TIP3   OH254159   6.335   2.125  16.686 -0.7084 -0.0798 -0.0629
10915TIP3    H154160   6.417   2.165  16.716 -1.5876  0.5876  1.6128
10915TIP3    H254161   6.363   2.048  16.636  0.9410  0.3569  0.1122
10916TIP3   OH254162   3.806   4.095  15.176  0.6612 -0.2678 -0.2130
10916TIP3    H154163   3.845   4.116  15.260  1.4563 -2.1608 -0.0605
10916TIP3    H254164   3.762   4.175  15.149  0.6766  0.4808  1.8335
10917TIP3   OH254165   6.409   5.399   2.775 -0.4664  0.6130  0.3993
10917TIP3    H154166   6.351   5.350   2.717 -0.1302  0.5661  0.0988
10917TIP3    H254167   6.370   5.390   2.862  0.0388 -0.9027  0.4989
10918TIP3   OH254168   3.221   5.743  15.576 -0.0599  0.3052 -0.0777
10918TIP3    H154169   3.276   5.791  15.513  1.8420 -0.0480  1.2192
10918TIP3    H254170   3.223   5.797  15.655  0.3361 -0.8432  0.7194
10919TIP3   OH254171   5.648   0.408  12.003  0.3341 -0.0667 -0.5589
10919TIP3    H154172   5.665   0.383  12.094 -0.5186 -1.6256 -0.7808
10919TIP3    H254173   5.563   0.451  12.005  0.2995 -0.1316 -0.6175
10920TIP3   OH254174   4.646   4.910  13.194  0.1795 -0.2707  0.1955
10920TIP3    H154175   4.651   4.964  13.273  0.5065 -2.2224  1.6020
10920TIP3    H254176   4.572   4.852  13.210  0.9051 -1.4130 -0.4318
10921TIP3   OH254177   2.793   0.923  14.276 -0.0731 -0.8670  0.2831
10921TIP3    H154178   2.744   0.989  14.325 -0.0332 -1.7903  1.6263
10921TIP3    H254179   2.727   0.861  14.247 -0.2648  0.3212 -1.9884
10922TIP3   OH254180   2.305   5.759   5.841 -0.0438  0.2011  0.3403
10922TIP3    H154181   2.355   5.831   5.878 -0.1140  0.2650  0.3113
10922TIP3    H254182   2.272   5.712   5.917 -0.4312  0.5013  0.3612
10923TIP3   OH254183   4.143   5.168   2.406  0.0724 -0.1762 -0.1953
10923TIP3    H154184   4.094   5.089   2.385 -1.4329  0.3402  1.1384
10923TIP3    H254185   4.099   5.237   2.356  1.1523 -0.1045 -1.0735
10924TIP3   OH254186   6.138   4.986  14.369 -0.7493  0.0848 -0.2973
10924TIP3    H154187   6.052   4.948  14.391 -0.8740 -0.0933 -1.0561
10924TIP3    H254188   6.165   5.032  14.448 -1.7740  0.5539 -0.2065
10925TIP3   OH254189   3.511   6.039   4.007  0.4602  0.5806 -0.5420
10925TIP3    H154190   3.484   5.980   4.077  2.5176  2.1029  1.7037
10925TIP3    H254191   3.511   5.985   3.928 -3.7820 -0.7473  0.1327
10926TIP3   OH254192   3.139   0.674  14.403 -0.7022  0.0433 -0.3525
10926TIP3    H154193   3.104   0.664  14.314  0.7750 -0.3856 -0.9129
10926TIP3    H254194   3.232   0.691  14.390 -0.5920  0.6568  1.1075
10927TIP3   OH254195   5.846   3.773   4.160  0.3356  0.0886 -0.1525
10927TIP3    H154196   5.817   3.750   4.248  0.9094 -2.3527 -0.5212
10927TIP3    H254197   5.935   3.807   4.173  0.5269 -0.5231  0.2054
10928TIP3   OH254198   2.551   1.921  12.176 -0.6664  0.2255 -0.1477
10928TIP3    H154199   2.510   1.943  12.259 -0.3787 -0.5495  0.2132
10928TIP3    H254200   2.587   1.833  12.190  1.6447  1.0963 -0.2410
10929TIP3   OH254201   4.734   5.724  10.534 -0.7432 -0.0482 -0.0248
10929TIP3    H154202   4.711   5.655  10.472  2.2366  0.1969 -1.5634
10929TIP3    H254203   4.771   5.677  10.609 -0.5144 -0.2025 -0.2318
10930TIP3   OH254204   4.299   4.237   0.518  0.1467 -0.4653  0.4639
10930TIP3    H154205   4.300   4.236   0.422 -0.5194  2.4565  0.3094
10930TIP3    H254206   4.374   4.293   0.542 -1.7179  1.8280  1.3766
10931TIP3   OH254207   2.189   5.745  15.802 -0.5036 -0.4315 -0.2251
10931TIP3    H154208   2.164   5.674  15.862  0.5561 -1.0559 -0.4884
10931TIP3    H254209   2.163   5.825  15.848  2.2024 -0.7471  2.1680
10932TIP3   OH254210   4.477   2.291  16.354  0.1827  0.2475  0.1024
10932TIP3    H154211   4.497   2.209  16.400 -1.1749 -0.4757 -0.5398
10932TIP3    H254212   4.382   2.299  16.360  0.1092  0.8076 -1.4577
10933TIP3   OH254213   0.290   0.386   2.110  0.1574  0.1647 -0.1532
10933TIP3    H154214   0.326   0.301   2.087  0.9194  0.9046 -1.8320
10933TIP3    H254215   0.198   0.370   2.127  0.2736 -0.9752 -0.5536
10934TIP3   OH254216   6.765   5.845  12.727 -0.6305 -0.2940 -0.3223
10934TIP3    H154217   6.774   5.935  12.696 -0.1070 -0.3634 -0.3772
10934TIP3    H254218   6.812   5.792  12.663 -1.3666 -0.6651 -0.5668
10935TIP3   OH254219   4.562   1.359   3.845  0.0388  0.0964  0.2427
10935TIP3    H154220   4.593   1.407   3.922  1.0375 -0.1898  0.0291
10935TIP3    H254221   4.483   1.314   3.875  0.4488 -0.0545  1.1083
10936TIP3   OH254222   4.040   2.330   0.587 -0.3994  0.2299 -0.1249
10936TIP3    H154223   4.030   2.242   0.621  0.3234 -1.1916 -3.2552
10936TIP3    H254224   4.101   2.372   0.646  0.0904 -1.7358  0.8336
10937TIP3   OH254225   5.960   6.144   6.544  0.3392  0.0845  0.6674
10937TIP3    H154226   6.052   6.172   6.549 -0.1459  1.9198  0.3252
10937TIP3    H254227   5.913   6.211   6.594 -1.2545  1.6639 -2.6443
10938TIP3   OH254228   3.579   6.672   3.077 -0.9434 -0.7245 -0.2269
10938TIP3    H154229   3.606   6.631   3.159 -0.4624  0.4312  0.1997
10938TIP3    H254230   3.592   6.604   3.011  1.1552 -0.8487  0.2520
10939TIP3   OH254231   2.885   4.623   2.809 -0.2365 -0.2082  0.6176
10939TIP3    H154232   2.909   4.698   2.864  0.0077  1.1774 -1.2736
10939TIP3    H254233   2.800   4.648   2.772  0.1046 -0.6245 -0.4668
10940TIP3   OH254234   1.859   5.516   2.058 -0.1123  0.4290  0.1384
10940TIP3    H154235   1.837   5.508   1.965 -0.3789  0.5845  0.1854
10940TIP3    H254236   1.781   5.484   2.104 -0.5184  1.5936  0.3094
10941TIP3   OH254237   3.038   0.279  15.262 -0.2460  0.4696 -0.1261
10941TIP3    H154238   3.046   0.308  15.171 -1.4097  0.0862 -0.3682
10941TIP3    H254239   3.056   0.357  15.314 -0.8245  1.0074 -0.7183
10942TIP3   OH254240   1.600   3.690   2.081 -0.0451  0.4371 -0.1732
10942TIP3    H154241   1.543   3.767   2.079  1.4735  1.6017 -0.4435
10942TIP3    H254242   1.648   3.694   1.999  0.5752 -0.4186  0.1339
10943TIP3   OH254243   4.313   0.157   1.543  0.1333  0.8101 -0.6376
10943TIP3    H154244   4.320   0.252   1.541  0.1925  0.8837  1.0771
10943TIP3    H254245   4.357   0.132   1.624 -2.9823 -0.3211  0.8775
10944TIP3   OH254246   3.590   6.725  16.832  0.0847  0.2984  0.4814
10944TIP3    H154247   3.660   6.661  16.845 -0.1256 -0.3950 -1.5495
10944TIP3    H254248   3.593   6.746  16.739 -3.0993 -0.5772  0.0590
10945TIP3   OH254249   3.238   3.996  10.084  0.0744 -0.6297  0.1714
10945TIP3    H154250   3.146   3.979  10.062  0.0493 -2.2417  1.3248
10945TIP3    H254251   3.285   3.980  10.002 -0.5991 -0.5017 -0.2532
10946TIP3   OH254252   6.011   3.450   5.108 -0.2021  0.2904 -0.3943
10946TIP3    H154253   6.084   3.511   5.094 -0.1966  0.8712  1.7406
10946TIP3    H254254   6.039   3.397   5.183 -0.9935 -1.1392 -1.0591
10947TIP3   OH254255   4.149   1.482  12.543  0.1081  0.1304 -0.3643
10947TIP3    H154256   4.240   1.512  12.540  0.0660  0.4466  0.8538
10947TIP3    H254257   4.097   1.555  12.510  0.2089  0.4359  0.1408
10948TIP3   OH254258   3.570   1.203   1.218 -0.9212  0.1632  0.4784
10948TIP3    H154259   3.656   1.168   1.241 -0.4157  0.2845 -1.0993
10948TIP3    H254260   3.510   1.129   1.227 -0.3575 -0.3645 -0.0457
10949TIP3   OH254261   2.638   5.315  13.642  0.2110  0.8059 -0.0430
10949TIP3    H154262   2.555   5.325  13.687  0.8156 -0.4692  1.4697
10949TIP3    H254263   2.619   5.256  13.569  0.1683 -1.3523  1.6290
10950TIP3   OH254264   4.054   4.333  17.074 -0.2102  0.1202  0.0946
10950TIP3    H154265   4.015   4.275  17.008  0.6115  0.7962 -1.0394
10950TIP3    H254266   3.983   4.354  17.134 -0.3097 -2.8873  1.1746
10951TIP3   OH254267   6.017   5.642   1.638  0.3633  0.7839  0.1598
10951TIP3    H154268   6.054   5.665   1.723  0.7402  0.4686  0.0874
10951TIP3    H254269   6.023   5.546   1.634 -2.4656  0.4648  1.0601
10952TIP3   OH254270   1.455   3.114   3.047  0.2070  0.2457  0.1439
10952TIP3    H154271   1.377   3.091   3.097  0.9772  1.0956  1.8268
10952TIP3    H254272   1.422   3.134   2.959 -1.3739 -0.0106  0.6477
10953TIP3   OH254273   5.369   1.244  11.219 -0.2715  0.0092  0.3722
10953TIP3    H154274   5.456   1.219  11.250 -0.1831 -3.2576 -2.0061
10953TIP3    H254275   5.312   1.232  11.295  0.5811 -3.3824  0.6306
10954TIP3   OH254276   4.903   4.192   2.679  0.2496 -0.0599 -0.4697
10954TIP3    H154277   4.852   4.120   2.642  0.3056 -1.7749  2.5074
10954TIP3    H254278   4.940   4.157   2.760  2.6230  2.4812 -0.2926
10955TIP3   OH254279   0.044   3.376   1.444 -0.0659 -0.0687 -0.3962
10955TIP3    H154280   0.009   3.332   1.366  1.5250 -0.4901 -0.9253
10955TIP3    H254281   0.032   3.313   1.515 -0.4457 -0.1600 -0.5386
10956TIP3   OH254282   2.237   3.236   5.086  0.3192  0.1025  0.2552
10956TIP3    H154283   2.238   3.255   4.993  0.7154  0.6438  0.3675
10956TIP3    H254284   2.269   3.316   5.128 -1.2041  0.3852  0.9538
10957TIP3   OH254285   1.264   1.689  12.248 -0.2089  0.1084  0.1689
10957TIP3    H154286   1.270   1.763  12.188  1.3083 -0.1218 -0.0040
10957TIP3    H254287   1.203   1.629  12.206  1.7462 -0.6037 -1.8214
10958TIP3   OH254288   0.290   6.635  12.186  0.3737  0.5020  0.2109
10958TIP3    H154289   0.212   6.678  12.220  0.9198  1.0774  0.7605
10958TIP3    H254290   0.339   6.609  12.264  0.1893 -0.8926 -0.1116
10959TIP3   OH254291   5.910   0.342   1.132  0.0257 -0.3982 -0.0657
10959TIP3    H154292   5.856   0.420   1.148 -1.0960 -1.0751 -0.4613
10959TIP3    H254293   5.951   0.358   1.047 -2.0996 -1.2289 -1.3311
10960TIP3   OH254294   5.464   2.318  10.742 -0.0796  0.3545 -0.6040
10960TIP3    H154295   5.507   2.241  10.780 -0.3951 -0.3929 -1.7167
10960TIP3    H254296   5.474   2.307  10.647  1.4271  2.5955 -0.7893
10961TIP3   OH254297   4.542   6.328  12.693 -0.3364  0.0502 -0.0952
10961TIP3    H154298   4.627   6.366  12.715 -0.0523 -0.6935  0.1400
10961TIP3    H254299   4.487   6.403  12.669 -0.0876  0.7254  1.2963
10962TIP3   OH254300   5.450   6.134   4.660  0.1975 -0.2541 -0.2576
10962TIP3    H154301   5.467   6.073   4.588  1.3578 -2.2201  1.5554
10962TIP3    H254302   5.502   6.212   4.638  2.0644 -1.5377 -0.6914
10963TIP3   OH254303   4.602   6.446  12.300  0.1139 -0.4989  0.1510
10963TIP3    H154304   4.543   6.372  12.289  0.8471 -1.1248  0.3325
10963TIP3    H254305   4.576   6.486  12.383 -0.9160  0.0406 -0.4214
10964TIP3   OH254306   0.293   2.169   0.248  0.0244  0.1227  0.1663
10964TIP3    H154307   0.334   2.088   0.218  0.1590  0.3142 -0.1838
10964TIP3    H254308   0.367   2.224   0.275 -0.1209 -0.2408  1.3803
10965TIP3   OH254309   0.335   1.548  11.141 -0.5510 -0.1048 -0.1231
10965TIP3    H154310   0.374   1.468  11.104 -2.3584 -0.3658 -1.6585
10965TIP3    H254311   0.323   1.605  11.065 -1.9881  0.4214  0.4640
10966TIP3   OH254312   3.684   0.257  15.782  0.3840 -0.0601 -0.2834
10966TIP3    H154313   3.735   0.241  15.861  1.4519 -1.6290 -1.2281
10966TIP3    H254314   3.620   0.186  15.779  0.5576 -0.1967 -0.9724
10967TIP3   OH254315   0.148   4.705  13.421 -0.0168 -0.3780 -0.1491
10967TIP3    H154316   0.159   4.675  13.330  1.1524 -1.3122  0.2815
10967TIP3    H254317   0.084   4.776  13.414 -0.5758 -0.9732 -1.5960
10968TIP3   OH254318   4.219   4.093   1.174 -0.0631  0.0192 -0.1181
10968TIP3    H154319   4.241   4.165   1.115  2.4627 -0.8327 -0.3058
10968TIP3    H254320   4.255   4.118   1.259 -2.7503  0.7499  0.9354
10969TIP3   OH254321   3.415   4.835   1.889 -0.4100  0.0238 -0.0771
10969TIP3    H154322   3.480   4.829   1.819  1.2273  1.7864  1.1838
10969TIP3    H254323   3.441   4.766   1.951 -0.4516 -0.0354 -0.1257
10970TIP3   OH254324   3.067   0.154  17.162 -0.2007 -0.5002  0.0130
10970TIP3    H154325   2.979   0.119  17.175  0.0181 -1.1835 -0.2918
10970TIP3    H254326   3.057   0.249  17.170 -0.6832 -0.6661  1.5772
10971TIP3   OH254327   5.550   1.172  14.675  0.0559  0.0904  0.0493
10971TIP3    H154328   5.494   1.235  14.721 -0.7863 -0.5490 -0.0604
10971TIP3    H254329   5.490   1.100  14.651  1.0366 -0.8816  0.4184
10972TIP3   OH254330   3.825   1.573  12.165 -0.1222  0.3079 -0.2932
10972TIP3    H154331   3.837   1.628  12.088  0.4107  1.8065  0.8245
10972TIP3    H254332   3.913   1.544  12.189 -0.0728  1.1719  0.6637
10973TIP3   OH254333   1.586   4.461   4.578 -0.0909  0.7720 -0.2660
10973TIP3    H154334   1.523   4.532   4.587 -1.2821 -0.4820  2.4216
10973TIP3    H254335   1.670   4.499   4.604 -0.3742  1.5965 -0.5360
10974TIP3   OH254336   5.986   2.952   4.982  0.0828 -0.0548 -0.5438
10974TIP3    H154337   5.970   2.927   4.891 -1.9290 -2.5404  0.3451
10974TIP3    H254338   5.945   3.037   4.991  2.1454  1.2581 -2.3785
10975TIP3   OH254339   4.768   0.589   3.072  0.5404  0.1446  0.2989
10975TIP3    H154340   4.791   0.496   3.076  2.5560  0.5566 -0.4236
10975TIP3    H254341   4.768   0.610   2.978  0.0830  0.8823  0.4521
10976TIP3   OH254342   6.652   6.643   3.452  0.4120  0.5737 -0.3101
10976TIP3    H154343   6.670   6.721   3.400  2.0326  0.3283 -0.1537
10976TIP3    H254344   6.573   6.606   3.412 -1.0943  2.8611  0.3069
10977TIP3   OH254345   3.803   3.354  15.356 -0.6299  0.3299 -0.0937
10977TIP3    H154346   3.824   3.297  15.282 -1.9340 -0.6790  0.2616
10977TIP3    H254347   3.876   3.415  15.361  0.1188 -0.4059 -1.3956
10978TIP3   OH254348   6.622   3.441  15.139  0.1647  0.8013  0.1111
10978TIP3    H154349   6.708   3.404  15.118 -0.2422 -1.2736  1.6612
10978TIP3    H254350   6.560   3.389  15.087 -0.4254 -0.9455  2.3642
10979TIP3   OH254351   4.872   5.275   2.216 -0.1492  0.1013  0.4745
10979TIP3    H154352   4.915   5.239   2.139 -1.2411 -0.5423  0.1335
10979TIP3    H254353   4.790   5.225   2.223 -0.4226  0.6634  1.6099
10980TIP3   OH254354   4.334   1.840  17.048  0.5008 -0.3772 -0.1488
10980TIP3    H154355   4.337   1.919  16.994 -1.0684 -0.3316 -0.2315
10980TIP3    H254356   4.425   1.820  17.067  0.9513  2.2915  1.0617
10981TIP3   OH254357   1.339   5.770  11.797 -0.3007 -0.5896  0.5618
10981TIP3    H154358   1.247   5.759  11.774 -0.3017 -0.1170  0.3179
10981TIP3    H254359   1.339   5.839  11.864 -0.2207 -1.3743  1.3933
10982TIP3   OH254360   0.480   3.270  13.848 -0.2212  0.5080  0.1203
10982TIP3    H154361   0.497   3.302  13.937 -0.5408  0.4938  0.1884
10982TIP3    H254362   0.386   3.252  13.847 -0.5441  2.0835 -0.7365
10983TIP3   OH254363   1.663   3.376  11.910 -0.2057 -0.0165  0.2398
10983TIP3    H154364   1.697   3.458  11.946  0.0789 -0.5076  1.1082
10983TIP3    H254365   1.741   3.326  11.885 -0.3083 -0.7392  1.3244
10984TIP3   OH254366   2.077   3.295  13.979 -0.2365  0.0602  0.3442
10984TIP3    H154367   2.044   3.216  14.023 -0.1321 -0.4271 -0.4390
10984TIP3    H254368   2.127   3.262  13.905  1.3870  0.8173  1.0688
10985TIP3   OH254369   2.615   4.321   1.804 -0.8013 -0.1245  0.5160
10985TIP3    H154370   2.550   4.255   1.826  1.6828 -2.8522  0.2772
10985TIP3    H254371   2.644   4.299   1.716  1.0487  0.4029  0.9402
10986TIP3   OH254372   0.715   4.713  13.398  0.1179  0.3636 -0.1656
10986TIP3    H154373   0.695   4.620  13.407  2.3880 -0.0253  2.1118
10986TIP3    H254374   0.635   4.757  13.427  0.0513 -0.9636  1.8906
10987TIP3   OH254375   0.891   5.477  15.664 -0.0499 -0.3838  0.6036
10987TIP3    H154376   0.919   5.498  15.753 -0.2019  0.7713  0.3900
10987TIP3    H254377   0.970   5.488  15.611 -0.3669  0.7257  0.3339
10988TIP3   OH254378   1.044   1.576  11.406 -0.2742 -0.4222 -0.3089
10988TIP3    H154379   1.122   1.614  11.367  0.7526 -1.0744  1.0117
10988TIP3    H254380   1.077   1.512  11.470 -1.8404  0.1325  1.1561
10989TIP3   OH254381   1.105   6.618   3.257  0.1992  0.5499  0.0628
10989TIP3    H154382   1.030   6.641   3.312 -0.3917  0.7385 -0.7937
10989TIP3    H254383   1.090   6.526   3.235  0.2213  0.5822 -0.0904
10990TIP3   OH254384   0.365   2.469   1.170  0.1438  0.1147 -0.1484
10990TIP3    H154385   0.273   2.481   1.193  0.1931  0.4111 -0.1059
10990TIP3    H254386   0.373   2.502   1.081  0.3421  0.6737  0.0762
10991TIP3   OH254387   1.127   3.397  12.583 -0.4745  0.4429  0.1550
10991TIP3    H154388   1.155   3.322  12.637 -3.3407 -1.1152 -0.3052
10991TIP3    H254389   1.092   3.459  12.646  0.7153  0.8722  0.4284
10992TIP3   OH254390   6.216   2.916  16.336  0.7485  0.1742 -0.0115
10992TIP3    H154391   6.240   3.000  16.296 -1.3756  1.2206  0.7905
10992TIP3    H254392   6.288   2.898  16.396  1.8965  0.7217 -1.1608
10993TIP3   OH254393   6.141   2.730  16.852  0.0527  0.2879 -0.8459
10993TIP3    H154394   6.110   2.821  16.858  0.9915  0.7322 -2.0499
10993TIP3    H254395   6.209   2.724  16.918 -1.9114 -0.4300  1.2042
10994TIP3   OH254396   6.383   2.918   1.235 -0.0624 -0.1689  0.1885
10994TIP3    H154397   6.295   2.935   1.270 -0.2584  1.9417 -1.2070
10994TIP3    H254398   6.370   2.907   1.141  1.3122  1.5303 -0.2380
10995TIP3   OH254399   0.495   2.919  11.953  0.0594  0.0430  0.5342
10995TIP3    H154400   0.532   2.897  12.038 -1.8530 -0.9546  1.1798
10995TIP3    H254401   0.483   2.835  11.909 -0.7682  0.3767  0.0902
10996TIP3   OH254402   5.112   6.728  10.578 -0.0892  0.1316 -0.3956
10996TIP3    H154403   5.061   6.809  10.575 -0.5171 -0.1608 -1.1615
10996TIP3    H254404   5.067   6.674  10.643  0.3108  0.5685  0.2640
10997TIP3   OH254405   4.440   6.806  12.965  0.3117 -0.2632 -0.0852
10997TIP3    H154406   4.483   6.890  12.950  0.2943 -0.4245 -1.1364
10997TIP3    H254407   4.375   6.824  13.034  1.8118  0.0523  1.2931
10998TIP3   OH254408   5.741   1.875  12.686  0.5561  0.0389  0.2462
10998TIP3    H154409   5.800   1.817  12.734  0.4954 -1.1931 -1.1073
10998TIP3    H254410   5.769   1.963  12.711  1.2114 -0.5396  1.6867
10999TIP3   OH254411   4.446   2.172   3.092 -0.0125 -0.4065  0.0468
10999TIP3    H154412   4.456   2.261   3.126  0.1439 -0.7013  0.7925
10999TIP3    H254413   4.508   2.167   3.019 -1.9676  0.9720 -1.8469
11000TIP3   OH254414   3.885   4.760   5.297 -0.0233  0.6094 -0.1543
11000TIP3    H154415   3.960   4.817   5.315 -0.8205  2.0086 -1.0990
11000TIP3    H254416   3.827   4.812   5.241 -1.5021 -0.5919  0.1737
11001TIP3   OH254417   1.689   6.204   4.040 -0.1251  0.3368 -0.7986
11001TIP3    H154418   1.668   6.229   4.130 -0.2136 -1.4226 -0.2911
11001TIP3    H254419   1.639   6.123   4.026 -0.2067  0.6484 -2.4855
11002TIP3   OH254420   6.033   3.862   1.603 -0.1502  0.0092 -0.3080
11002TIP3    H154421   5.950   3.909   1.596  0.7447  1.6256 -0.6427
11002TIP3    H254422   6.065   3.856   1.513 -0.1503 -1.0936 -0.2435
11003TIP3   OH254423   2.541   5.286  16.318 -0.4510 -0.0715  0.0843
11003TIP3    H154424   2.526   5.377  16.345 -0.3885  0.0870 -0.3975
11003TIP3    H254425   2.490   5.277  16.237  0.3161 -0.1650 -0.4086
11004TIP3   OH254426   4.809   6.513   1.376  0.0732 -0.1102 -0.3452
11004TIP3    H154427   4.746   6.449   1.341 -0.7436  0.6700 -0.3412
11004TIP3    H254428   4.800   6.506   1.471 -0.9769  0.9034 -0.3456
11005TIP3   OH254429   2.763   6.325   3.825  0.2768 -0.3269  0.2633
11005TIP3    H154430   2.673   6.292   3.820  0.3173 -0.2985 -1.3379
11005TIP3    H254431   2.813   6.252   3.863 -0.3426 -0.4913  0.7920
11006TIP3   OH254432   5.418   6.354  15.847  0.0910  0.4778 -0.0505
11006TIP3    H154433   5.458   6.410  15.914  1.2619 -0.3096 -0.0588
11006TIP3    H254434   5.415   6.408  15.769  0.4107  0.8225  0.1694
11007TIP3   OH254435   6.577   4.726   5.305  0.5652 -0.2434 -0.0461
11007TIP3    H154436   6.641   4.691   5.244 -0.4647 -1.3121 -0.5397
11007TIP3    H254437   6.544   4.805   5.262  2.2516  0.9419  0.6803
11008TIP3   OH254438   0.067   3.512   0.150  0.3840 -0.0785  0.0086
11008TIP3    H154439   0.092   3.438   0.094  0.2162  1.2675 -1.9143
11008TIP3    H254440   0.150   3.542   0.188  0.7472 -0.0089 -0.8141
11009TIP3   OH254441   6.721   2.976   4.710  0.6533 -0.2056 -0.1667
11009TIP3    H154442   6.699   2.898   4.658 -1.4065  0.0889  0.1457
11009TIP3    H254443   6.764   2.941   4.788 -1.6150 -1.2801  0.7264
11010TIP3   OH254444   3.364   5.106  11.878  0.1681 -0.7354 -0.3100
11010TIP3    H154445   3.284   5.054  11.884  0.3799 -0.9739  0.7590
11010TIP3    H254446   3.380   5.115  11.785  0.3597 -3.0042 -0.5584
11011TIP3   OH254447   6.762   6.550   1.897 -0.2049  0.0787 -0.1015
11011TIP3    H154448   6.847   6.516   1.871 -0.0822  0.2025  0.1345
11011TIP3    H254449   6.720   6.576   1.815  0.6476  1.5787 -0.0847
11012TIP3   OH254450   6.716   5.790   1.204  0.4124 -0.4542 -0.1459
11012TIP3    H154451   6.709   5.807   1.110 -0.9265  1.4422  0.2467
11012TIP3    H254452   6.631   5.815   1.240  1.2651 -0.0293  1.7310
11013TIP3   OH254453   6.146   5.896   6.220  0.2938 -0.2937  0.7220
11013TIP3    H154454   6.242   5.902   6.217  0.3573 -0.6048  1.6426
11013TIP3    H254455   6.129   5.803   6.230 -0.1317 -0.2965 -0.0302
11014TIP3   OH254456   2.703   0.357   5.472 -0.1432 -0.2113  0.0286
11014TIP3    H154457   2.609   0.345   5.458 -0.0850 -1.2086  0.4513
11014TIP3    H254458   2.708   0.421   5.543 -0.4651  1.7283 -1.6105
11015TIP3   OH254459   3.911   0.160   1.467  0.1213 -0.6074 -0.4910
11015TIP3    H154460   3.963   0.086   1.497  1.4568  0.9108  1.2130
11015TIP3    H254461   3.881   0.202   1.548 -1.3845  0.1944 -1.4205
11016TIP3   OH254462   4.415   2.129  15.617  0.3048  0.7346 -0.2435
11016TIP3    H154463   4.408   2.081  15.700 -0.2637  1.3148  0.0532
11016TIP3    H254464   4.502   2.169  15.620  0.8429 -0.3689 -0.5547
11017TIP3   OH254465   1.613   3.553  11.702  0.8046  0.0608 -0.1832
11017TIP3    H154466   1.575   3.634  11.736  2.9999  0.8248  0.6007
11017TIP3    H254467   1.628   3.499  11.779  4.7503  1.3478  0.1566
11018TIP3   OH254468   3.891   1.597  16.395 -0.1255  0.1193 -0.2511
11018TIP3    H154469   3.894   1.599  16.491  0.5008  1.7119 -0.2660
11018TIP3    H254470   3.926   1.511  16.372  0.0339 -0.1602  0.9465
11019TIP3   OH254471   6.111   3.745   4.282  0.1820 -1.0089  0.0786
11019TIP3    H154472   6.031   3.748   4.334 -0.8055 -0.1096 -1.4510
11019TIP3    H254473   6.090   3.689   4.208  0.8112 -0.4020 -0.5732
11020TIP3   OH254474   2.971   0.538   2.136  0.0653  0.7107  0.0406
11020TIP3    H154475   2.970   0.455   2.183 -0.9087 -0.4437 -1.8697
11020TIP3    H254476   2.889   0.539   2.087  0.5599  2.2941 -0.8375
11021TIP3   OH254477   5.524   3.970  16.597 -0.3815  0.0150 -0.3669
11021TIP3    H154478   5.552   4.041  16.539  0.9480  0.0711  0.3168
11021TIP3    H254479   5.448   3.932  16.553  0.3586  0.2984 -1.9599
11022TIP3   OH254480   0.568   2.706  15.226 -0.0031 -0.0075  0.3314
11022TIP3    H154481   0.617   2.638  15.181 -1.3046 -0.7517 -0.0209
11022TIP3    H254482   0.560   2.675  15.316  0.2808  0.1691  0.4161
11023TIP3   OH254483   1.784   5.300   5.040 -0.1489 -0.4306  0.3043
11023TIP3    H154484   1.801   5.223   5.093 -0.2420 -0.5561  0.1517
11023TIP3    H254485   1.732   5.268   4.967  0.6065 -0.3898 -0.2641
11024TIP3   OH254486   4.902   5.945   4.610 -0.0014  0.0916  0.8673
11024TIP3    H154487   4.829   5.996   4.646 -0.3251 -0.6052  1.2251
11024TIP3    H254488   4.954   5.921   4.687 -0.3575 -0.8889  0.8098
11025TIP3   OH254489   1.462   5.055  15.593 -0.4537 -0.1666 -0.1847
11025TIP3    H154490   1.512   4.989  15.544  1.7358  0.4129  1.1376
11025TIP3    H254491   1.378   5.012  15.611  0.1572 -1.8386 -1.0389
11026TIP3   OH254492   3.211   2.904  15.057  0.2033  0.4355 -0.3021
11026TIP3    H154493   3.260   2.862  14.987 -0.2654  1.0561 -1.0173
11026TIP3    H254494   3.133   2.941  15.014  0.7705  2.3386  0.2102
11027TIP3   OH254495   5.972   1.810   0.778 -0.0721  0.0694  1.0122
11027TIP3    H154496   6.045   1.760   0.813  1.0399  1.1060  0.2326
11027TIP3    H254497   6.003   1.843   0.694 -1.5221  0.3492  0.5507
11028TIP3   OH254498   3.133   3.451   2.401 -0.5175 -0.2397  0.2624
11028TIP3    H154499   3.163   3.541   2.417  0.5825 -0.6061  0.3281
11028TIP3    H254500   3.085   3.428   2.481 -0.7540  0.2669  0.2731
11029TIP3   OH254501   5.198   3.781  15.770  0.3997 -0.0429 -0.2124
11029TIP3    H154502   5.111   3.814  15.744  0.5977 -0.6666 -1.8256
11029TIP3    H254503   5.213   3.706  15.711  1.0695 -1.3840  1.5720
11030TIP3   OH254504   6.121   5.382  14.107  0.4097  0.6600 -0.3526
11030TIP3    H154505   6.096   5.436  14.182 -0.0659 -1.1130  0.8276
11030TIP3    H254506   6.095   5.294  14.131 -0.1618  0.0678 -2.8203
11031TIP3   OH254507   6.176   1.711   2.575  0.0667 -0.2641 -0.1709
11031TIP3    H154508   6.233   1.717   2.499 -0.2718 -1.1897 -0.5059
11031TIP3    H254509   6.088   1.729   2.541  0.1375  1.1465  0.3404
11032TIP3   OH254510   6.497   4.768   2.253  0.6550  0.4524 -0.4406
11032TIP3    H154511   6.482   4.673   2.249  1.5172  0.3478 -2.2588
11032TIP3    H254512   6.585   4.780   2.219  0.5469  1.9230 -0.2566
11033TIP3   OH254513   0.663   4.831  15.522  0.2510  0.1569  0.1599
11033TIP3    H154514   0.584   4.791  15.487 -0.8016  1.9395  0.3650
11033TIP3    H254515   0.722   4.839  15.447 -1.0214  1.6841 -0.7336
11034TIP3   OH254516   1.865   1.679   5.861  0.1708 -0.0821 -0.3370
11034TIP3    H154517   1.792   1.712   5.913 -0.9957  0.4564 -2.1997
11034TIP3    H254518   1.937   1.670   5.923 -1.3684 -0.2961  1.5020
11035TIP3   OH254519   5.419   4.683   3.689  0.3381  0.2227 -0.2195
11035TIP3    H154520   5.438   4.651   3.778 -0.8044 -1.6919 -0.6210
11035TIP3    H254521   5.501   4.669   3.641  0.2622 -0.9378 -0.0433
11036TIP3   OH254522   4.113   5.112  15.809  0.3171  0.3006  0.2588
11036TIP3    H154523   4.168   5.189  15.827  0.0692  0.6028 -0.2531
11036TIP3    H254524   4.068   5.095  15.892  3.2306 -1.6802  1.5905
11037TIP3   OH254525   2.139   1.296  10.544  0.1339 -0.4598 -0.1299
11037TIP3    H154526   2.110   1.214  10.505  0.0947 -0.4490 -0.1241
11037TIP3    H254527   2.234   1.288  10.550  0.0925 -0.6851  0.2810
11038TIP3   OH254528   0.752   3.597   3.928 -0.0017  0.3909 -1.0271
11038TIP3    H154529   0.821   3.580   3.992 -0.8476 -0.7019 -0.3755
11038TIP3    H254530   0.685   3.531   3.946 -2.2565  2.7395 -0.1559
11039TIP3   OH254531   0.856   2.839  16.655  0.3075 -0.0319  0.4384
11039TIP3    H154532   0.927   2.870  16.710 -0.6953 -0.4591  2.0234
11039TIP3    H254533   0.777   2.858  16.704 -0.6036 -0.7437 -0.7005
11040TIP3   OH254534   2.988   0.608  14.133  0.3340  0.1603  0.2020
11040TIP3    H154535   2.938   0.531  14.108  1.8246  0.2383 -3.6924
11040TIP3    H254536   2.922   0.677  14.143 -0.6639 -0.5373 -1.1932
11041TIP3   OH254537   3.786   4.085  13.018  0.1366  0.0634 -0.4861
11041TIP3    H154538   3.736   4.154  12.974  0.4150  0.4458 -0.2212
11041TIP3    H254539   3.782   4.010  12.960  0.1396  0.4270 -0.9612
11042TIP3   OH254540   4.569   4.730  13.480 -0.1310  0.2032 -0.3268
11042TIP3    H154541   4.624   4.796  13.522  1.5661 -0.5733 -1.2648
11042TIP3    H254542   4.500   4.713  13.545  0.8676  0.9979  1.0074
11043TIP3   OH254543   4.954   5.866   4.891  0.1966  0.5529 -0.1168
11043TIP3    H154544   4.960   5.959   4.914 -0.6786  0.2972  1.2716
11043TIP3    H254545   4.951   5.820   4.975  3.5318 -1.0241 -0.7180
11044TIP3   OH254546   4.668   0.312   4.504 -0.1778 -0.6494 -0.5027
11044TIP3    H154547   4.618   0.297   4.584  1.4414 -1.8441  0.3416
11044TIP3    H254548   4.608   0.361   4.448 -0.7221  1.9233  2.0983
11045TIP3   OH254549   0.087   6.022   3.015  0.1649 -0.5587  0.1277
11045TIP3    H154550   0.113   6.114   3.016  2.5282 -1.1601  0.0434
11045TIP3    H254551   0.046   6.008   3.101  0.8258  0.3106  0.5990
11046TIP3   OH254552   6.688   2.245  12.926 -0.6982 -0.0452 -0.0154
11046TIP3    H154553   6.680   2.151  12.909  0.8044 -0.3982  1.0864
11046TIP3    H254554   6.621   2.284  12.870 -1.5876 -1.7858 -0.2567
11047TIP3   OH254555   6.347   0.542  16.663 -0.1187 -0.4153 -0.0025
11047TIP3    H154556   6.253   0.558  16.669  0.0410  0.5090  0.3283
11047TIP3    H254557   6.382   0.623  16.624  0.2714 -1.6936 -2.5447
11048TIP3   OH254558   0.208   3.785  16.642 -0.0538  0.3725  0.3904
11048TIP3    H154559   0.271   3.810  16.710 -0.1251  0.6338  0.3614
11048TIP3    H254560   0.148   3.859  16.637  1.3556  1.4497 -1.6899
11049TIP3   OH254561   4.206   5.392   0.138 -0.1242  0.2056  0.3140
11049TIP3    H154562   4.283   5.384   0.082  1.2029 -1.0064  2.1828
11049TIP3    H254563   4.240   5.383   0.227 -2.3133  0.6199  1.2650
11050TIP3   OH254564   5.743   1.312  16.977 -0.7776  0.2945  0.3407
11050TIP3    H154565   5.705   1.300  17.063  0.5245  0.5364  0.9790
11050TIP3    H254566   5.813   1.376  16.990 -0.8093  0.6302 -0.9706
11051TIP3   OH254567   1.561   1.697  16.445  0.5566 -0.0373 -0.1202
11051TIP3    H154568   1.632   1.706  16.509  1.3796  0.8919 -1.1365
11051TIP3    H254569   1.605   1.671  16.364 -0.4572 -1.0673 -0.3623
11052TIP3   OH254570   2.450   2.600  16.114  0.7884  0.2431  0.3993
11052TIP3    H154571   2.407   2.518  16.092 -0.5824  0.9995  0.1429
11052TIP3    H254572   2.383   2.651  16.160  2.0902  0.6148  2.0248
11053TIP3   OH254573   3.537   5.013  12.304 -0.2245  0.2627 -0.0825
11053TIP3    H154574   3.483   4.965  12.241  1.0315  1.2807 -2.0667
11053TIP3    H254575   3.599   4.948  12.336  0.5535  0.1776 -1.6597
11054TIP3   OH254576   5.041   4.053  16.036 -0.4929  0.0718  0.1577
11054TIP3    H154577   5.105   4.066  15.966  2.0451  0.2981  2.3698
11054TIP3    H254578   4.989   4.134  16.035 -1.0853 -0.2710 -1.9188
11055TIP3   OH254579   6.524   5.617  12.001  0.5885 -0.2928 -0.1307
11055TIP3    H154580   6.467   5.686  11.968  0.7703  0.3428  0.8336
11055TIP3    H254581   6.607   5.630  11.955 -0.2291 -1.7141 -2.1302
11056TIP3   OH254582   0.768   0.444  14.812 -0.0113  0.2844 -0.3788
11056TIP3    H154583   0.845   0.391  14.831  0.7681  1.3414 -0.5066
11056TIP3    H254584   0.711   0.432  14.888  1.2819  1.2704  0.7781
11057TIP3   OH254585   0.192   3.420  16.570 -0.6485 -0.1655 -0.1770
11057TIP3    H154586   0.152   3.470  16.498  1.2139  1.9520  0.1337
11057TIP3    H254587   0.210   3.485  16.637  1.2791 -1.3586  0.5618
11058TIP3   OH254588   3.518   3.430   1.606  0.4661  0.3088 -0.2631
11058TIP3    H154589   3.466   3.352   1.588 -0.3249  0.7807 -0.0421
11058TIP3    H254590   3.575   3.439   1.529 -1.1393  0.8763 -1.4370
11059TIP3   OH254591   5.699   6.621  12.416 -0.4989  0.3192 -0.0778
11059TIP3    H154592   5.639   6.600  12.345 -0.9107  1.2251 -0.0142
11059TIP3    H254593   5.697   6.544  12.472 -0.8892 -0.0336 -0.5673
11060TIP3   OH254594   2.718   1.384   2.562  0.4749 -0.0649 -0.2653
11060TIP3    H154595   2.724   1.295   2.597 -0.4690  0.0732  0.2758
11060TIP3    H254596   2.723   1.373   2.467  1.9568 -0.5415 -0.1646
11061TIP3   OH254597   5.170   0.492   4.541 -0.4822  0.3948 -0.1433
11061TIP3    H154598   5.241   0.428   4.541 -1.9711 -1.3623  0.5912
11061TIP3    H254599   5.095   0.444   4.576 -2.4108  1.7351 -2.1575
11062TIP3   OH254600   2.081   4.879   0.276  0.3542  0.5373  0.6243
11062TIP3    H154601   2.068   4.824   0.353  0.6866  0.7441  0.8360
11062TIP3    H254602   2.157   4.841   0.232  0.7647  0.9858  0.9285
11063TIP3   OH254603   1.076   0.823   1.611 -0.0924 -0.0541 -0.4118
11063TIP3    H154604   1.074   0.867   1.695 -0.8590 -0.2555 -0.3147
11063TIP3    H254605   1.038   0.886   1.550  0.6493  0.1693 -0.6508
11064TIP3   OH254606   1.403   2.842   1.817  0.1959 -0.0384 -0.4648
11064TIP3    H154607   1.325   2.793   1.791  1.2681 -1.7213 -0.6232
11064TIP3    H254608   1.416   2.906   1.747 -1.1542  0.4297 -0.3133
11065TIP3   OH254609   4.108   5.722   2.133  0.0025 -0.7385  0.3377
11065TIP3    H154610   4.092   5.667   2.056  0.6812 -0.1503 -0.2403
11065TIP3    H254611   4.111   5.811   2.098 -0.0002 -0.4302  1.1004
11066TIP3   OH254612   2.517   4.201  13.157 -0.5103 -0.3348  0.4227
11066TIP3    H154613   2.458   4.134  13.191  0.1475 -0.9987  0.2896
11066TIP3    H254614   2.540   4.170  13.069 -0.3181  0.1362  0.3044
11067TIP3   OH254615   0.430   0.487   1.168  0.2268  0.2879  0.0326
11067TIP3    H154616   0.476   0.534   1.099  2.5274  0.6903  1.7126
11067TIP3    H254617   0.497   0.432   1.209 -0.8301  0.6075  2.3889
11068TIP3   OH254618   5.432   1.846  14.039  0.2604 -0.3911  0.0520
11068TIP3    H154619   5.449   1.935  14.072  0.1735 -0.2450 -0.2910
11068TIP3    H254620   5.509   1.796  14.064 -0.6948 -0.8433  2.3932
11069TIP3   OH254621   4.035   1.547   5.518  0.4727 -0.0260 -0.3768
11069TIP3    H154622   4.040   1.598   5.437 -0.9385 -0.6690 -0.9020
11069TIP3    H254623   4.074   1.462   5.494  1.5668  0.3240  0.1065
11070TIP3   OH254624   5.904   3.859  13.804  0.2201 -0.4583  0.0592
11070TIP3    H154625   5.919   3.947  13.771  2.0185 -0.2408  1.2988
11070TIP3    H254626   5.991   3.825  13.824 -0.5780 -1.2306  2.7352
11071TIP3   OH254627   6.781   2.667   3.308  0.1417  0.4150  0.2012
11071TIP3    H154628   6.827   2.665   3.391 -0.7516 -0.1274  0.6950
11071TIP3    H254629   6.765   2.760   3.291 -0.8492  0.4628  1.3059
11072TIP3   OH254630   5.017   1.712   2.128 -0.2449 -0.1385  0.5872
11072TIP3    H154631   5.106   1.718   2.092 -0.5761 -0.7503 -0.3391
11072TIP3    H254632   5.025   1.649   2.199 -0.2158 -1.2803 -0.4026
11073TIP3   OH254633   1.713   1.638  14.405 -0.2238  0.0492  0.3673
11073TIP3    H154634   1.758   1.720  14.386  0.6906 -0.3891  0.6137
11073TIP3    H254635   1.728   1.584  14.327  0.3772 -0.3919  0.7817
11074TIP3   OH254636   2.133   3.686  16.750  0.2336 -0.1234  0.0563
11074TIP3    H154637   2.074   3.644  16.687 -1.0273  0.3019  0.9176
11074TIP3    H254638   2.126   3.632  16.829  0.5379  0.2837  0.3616
11075TIP3   OH254639   0.377   0.003   4.055 -0.3658 -0.1095 -0.2003
11075TIP3    H154640   0.313   0.027   4.121 -0.7141 -0.7759 -0.2831
11075TIP3    H254641   0.336  -0.069   4.007  0.7554 -1.0736  0.2436
11076TIP3   OH254642   6.566   4.542  13.457 -0.3639 -0.3945 -0.1464
11076TIP3    H154643   6.622   4.618  13.439  0.0757 -0.5378  0.5638
11076TIP3    H254644   6.615   4.468  13.420  0.7433 -0.7484  1.8563
11077TIP3   OH254645   0.759   4.195   4.598  0.8530 -0.0388 -0.0616
11077TIP3    H154646   0.801   4.198   4.684  0.4778  2.7394  0.1308
11077TIP3    H254647   0.799   4.121   4.554  1.9513 -0.7969  2.0521
11078TIP3   OH254648   1.962   1.863  11.446  0.0151 -0.2889 -0.3763
11078TIP3    H154649   2.051   1.894  11.457 -1.0493  2.9505  0.0555
11078TIP3    H254650   1.944   1.873  11.352  0.2399 -1.5627 -0.5848
11079TIP3   OH254651   4.999   1.374   2.589 -0.4348  0.0166 -0.3724
11079TIP3    H154652   4.971   1.465   2.584  1.5817  0.6457 -1.1081
11079TIP3    H254653   5.082   1.377   2.637  0.2241 -1.2788 -1.3697
11080TIP3   OH254654   6.389   3.616   1.829 -0.4033  0.0126  0.5240
11080TIP3    H154655   6.388   3.549   1.760  0.1679 -0.4243  0.9316
11080TIP3    H254656   6.462   3.591   1.885  0.7686  1.7903 -0.1230
11081TIP3   OH254657   4.584   2.377  14.424 -0.1284  0.0452  0.9000
11081TIP3    H154658   4.603   2.365  14.517 -1.4525 -1.8897  0.9968
11081TIP3    H254659   4.489   2.386  14.419  0.1131  2.8790 -0.0811
11082TIP3   OH254660   0.889   4.966  12.290  0.7962 -0.1541  0.2050
11082TIP3    H154661   0.922   4.914  12.216 -0.0053 -0.3131 -0.0490
11082TIP3    H254662   0.964   4.972  12.350  0.6415 -2.4844  0.7428
11083TIP3   OH254663   4.734   0.068   2.378 -0.3166 -0.0628 -0.2990
11083TIP3    H154664   4.781   0.136   2.329 -0.5706 -0.2446 -0.8033
11083TIP3    H254665   4.799  -0.001   2.390  0.0533  0.4225  0.5485
11084TIP3   OH254666   1.449   3.799  10.534  0.1143  0.0243 -0.3011
11084TIP3    H154667   1.367   3.818  10.488  0.5433  2.0467 -0.3033
11084TIP3    H254668   1.512   3.860  10.497  1.0137  0.2098  1.4592
11085TIP3   OH254669   2.309   1.964   3.542 -0.3778  0.1189 -0.4192
11085TIP3    H154670   2.385   1.908   3.533 -0.6185 -0.0678 -1.3797
11085TIP3    H254671   2.339   2.050   3.513  0.0316  0.5556  1.1857
11086TIP3   OH254672   1.456   0.114  11.401  0.8538 -0.0313 -0.1835
11086TIP3    H154673   1.523   0.175  11.431  0.9545 -0.9855  1.6962
11086TIP3    H254674   1.386   0.121  11.466  0.3664 -1.0564 -0.5744
11087TIP3   OH254675   5.224   6.394  13.048  0.2838  0.1184 -0.0068
11087TIP3    H154676   5.174   6.470  13.018  0.7175  0.3066 -0.2627
11087TIP3    H254677   5.204   6.387  13.141 -1.4679 -0.7643 -0.4063
11088TIP3   OH254678   0.645   4.694   0.972 -0.0816  0.0651  0.0380
11088TIP3    H154679   0.621   4.759   0.906  0.5907  1.4743  1.1212
11088TIP3    H254680   0.700   4.632   0.925 -0.1253  0.6919 -0.8807
11089TIP3   OH254681   0.109   0.247  10.588  0.2872 -0.4677 -0.3910
11089TIP3    H154682   0.143   0.175  10.535 -0.0948  1.1016 -3.0005
11089TIP3    H254683   0.036   0.281  10.536 -0.3079  1.0397  1.3446
11090TIP3   OH254684   6.698   4.593  16.708  0.0309 -0.3011 -0.0715
11090TIP3    H154685   6.666   4.657  16.645 -1.7709 -0.0750  0.9989
11090TIP3    H254686   6.790   4.617  16.722  0.2292  0.1619 -1.9037
11091TIP3   OH254687   1.100   1.869  11.631  0.2525  0.0695 -0.0568
11091TIP3    H154688   1.162   1.923  11.582 -0.4313  0.8006 -0.1285
11091TIP3    H254689   1.021   1.867  11.577 -0.5817  1.0522  1.0853
11092TIP3   OH254690   1.636   0.847  13.007 -0.0929 -0.2518  0.4699
11092TIP3    H154691   1.556   0.798  13.026 -0.6708  0.6561  0.4326
11092TIP3    H254692   1.605   0.928  12.968  0.7974  0.5675  1.4183
11093TIP3   OH254693   2.367   6.633  13.389  0.3700  0.3413 -0.1344
11093TIP3    H154694   2.304   6.595  13.451  0.7943  0.6147  0.4707
11093TIP3    H254695   2.347   6.727  13.389  0.5450  0.3785 -0.2198
11094TIP3   OH254696   1.485   2.930  14.406 -0.0373 -0.0790 -0.2244
11094TIP3    H154697   1.462   3.023  14.402  0.0671 -0.0297  0.2492
11094TIP3    H254698   1.402   2.885  14.391  0.2049  0.0620 -2.2738
11095TIP3   OH254699   1.265   0.562   5.878  0.3777  0.1721  0.4071
11095TIP3    H154700   1.309   0.641   5.845 -1.5582  0.2124 -2.4437
11095TIP3    H254701   1.323   0.490   5.854  0.2713  0.4551 -0.8102
11096TIP3   OH254702   4.685   3.463  11.737 -0.1730  0.0637  0.6296
11096TIP3    H154703   4.647   3.544  11.704  1.5188  0.4671 -0.4428
11096TIP3    H254704   4.680   3.402  11.662 -0.5216 -0.5072  1.1069
11097TIP3   OH254705   0.469   0.350   3.151 -0.6770  0.2247 -0.8310
11097TIP3    H154706   0.474   0.441   3.122 -0.0330  0.5765  0.3248
11097TIP3    H254707   0.503   0.300   3.076  1.1768  1.1275 -0.6633
11098TIP3   OH254708   3.858   0.606   5.396  0.4358  0.5172 -0.0832
11098TIP3    H154709   3.941   0.644   5.367  1.4795 -0.4342  1.4689
11098TIP3    H254710   3.793   0.672   5.375  1.6734  1.5967 -0.7218
11099TIP3   OH254711   0.331   5.288  13.608 -0.2343  0.9296 -0.2847
11099TIP3    H154712   0.364   5.310  13.695  0.4661  0.7601 -0.5015
11099TIP3    H254713   0.241   5.320  13.608 -0.1548  1.1755  0.4068
11100TIP3   OH254714   3.831   0.264   1.711 -0.2032  0.4363 -0.2941
11100TIP3    H154715   3.910   0.240   1.760  0.5973 -1.4049 -2.3126
11100TIP3    H254716   3.771   0.296   1.777  1.4456 -0.1968  1.6321
11101TIP3   OH254717   6.794   3.277  15.616  0.6739 -0.6550  0.0502
11101TIP3    H154718   6.850   3.250  15.543  0.4770 -0.2026 -0.2732
11101TIP3    H254719   6.841   3.351  15.655 -0.5682  0.9845 -1.3875
11102TIP3   OH254720   1.879   1.633  12.272 -0.3056 -0.0284 -0.0951
11102TIP3    H154721   1.868   1.603  12.363  0.2710 -2.3341 -0.7227
11102TIP3    H254722   1.812   1.586  12.223  1.3029 -1.1549 -1.3075
11103TIP3   OH254723   0.524   2.626   3.620 -0.1760  0.1179 -0.2770
11103TIP3    H154724   0.454   2.626   3.685  1.4167 -1.3297  1.5403
11103TIP3    H254725   0.551   2.534   3.615  1.6345  0.6554 -0.8867
11104TIP3   OH254726   6.702   1.610  16.422 -0.0359  0.6571 -0.6166
11104TIP3    H154727   6.694   1.584  16.513 -0.8839  1.0007 -0.5823
11104TIP3    H254728   6.735   1.532  16.377 -1.0405  0.0078 -0.2611
11105TIP3   OH254729   1.599   6.382  10.977 -0.5915 -0.6297  0.1305
11105TIP3    H154730   1.658   6.341  11.040 -0.0424 -0.1288 -0.0449
11105TIP3    H254731   1.540   6.436  11.030  1.0125  1.2305  0.1386
11106TIP3   OH254732   1.600   5.855   4.498  0.6248  0.1928 -0.3026
11106TIP3    H154733   1.632   5.936   4.458  1.2329  0.1952  0.1855
11106TIP3    H254734   1.579   5.879   4.588 -0.8359  0.2057 -0.6134
11107TIP3   OH254735   3.634   2.547   1.044  0.0379 -0.0695 -0.4279
11107TIP3    H154736   3.702   2.512   1.102 -0.7001 -1.6202 -0.4561
11107TIP3    H254737   3.598   2.622   1.092  1.1361  0.2030 -0.0121
11108TIP3   OH254738   0.257   6.593   2.564  0.3026 -0.8323  0.0078
11108TIP3    H154739   0.341   6.548   2.577  0.5339 -0.5527 -0.4903
11108TIP3    H254740   0.257   6.616   2.471 -0.9679 -2.1158 -0.3432
11109TIP3   OH254741   0.760   3.099   3.194  0.5510 -0.6161 -0.4554
11109TIP3    H154742   0.775   3.143   3.110  0.9811  1.6212  0.7428
11109TIP3    H254743   0.818   3.143   3.255 -1.0919 -0.9488  1.4265
11110TIP3   OH254744   2.496   5.248  12.922  0.0789  0.5091  0.6514
11110TIP3    H154745   2.415   5.234  12.872 -0.0212 -0.0978  0.9758
11110TIP3    H254746   2.536   5.162  12.928  0.1287  0.5855  1.5616
11111TIP3   OH254747   1.389   3.856   3.152  0.0250  0.3802 -0.6868
11111TIP3    H154748   1.421   3.936   3.195 -2.2286  1.8236 -1.5259
11111TIP3    H254749   1.298   3.875   3.132 -0.4541 -2.2876 -1.3268
11112TIP3   OH254750   3.884   2.411   3.578 -0.3635  0.2552 -0.2056
11112TIP3    H154751   3.826   2.428   3.652 -1.4614 -0.7769 -0.7825
11112TIP3    H254752   3.841   2.454   3.504 -0.7736 -1.0868 -0.7723
11113TIP3   OH254753   1.527   3.792  11.290  0.5118  0.2603 -0.5168
11113TIP3    H154754   1.584   3.840  11.350  1.4129 -1.3263 -0.0418
11113TIP3    H254755   1.453   3.764  11.344 -0.6910  2.1415 -1.0866
11114TIP3   OH254756   1.712   5.024  16.240  0.1466 -0.0230  1.5504
11114TIP3    H154757   1.630   5.065  16.214 -0.0883 -1.2246  0.2725
11114TIP3    H254758   1.688   4.934  16.261  1.3094 -0.8497 -0.3553
11115TIP3   OH254759   1.754   4.183   1.215 -0.5410 -0.1770  0.3457
11115TIP3    H154760   1.776   4.263   1.263 -1.2401  0.6078 -0.5942
11115TIP3    H254761   1.804   4.114   1.259  1.7975  1.0896 -0.1147
11116TIP3   OH254762   3.257   2.430  13.029 -0.5077  0.7636  0.3975
11116TIP3    H154763   3.228   2.472  13.110  0.1056  1.4159  0.2865
11116TIP3    H254764   3.298   2.500  12.979 -2.6472  0.8274 -1.3988
11117TIP3   OH254765   4.695   4.490   5.588  0.0632  0.0160 -0.5556
11117TIP3    H154766   4.694   4.478   5.493  0.4523  2.4060 -0.9227
11117TIP3    H254767   4.744   4.571   5.601 -0.5281  0.0709  1.6675
11118TIP3   OH254768   4.117   2.003  11.683  0.3707 -0.1133 -0.1854
11118TIP3    H154769   4.145   2.083  11.727  0.6908  0.5469 -1.5386
11118TIP3    H254770   4.023   2.014  11.669  0.5248  0.3202 -0.9273
11119TIP3   OH254771   0.142   3.539  16.297  0.3667  0.6429 -0.2020
11119TIP3    H154772   0.194   3.513  16.221  0.9186  0.2028  0.3108
11119TIP3    H254773   0.174   3.627  16.319 -0.1579  0.9810 -0.7886
11120TIP3   OH254774   1.506   2.424  16.950  0.0648  0.6041 -0.4075
11120TIP3    H154775   1.534   2.390  17.035 -0.5534  1.3686  0.1209
11120TIP3    H254776   1.444   2.359  16.916  0.2833  0.3169 -0.2521
11121TIP3   OH254777   5.324   6.424   2.731  0.5335 -0.0272  0.2004
11121TIP3    H154778   5.266   6.354   2.760  1.4878 -1.3742 -0.9850
11121TIP3    H254779   5.408   6.380   2.716  0.8785  1.1400 -1.5885
11122TIP3   OH254780   2.196   1.794  16.372 -0.2640  0.1132 -0.1780
11122TIP3    H154781   2.104   1.769  16.359 -1.3077  2.8092  1.1944
11122TIP3    H254782   2.224   1.743  16.448 -1.0650  0.2425  0.2147
11123TIP3   OH254783   2.574   0.273   0.250 -0.4201  0.0559  0.4244
11123TIP3    H154784   2.540   0.221   0.322 -0.7021 -0.7840 -0.2965
11123TIP3    H254785   2.649   0.320   0.287 -1.8753  1.3631  1.8481
11124TIP3   OH254786   1.414   5.262   3.173 -0.6361 -0.5535 -0.1909
11124TIP3    H154787   1.373   5.221   3.096 -1.3728 -0.2221  0.0119
11124TIP3    H254788   1.357   5.336   3.194  1.5568  1.6864 -1.5598
11125TIP3   OH254789   1.525   6.083   5.666 -0.2417 -0.5173  0.0171
11125TIP3    H154790   1.461   6.095   5.736  0.3280 -1.9699  0.8302
11125TIP3    H254791   1.584   6.158   5.675 -0.7002 -0.2022  0.5039
11126TIP3   OH254792   5.341   4.458   0.766  0.0038  0.2979 -0.5564
11126TIP3    H154793   5.417   4.407   0.740 -0.5374 -0.9554  0.2201
11126TIP3    H254794   5.280   4.394   0.802 -1.4348  1.2609 -1.1726
11127TIP3   OH254795   2.213   3.244  11.091 -0.4909 -0.0041 -0.2396
11127TIP3    H154796   2.153   3.289  11.032  0.4200 -0.4427 -1.5386
11127TIP3    H254797   2.288   3.303  11.099 -0.0860 -0.4754 -0.5051
11128TIP3   OH254798   6.021   1.829  13.639 -0.0186  0.2140 -0.2592
11128TIP3    H154799   6.017   1.902  13.701 -1.3527  0.9064 -1.1145
11128TIP3    H254800   6.013   1.751  13.694  0.8603  0.7068  0.6106
11129TIP3   OH254801   4.761   4.392  14.072 -0.3294 -0.4276 -1.1790
11129TIP3    H154802   4.794   4.477  14.045  0.9346 -0.8510 -1.0169
11129TIP3    H254803   4.765   4.338  13.993 -0.3105 -0.5715 -1.0814
11130TIP3   OH254804   0.133   2.022  14.652  0.3181 -0.0344 -0.0984
11130TIP3    H154805   0.150   2.116  14.644  1.4436 -0.3011 -1.1015
11130TIP3    H254806   0.218   1.981  14.636 -0.6744 -1.3374 -2.5446
11131TIP3   OH254807   4.388   5.311  12.093 -0.1521  0.6855 -0.4836
11131TIP3    H154808   4.352   5.279  12.176  0.5174 -0.0811 -0.4740
11131TIP3    H254809   4.387   5.234  12.036  2.2564  0.3487 -0.2077
11132TIP3   OH254810   1.791   2.418  11.256 -0.3090 -0.3131  0.1064
11132TIP3    H154811   1.722   2.467  11.300  0.8236  2.8100 -1.3571
11132TIP3    H254812   1.758   2.405  11.167  1.3418  2.3136 -0.9902
11133TIP3   OH254813   5.784   5.047   5.852 -0.3475  0.1589 -0.5237
11133TIP3    H154814   5.715   5.108   5.827 -0.6091  0.2928  0.4646
11133TIP3    H254815   5.825   5.021   5.770 -0.6876  1.1305 -1.0133
11134TIP3   OH254816   3.492   2.320  11.576  0.1473 -0.2028  0.0187
11134TIP3    H154817   3.397   2.313  11.566  0.2109 -1.3906  0.0412
11134TIP3    H254818   3.528   2.264  11.507  0.9088  1.9386 -1.4224
11135TIP3   OH254819   1.357   2.120  14.019  0.6008 -0.6329  0.2552
11135TIP3    H154820   1.444   2.131  13.981  0.2350  2.4554  0.0610
11135TIP3    H254821   1.297   2.134  13.946 -0.0763 -0.5956  0.8108
11136TIP3   OH254822   1.490   5.349  14.131  0.1647  0.0754  0.5000
11136TIP3    H154823   1.571   5.372  14.086 -0.1862 -1.3239 -0.9598
11136TIP3    H254824   1.441   5.431  14.138  1.4591  0.8270  0.9093
11137TIP3   OH254825   1.148   4.420   3.749 -0.1954 -0.2974 -0.1998
11137TIP3    H154826   1.145   4.416   3.844  1.0205  0.8187 -0.0904
11137TIP3    H254827   1.060   4.448   3.724 -0.6327 -0.9539  0.5621
11138TIP3   OH254828   4.214   3.469   5.079  0.3003 -0.3073  0.3344
11138TIP3    H154829   4.248   3.556   5.058 -1.1750  0.7541  2.0827
11138TIP3    H254830   4.284   3.426   5.127 -0.0137  1.0998  2.1421
11139TIP3   OH254831   3.590   1.285   1.511  0.1822 -0.7459  0.2692
11139TIP3    H154832   3.674   1.322   1.485  1.4485 -3.1757  0.5647
11139TIP3    H254833   3.613   1.213   1.570 -2.1060 -1.4366  0.4124
11140TIP3   OH254834   2.278   5.295  10.839 -0.1481  0.3255  0.2186
11140TIP3    H154835   2.259   5.267  10.929 -0.5483  1.0376  0.3611
11140TIP3    H254836   2.268   5.390  10.841  1.7220  0.5825 -0.1091
11141TIP3   OH254837   6.233   1.692  14.342 -0.3783 -0.1362 -0.4296
11141TIP3    H154838   6.193   1.753  14.280 -0.1565  0.9083  0.4127
11141TIP3    H254839   6.306   1.741  14.380 -0.9902 -0.4382  1.2311
11142TIP3   OH254840   6.114   6.356  12.808  0.5385  0.3403 -0.3118
11142TIP3    H154841   6.121   6.271  12.852  0.9884  1.2132  1.4204
11142TIP3    H254842   6.180   6.410  12.851  1.8492  0.9720 -2.9225
11143TIP3   OH254843   3.697   2.624  14.129  0.5129  0.7047  0.2772
11143TIP3    H154844   3.789   2.617  14.102  0.9741 -0.6926  2.0150
11143TIP3    H254845   3.663   2.536  14.120 -0.1229  0.8202  1.3843
11144TIP3   OH254846   0.565   3.413  16.427 -0.5696 -0.4037  0.0907
11144TIP3    H154847   0.508   3.338  16.440  0.6784 -1.2497  0.8634
11144TIP3    H254848   0.522   3.464  16.357 -2.7289 -0.4955  1.2515
11145TIP3   OH254849   4.501   5.912  13.705 -0.6522  0.0298 -0.0261
11145TIP3    H154850   4.431   5.847  13.714  0.1006 -0.6117  1.3194
11145TIP3    H254851   4.582   5.863  13.718 -0.0574  1.1911  0.8306
11146TIP3   OH254852   3.367   1.666   1.317 -0.6157  0.0179  0.4291
11146TIP3    H154853   3.410   1.581   1.306  1.1770  0.9518 -0.2573
11146TIP3    H254854   3.277   1.651   1.287 -0.5270 -1.7604  0.9050
11147TIP3   OH254855   2.298   1.010   3.725  0.1477  0.6620  0.0834
11147TIP3    H154856   2.338   1.058   3.798 -0.6705  0.2347  0.8334
11147TIP3    H254857   2.206   1.001   3.751 -0.3440  1.2072 -1.3771
11148TIP3   OH254858   0.750   0.629   0.753  0.2711  0.3245 -0.1343
11148TIP3    H154859   0.831   0.633   0.803 -0.2563 -0.2035  0.7913
11148TIP3    H254860   0.686   0.676   0.806  0.3750  2.3980 -1.7413
11149TIP3   OH254861   6.348   3.697   2.240  0.5842  0.4533  0.0188
11149TIP3    H154862   6.413   3.710   2.309  1.8614  0.2385 -1.1197
11149TIP3    H254863   6.371   3.614   2.199 -0.2674  0.4840 -0.5525
11150TIP3   OH254864   6.604   3.719   4.788  0.2369 -0.0967 -0.1945
11150TIP3    H154865   6.523   3.741   4.834  0.6584 -0.7055  0.8534
11150TIP3    H254866   6.660   3.679   4.854  1.3775  0.2463 -0.9170
11151TIP3   OH254867   4.792   3.128  10.873  0.2358 -0.0711 -0.1424
11151TIP3    H154868   4.793   3.167  10.785  0.0622 -0.0002 -0.1123
11151TIP3    H254869   4.848   3.050  10.864  1.2874  0.6386  0.0174
11152TIP3   OH254870   1.922   6.298   3.947 -0.5530 -0.5955  0.1753
11152TIP3    H154871   1.887   6.292   3.858  0.3793  1.2361 -0.3658
11152TIP3    H254872   1.852   6.264   4.003 -1.1271 -1.8414 -1.2503
11153TIP3   OH254873   6.349   1.637   3.412 -0.4065 -0.3647  0.5069
11153TIP3    H154874   6.412   1.567   3.393  0.5843  0.5374  0.3373
11153TIP3    H254875   6.264   1.600   3.391  0.2913 -0.6358 -2.2489
11154TIP3   OH254876   1.624   5.124   4.493  0.0434  0.3438  0.0166
11154TIP3    H154877   1.629   5.209   4.450 -0.5895  0.1849 -0.3829
11154TIP3    H254878   1.711   5.111   4.531  0.2142  1.0593 -0.1236
11155TIP3   OH254879   2.173   1.284   1.418  0.0964  0.4096  0.4340
11155TIP3    H154880   2.239   1.328   1.471  1.3258  1.2960 -1.7173
11155TIP3    H254881   2.222   1.234   1.353 -1.3204  0.6085 -0.8626
11156TIP3   OH254882   4.178   0.247   3.760  0.3735  0.9845  0.0343
11156TIP3    H154883   4.157   0.327   3.807  2.7854  0.2660  2.5675
11156TIP3    H254884   4.108   0.186   3.785  2.0683  0.3106  3.7622
11157TIP3   OH254885   1.763   4.689  13.301  0.7172 -0.2996 -0.3640
11157TIP3    H154886   1.846   4.647  13.281 -0.1820 -1.8173 -1.1212
11157TIP3    H254887   1.703   4.617  13.318 -1.0879  0.5877 -2.4478
11158TIP3   OH254888   2.365   2.707   2.102 -0.0226 -0.1259  0.1253
11158TIP3    H154889   2.402   2.705   2.191 -1.9843  0.9544  1.0148
11158TIP3    H254890   2.276   2.673   2.112 -0.4909  0.5799 -1.3188
11159TIP3   OH254891   3.455   6.424   0.042 -0.1219 -0.0832 -0.1032
11159TIP3    H154892   3.494   6.437  -0.045  0.4228 -1.7226 -0.1412
11159TIP3    H254893   3.477   6.504   0.090 -2.1444  1.7498 -2.0286
11160TIP3   OH254894   5.156   4.338   4.309  0.2048 -0.6923  0.1358
11160TIP3    H154895   5.187   4.353   4.398  0.7896 -2.6597  0.2951
11160TIP3    H254896   5.060   4.340   4.316  0.2285 -1.8488  1.0144
11161TIP3   OH254897   2.812   0.575   5.036  0.4296 -0.1157 -0.3638
11161TIP3    H154898   2.882   0.547   4.978 -0.1983 -1.2642 -0.5965
11161TIP3    H254899   2.775   0.653   4.994  0.3702 -0.5839 -1.1818
11162TIP3   OH254900   3.818   0.365  13.368 -0.2204  0.1994  0.2367
11162TIP3    H154901   3.737   0.405  13.398 -1.5325 -0.5543 -2.0697
11162TIP3    H254902   3.816   0.373  13.273  2.1976 -0.2818  0.0681
11163TIP3   OH254903   3.098   2.703   1.313  0.2017 -0.1370  0.3112
11163TIP3    H154904   3.077   2.685   1.221 -2.7345 -1.3986  1.1232
11163TIP3    H254905   3.101   2.798   1.318  0.7854 -0.0480 -1.1442
11164TIP3   OH254906   1.480   6.798  11.846  0.1571  0.2739 -0.4532
11164TIP3    H154907   1.408   6.835  11.896 -0.2351 -0.1534 -0.6936
11164TIP3    H254908   1.518   6.873  11.799  0.9819  0.8161  0.9957
11165TIP3   OH254909   1.736   2.416   0.961  0.3595  0.5862  0.3965
11165TIP3    H154910   1.825   2.382   0.963  0.0347 -0.2617  1.4195
11165TIP3    H254911   1.714   2.420   0.868  0.9669 -0.5569  0.1798
11166TIP3   OH254912   5.057   4.575   9.921 -0.0445  0.8042 -0.1940
11166TIP3    H154913   5.065   4.670   9.919  0.7511  0.7781  0.9296
11166TIP3    H254914   4.978   4.557   9.870 -2.1780  2.3164  2.3084
11167TIP3   OH254915   0.652   1.586   0.573 -0.4297 -0.4123  0.2284
11167TIP3    H154916   0.746   1.587   0.560 -0.6829 -1.2652 -2.3157
11167TIP3    H254917   0.632   1.494   0.593 -0.7691 -0.3489  0.1892
11168TIP3   OH254918   2.658   0.691  14.127 -0.4711  0.0166  0.2417
11168TIP3    H154919   2.684   0.734  14.045 -2.2847  0.3420 -0.1915
11168TIP3    H254920   2.677   0.599  14.112 -1.6738 -0.0666 -0.9465
11169TIP3   OH254921   0.956   3.558  15.350  0.1560  0.0937 -0.4206
11169TIP3    H154922   1.030   3.609  15.386 -0.7494  1.0413  0.1671
11169TIP3    H254923   0.971   3.469  15.381 -0.1591  0.7269  1.7189
11170TIP3   OH254924   5.669   2.149   4.395 -0.3287 -0.1467 -0.5916
11170TIP3    H154925   5.734   2.170   4.462  0.9881 -3.2951 -0.7152
11170TIP3    H254926   5.599   2.104   4.442  0.9792 -3.1220 -1.2394
11171TIP3   OH254927   5.672   1.981   5.835 -0.1999 -0.2754 -0.7186
11171TIP3    H154928   5.661   1.926   5.913 -0.6127 -1.7022 -1.7375
11171TIP3    H254929   5.665   2.071   5.867 -2.6087 -0.8533  0.5677
11172TIP3   OH254930   4.326   5.468   3.997 -0.2243  0.2191  0.1525
11172TIP3    H154931   4.265   5.468   3.924 -1.1015  0.6867  0.8598
11172TIP3    H254932   4.271   5.474   4.075  0.5550 -2.2288  0.9903
11173TIP3   OH254933   2.693   5.924  12.307 -0.9338 -0.5849  0.4299
11173TIP3    H154934   2.642   5.906  12.385  0.9870  0.6596  2.0714
11173TIP3    H254935   2.764   5.860  12.309 -0.6041 -0.2426 -0.0488
11174TIP3   OH254936   0.066   4.129  12.418  0.3170  0.0748  0.1436
11174TIP3    H154937   0.021   4.047  12.439  2.5417 -0.5865  3.1144
11174TIP3    H254938   0.128   4.105  12.350 -1.0426  0.0752 -1.1490
11175TIP3   OH254939   2.035   6.719  10.292 -0.1928 -0.2611  0.0939
11175TIP3    H154940   2.046   6.707  10.198 -0.8402 -1.4059  0.1476
11175TIP3    H254941   1.946   6.689  10.311 -0.1932  0.2563  1.0333
11176TIP3   OH254942   4.778   5.838  13.765  0.7331 -0.2597 -0.5952
11176TIP3    H154943   4.799   5.927  13.737  0.3895 -0.8781 -3.0840
11176TIP3    H254944   4.833   5.782  13.709 -0.5258 -1.6508 -0.5006
11177TIP3   OH254945   1.788   2.514   2.462 -0.0436 -0.1309 -0.2456
11177TIP3    H154946   1.826   2.578   2.402 -1.6595  1.8879  0.7616
11177TIP3    H254947   1.813   2.429   2.426  0.4354  1.0132 -2.8163
11178TIP3   OH254948   6.583   4.162  13.092 -0.1220  0.0372  0.7370
11178TIP3    H154949   6.649   4.138  13.028 -1.1488 -1.2183  0.1041
11178TIP3    H254950   6.504   4.117  13.063 -1.4195  1.8941  1.1675
11179TIP3   OH254951   0.344   0.808   3.225 -0.2186  0.1777 -0.0359
11179TIP3    H154952   0.301   0.801   3.140  0.5794  1.6437 -0.6106
11179TIP3    H254953   0.343   0.902   3.244  2.1334  0.2260  0.1823
11180TIP3   OH254954   6.417   4.969   3.710  0.4675  0.0853 -0.2498
11180TIP3    H154955   6.505   4.958   3.676  0.8207 -2.0589  1.1662
11180TIP3    H254956   6.402   5.064   3.707  2.3745  0.4155 -1.4797
11181TIP3   OH254957   2.744   5.601  13.816 -0.1784  0.3171  0.2708
11181TIP3    H154958   2.729   5.694  13.835  0.8413  0.3432  0.9997
11181TIP3    H254959   2.710   5.590  13.727 -0.8274  1.2552  0.3832
11182TIP3   OH254960   4.267   3.815   3.269  0.6373  0.0590  0.3228
11182TIP3    H154961   4.207   3.747   3.296  0.4123  0.3938  0.6731
11182TIP3    H254962   4.338   3.769   3.224 -0.3136 -0.2678 -0.8893
11183TIP3   OH254963   1.336   0.450  11.474  0.7584  0.0616  0.1793
11183TIP3    H154964   1.404   0.396  11.515 -0.0643 -0.3879  0.9965
11183TIP3    H254965   1.360   0.452  11.381  0.6728 -1.9856  0.0538
11184TIP3   OH254966   4.594   4.339  11.711  0.2667  0.2809  0.2128
11184TIP3    H154967   4.574   4.390  11.790  0.1952 -0.2983  0.5787
11184TIP3    H254968   4.677   4.375  11.680  0.6532  0.0570  0.9570
11185TIP3   OH254969   2.488   4.425  16.735  0.0877 -0.1903 -0.1682
11185TIP3    H154970   2.550   4.497  16.746 -0.7847  0.7324 -0.9918
11185TIP3    H254971   2.421   4.461  16.676 -0.7745 -1.4284  0.0242
11186TIP3   OH254972   0.078   0.847  15.956 -0.0370 -0.2481 -0.1350
11186TIP3    H154973   0.090   0.914  16.024 -1.0784  1.4740 -1.5456
11186TIP3    H254974   0.054   0.768  16.004 -0.2293  0.7671  1.5260
11187TIP3   OH254975   2.135   3.145  15.472 -0.0001 -0.9641 -0.5158
11187TIP3    H154976   2.156   3.052  15.474 -0.3242 -1.0350  1.3696
11187TIP3    H254977   2.061   3.152  15.412  0.5561 -1.7909 -1.3106
11188TIP3   OH254978   5.853   0.195   2.213 -0.4759  0.0755  0.1059
11188TIP3    H154979   5.868   0.278   2.257  1.9151  0.4431 -1.2474
11188TIP3    H254980   5.940   0.163   2.191 -1.3684 -2.3878 -0.1909
11189TIP3   OH254981   1.393   1.219   4.382 -0.1103 -0.0300  0.5202
11189TIP3    H154982   1.327   1.150   4.380 -1.3551  1.0470  1.9570
11189TIP3    H254983   1.372   1.274   4.307 -0.1945 -0.2660  0.3697
11190TIP3   OH254984   4.828   6.611  12.962  0.1710  0.1183  0.3043
11190TIP3    H154985   4.814   6.595  13.056 -1.6344  0.2957  0.1058
11190TIP3    H254986   4.843   6.706  12.956  0.2864  0.1071  0.4208
11191TIP3   OH254987   3.385   5.107  15.721  0.2455  0.3641  0.1914
11191TIP3    H154988   3.388   5.135  15.812  0.4186 -2.3049  1.1102
11191TIP3    H254989   3.456   5.155  15.678  1.1711  0.5397  1.8561
11192TIP3   OH254990   5.180   2.521   1.084 -0.2172  0.7840 -0.0798
11192TIP3    H154991   5.179   2.589   1.017 -2.8609  0.4738 -0.4734
11192TIP3    H254992   5.089   2.514   1.112  0.0854 -2.0634  0.5032
11193TIP3   OH254993   1.765   5.176  12.161 -0.5501 -0.1837  0.1316
11193TIP3    H154994   1.852   5.179  12.200 -0.7068 -0.5380  0.5271
11193TIP3    H254995   1.753   5.262  12.121 -0.5288  0.3414  1.2035
11194TIP3   OH254996   3.069   3.357   4.185 -0.1214 -0.6575  0.5641
11194TIP3    H154997   3.011   3.412   4.239  1.3092 -0.9153  2.4522
11194TIP3    H254998   3.018   3.277   4.169 -1.3762  0.2762 -0.3379
11195TIP3   OH254999   3.515   3.833  14.586  0.5170 -0.1819  0.4941
11195TIP3    H155000   3.442   3.870  14.537  0.0983 -0.7513  0.6697
11195TIP3    H255001   3.541   3.756  14.535  1.6296  0.5456 -0.0773
11196TIP3   OH255002   0.488   0.227   4.172  0.4867 -0.3470  0.3256
11196TIP3    H155003   0.416   0.174   4.136 -0.3434  1.2836 -0.5210
11196TIP3    H255004   0.538   0.255   4.096 -1.4936  3.4384  0.2029
11197TIP3   OH255005   6.370   4.957  10.781  0.2564 -0.3260  0.6740
11197TIP3    H155006   6.423   4.888  10.742  0.4250 -0.5387  1.2660
11197TIP3    H255007   6.432   5.007  10.835  0.0734  0.0911  0.5017
11198TIP3   OH255008   0.360   1.709   4.254 -0.4995  0.0712  0.2253
11198TIP3    H155009   0.371   1.644   4.184 -0.6848  0.3776 -0.0893
11198TIP3    H255010   0.266   1.707   4.273 -0.9322  1.8904 -1.3953
11199TIP3   OH255011   2.747   5.629  10.765 -0.1334  0.0966  0.0271
11199TIP3    H155012   2.673   5.585  10.722  0.6757 -0.3125 -0.9889
11199TIP3    H255013   2.712   5.658  10.849 -1.1710 -0.9903  0.0029
11200TIP3   OH255014   0.168   4.173  15.655 -0.2160  0.1791  0.3117
11200TIP3    H155015   0.226   4.248  15.640 -0.0167 -0.2715 -1.5158
11200TIP3    H255016   0.085   4.211  15.684  0.1861  1.0273  0.3611
11201TIP3   OH255017   5.492   2.665  16.044 -0.0312 -0.2443 -0.0352
11201TIP3    H155018   5.569   2.610  16.025 -0.2792 -0.2658 -1.0595
11201TIP3    H255019   5.438   2.611  16.101  0.3428 -0.5550  0.0331
11202TIP3   OH255020   0.228   5.577   4.679  0.0857 -0.0468 -0.3413
11202TIP3    H155021   0.184   5.492   4.675  1.2427 -0.9550  2.9529
11202TIP3    H255022   0.156   5.640   4.674 -1.5386 -1.4287  2.5435
11203TIP3   OH255023   4.891   4.859   0.277 -0.6126  0.1871 -0.6337
11203TIP3    H155024   4.867   4.911   0.355 -1.6848  0.8626 -1.3862
11203TIP3    H255025   4.908   4.772   0.311 -1.1136  0.4583  0.3627
11204TIP3   OH255026   6.315   0.787   2.830  0.4719  0.0279  0.0764
11204TIP3    H155027   6.357   0.701   2.822  1.1744  0.2800  0.9617
11204TIP3    H255028   6.287   0.791   2.921 -0.9867  0.1009 -0.3556
11205TIP3   OH255029   0.676   5.808  10.612 -0.1077 -0.3219  0.4247
11205TIP3    H155030   0.612   5.744  10.642 -2.0124  1.8010  1.1689
11205TIP3    H255031   0.629   5.863  10.550  0.9338  1.3481  1.0365
11206TIP3   OH255032   0.750   5.257  14.853 -0.5625  0.6505 -0.0722
11206TIP3    H155033   0.715   5.202  14.783 -1.2603  0.6399  0.2767
11206TIP3    H255034   0.831   5.212  14.879 -1.2166 -0.3400  0.3375
11207TIP3   OH255035   4.735   4.731   1.816  0.5930 -0.5647 -0.2660
11207TIP3    H155036   4.718   4.650   1.768 -2.1481 -0.6516  0.6722
11207TIP3    H255037   4.706   4.712   1.905 -0.4835  1.5259 -0.1173
11208TIP3   OH255038   1.643   0.112  14.854  0.5643  0.2169 -0.0121
11208TIP3    H155039   1.686   0.158  14.926 -0.7755  1.4409  0.0463
11208TIP3    H255040   1.675   0.157  14.776  0.5703  0.1180 -0.0659
11209TIP3   OH255041   2.575   5.607  14.039  0.7469 -0.5840  0.8396
11209TIP3    H155042   2.632   5.652  14.101 -0.1704 -0.9252  1.9499
11209TIP3    H255043   2.621   5.614  13.955  1.8722  0.1181  1.4940
11210TIP3   OH255044   3.815   2.296   0.870  0.3917 -0.2497 -0.3206
11210TIP3    H155045   3.783   2.259   0.952  0.1571  0.0706 -0.2634
11210TIP3    H255046   3.750   2.272   0.804 -0.7238  1.5510  0.0458
11211TIP3   OH255047   2.904   5.763   3.933  0.0347 -0.1617 -0.1213
11211TIP3    H155048   2.995   5.772   3.960  0.2478  1.1170 -1.1784
11211TIP3    H255049   2.903   5.688   3.875  0.4816  0.0123 -0.3554
11212TIP3   OH255050   4.299   1.776   5.690  0.0452  0.3280 -0.2385
11212TIP3    H155051   4.254   1.736   5.616  0.5779  1.7621 -1.3881
11212TIP3    H255052   4.365   1.711   5.715 -2.0708 -1.4789  0.9999
11213TIP3   OH255053   0.371   5.586   3.464  0.8044 -0.7031  0.0735
11213TIP3    H155054   0.431   5.651   3.501  3.4453 -3.8787  2.0277
11213TIP3    H255055   0.422   5.544   3.394 -1.4360  0.2309 -2.3055
11214TIP3   OH255056   2.967   3.439  11.700  0.1949 -0.5492  0.7410
11214TIP3    H155057   2.996   3.528  11.679 -0.1426 -0.1042  2.0663
11214TIP3    H255058   2.876   3.436  11.669  0.4991 -0.7671 -0.1715
11215TIP3   OH255059   1.205   2.584  16.994  0.1348  0.0488  0.2305
11215TIP3    H155060   1.295   2.613  17.008  0.0341  0.9347 -0.8899
11215TIP3    H255061   1.213   2.491  16.972  0.7905  0.1890 -0.1345
11216TIP3   OH255062   3.505   4.057  13.666  0.7451  0.2150 -0.2399
11216TIP3    H155063   3.470   4.018  13.586  0.5223 -1.4299  0.6346
11216TIP3    H255064   3.509   3.985  13.729  0.5405  1.5506  1.3709
11217TIP3   OH255065   5.273   2.678  15.308 -1.0569  0.0643 -0.3244
11217TIP3    H155066   5.189   2.634  15.298 -1.6466  1.2104 -0.5677
11217TIP3    H255067   5.320   2.661  15.227 -1.4414  0.2237 -0.5789
11218TIP3   OH255068   6.615   4.239   5.598 -0.0983 -0.6597 -0.5046
11218TIP3    H155069   6.623   4.184   5.520  1.4398  0.9853 -1.6077
11218TIP3    H255070   6.524   4.268   5.597 -0.5359 -1.9740 -0.7274
11219TIP3   OH255071   2.510   4.270  14.262 -0.3379  0.2466  0.3989
11219TIP3    H155072   2.558   4.226  14.332  0.7021 -2.7240 -1.9195
11219TIP3    H255073   2.577   4.289  14.196 -1.2896  2.7918  0.0698
11220TIP3   OH255074   5.115   5.841   3.111  0.3211  0.0301  0.0119
11220TIP3    H155075   5.129   5.901   3.038  1.8013  1.0177  1.0587
11220TIP3    H255076   5.020   5.840   3.123 -0.1499 -1.4606 -2.9398
11221TIP3   OH255077   5.040   5.968  15.783  0.2314  0.3255 -0.1125
11221TIP3    H155078   5.030   6.015  15.866  3.0431 -1.8173  1.5972
11221TIP3    H255079   5.112   6.013  15.739 -1.2231  1.4288 -1.4889
11222TIP3   OH255080   3.745   0.396  14.653 -0.3190  0.2146 -0.0593
11222TIP3    H155081   3.835   0.414  14.626 -0.8561  2.1472 -0.7333
11222TIP3    H255082   3.702   0.363  14.574 -0.5290  0.6007 -0.1092
11223TIP3   OH255083   1.782   1.108   4.775 -0.5529  0.2360  0.6508
11223TIP3    H155084   1.717   1.068   4.716 -0.5829  0.0800  0.7881
11223TIP3    H255085   1.794   1.197   4.741  1.5104 -0.6917 -1.3330
11224TIP3   OH255086   2.336   3.063   6.370 -0.0947 -0.0299  0.3725
11224TIP3    H155087   2.359   2.988   6.315  0.3377 -0.8888  1.6661
11224TIP3    H255088   2.277   3.026   6.437 -1.6597  1.2407 -0.2370
11225TIP3   OH255089   1.671   3.101  15.217 -0.5548  0.0537  0.2173
11225TIP3    H155090   1.583   3.133  15.235 -0.2284  0.6256  0.8125
11225TIP3    H255091   1.665   3.063  15.130 -1.1935  0.8226 -0.0850
11226TIP3   OH255092   2.130   6.383  11.581 -0.7977 -0.6528  0.4715
11226TIP3    H155093   2.061   6.450  11.585 -1.1732 -0.8673 -1.3472
11226TIP3    H255094   2.138   6.362  11.488  0.6165 -1.8139  0.8043
11227TIP3   OH255095   1.522   5.062  16.592 -0.6145 -0.2757  0.2503
11227TIP3    H155096   1.446   5.109  16.625 -0.8331 -1.1124  0.9770
11227TIP3    H255097   1.514   5.066  16.497 -1.5154 -0.2842  0.3198
11228TIP3   OH255098   3.731   6.129  15.405  0.3151 -0.2366 -0.3797
11228TIP3    H155099   3.815   6.082  15.401  0.2209 -0.3495 -2.0232
11228TIP3    H255100   3.753   6.219  15.381  0.3100  0.3074  1.5671
11229TIP3   OH255101   6.716   6.446  16.532 -0.2174  0.0941  0.4830
11229TIP3    H155102   6.658   6.505  16.485  0.5809  0.4858 -0.0276
11229TIP3    H255103   6.801   6.489  16.531 -0.0664 -0.1015  1.8960
11230TIP3   OH255104   3.183   0.120  12.592  0.2659 -0.4240 -0.0203
11230TIP3    H155105   3.113   0.185  12.589  0.0309 -0.6829 -0.2100
11230TIP3    H255106   3.181   0.088  12.683  0.5921  0.0588  0.1578
11231TIP3   OH255107   3.341   5.080   4.005  0.0774  0.2101  0.6001
11231TIP3    H155108   3.363   5.152   3.946 -0.3069 -1.1744 -1.3206
11231TIP3    H255109   3.256   5.105   4.041 -1.1235 -0.2282 -1.7508
11232TIP3   OH255110   3.262   1.376  15.767 -0.2748  0.3847  0.1903
11232TIP3    H155111   3.301   1.380  15.854  0.0465 -0.0913  0.0730
11232TIP3    H255112   3.188   1.317  15.776 -0.4377  0.5932  0.2152
11233TIP3   OH255113   4.106   3.549   4.675 -0.0292  0.3830 -0.3298
11233TIP3    H155114   4.124   3.565   4.583 -2.3108  0.2196 -0.8630
11233TIP3    H255115   4.096   3.636   4.713 -1.1272  0.4484 -0.7247
11234TIP3   OH255116   5.426   6.628  17.130  0.8294  0.4293 -0.1960
11234TIP3    H155117   5.343   6.580  17.124 -0.2860  2.0840  1.1072
11234TIP3    H255118   5.469   6.592  17.207  0.4523  0.8355  0.2072
11235TIP3   OH255119   6.777   4.761   1.091 -0.0798 -0.1866 -0.5209
11235TIP3    H155120   6.712   4.802   1.033  0.7859 -0.7622 -1.9410
11235TIP3    H255121   6.735   4.681   1.121 -1.1373  0.8629  0.9394
11236TIP3   OH255122   1.116   4.327  16.160  0.1373  0.1224  0.7545
11236TIP3    H155123   1.120   4.364  16.072 -0.5801 -3.3486 -0.9384
11236TIP3    H255124   1.191   4.364  16.206 -1.2299  4.5546 -0.1038
11237TIP3   OH255125   6.739   0.991   0.862 -0.7162  0.4867  0.0492
11237TIP3    H155126   6.765   1.008   0.952  2.0965 -2.4438 -0.0375
11237TIP3    H255127   6.816   1.013   0.810 -0.7432 -1.7987 -1.0879
11238TIP3   OH255128   2.914   0.664   3.742  0.1668 -0.1903 -0.0303
11238TIP3    H155129   3.001   0.624   3.748  0.2405 -0.4389 -1.9367
11238TIP3    H255130   2.931   0.756   3.723 -0.0154  0.5385  2.9623
11239TIP3   OH255131   5.681   6.041  15.968  0.2540  0.3464  0.2878
11239TIP3    H155132   5.678   6.097  15.891 -0.3234 -1.1251 -0.8103
11239TIP3    H255133   5.694   5.953  15.933  0.0472 -0.3552  1.8826
11240TIP3   OH255134   5.613   5.034  16.238 -0.0935 -0.0261 -0.9182
11240TIP3    H155135   5.597   4.980  16.316  1.1205 -1.8630 -1.8738
11240TIP3    H255136   5.708   5.039  16.231 -0.1702 -0.1885 -2.4544
11241TIP3   OH255137   5.617   6.783  14.534  0.0070  0.4011  0.7089
11241TIP3    H155138   5.644   6.875  14.534  0.7514  0.2135 -0.6956
11241TIP3    H255139   5.695   6.735  14.559 -0.1006  0.0896  0.4569
11242TIP3   OH255140   5.854   4.699   0.939  0.2671 -0.6629 -0.0953
11242TIP3    H155141   5.811   4.647   0.871 -0.2906  1.0207 -1.0995
11242TIP3    H255142   5.788   4.707   1.008  0.1248 -0.7350 -0.2213
11243TIP3   OH255143   2.306   3.465  11.940 -0.1782  0.5334 -0.6899
11243TIP3    H155144   2.400   3.483  11.943  0.1698 -1.0271  2.9404
11243TIP3    H255145   2.266   3.552  11.948  1.1327  1.0104  2.0167
11244TIP3   OH255146   6.507   0.802   1.765  0.0435  0.3876 -0.2471
11244TIP3    H155147   6.518   0.732   1.701 -1.5961 -0.5060  0.3832
11244TIP3    H255148   6.580   0.791   1.826  1.7112  1.3460 -1.9696
11245TIP3   OH255149   0.178   1.161  14.911  0.0480  0.3076  0.7606
11245TIP3    H155150   0.139   1.074  14.907  0.3914  0.1885 -0.4360
11245TIP3    H255151   0.194   1.176  15.004 -0.1795 -0.8281  0.9976
11246TIP3   OH255152   5.509   4.082   0.852  0.3620  0.0644 -0.2620
11246TIP3    H155153   5.423   4.074   0.894  1.3181  0.5143  1.9110
11246TIP3    H255154   5.492   4.136   0.774 -0.7907  3.4323  2.0976
11247TIP3   OH255155   3.142   1.586   5.170 -0.0634 -0.3540  0.3844
11247TIP3    H155156   3.219   1.642   5.178 -0.6568  0.2998  1.6488
11247TIP3    H255157   3.147   1.527   5.245 -0.6427 -0.5178  0.2979
11248TIP3   OH255158   0.571   0.194   1.698  0.7125  0.0324 -0.1017
11248TIP3    H155159   0.522   0.186   1.616  0.5108  1.9814 -0.2339
11248TIP3    H255160   0.653   0.149   1.682  0.1978 -0.6220 -0.9703
11249TIP3   OH255161   3.815   1.074   2.302  0.1904 -0.0997 -0.2170
11249TIP3    H155162   3.875   1.068   2.377 -1.6635  1.5731  1.5336
11249TIP3    H255163   3.839   1.156   2.259 -0.5906  0.4590  0.3569
11250TIP3   OH255164   6.133   3.528  14.496  0.2207  0.1913  0.0194
11250TIP3    H155165   6.076   3.548  14.571 -0.4528  1.1100 -0.7202
11250TIP3    H255166   6.096   3.449  14.458  0.5813 -0.2970  0.6493
11251TIP3   OH255167   1.207   0.224  10.997  0.2546 -0.1492 -0.0148
11251TIP3    H155168   1.294   0.255  10.970  0.8542 -1.3094  0.5349
11251TIP3    H255169   1.189   0.150  10.940 -0.6995  0.5002 -0.5897
11252TIP3   OH255170   3.740   2.058   4.827  0.3324 -0.5446  0.0223
11252TIP3    H155171   3.766   2.049   4.919 -1.4368  1.2218  0.7751
11252TIP3    H255172   3.650   2.028   4.825  0.8238 -2.0832 -1.5312
11253TIP3   OH255173   3.136   6.678   4.915 -0.1341 -0.2751 -0.6761
11253TIP3    H155174   3.175   6.660   4.829  0.0059 -0.9156 -0.4887
11253TIP3    H255175   3.047   6.644   4.909 -0.0178 -0.6340 -0.4696
11254TIP3   OH255176   6.614   6.140   2.941 -0.1079  0.5362  0.6803
11254TIP3    H155177   6.649   6.209   2.997 -1.0303  0.4489  1.3963
11254TIP3    H255178   6.613   6.062   2.996  0.1682  0.1471  0.1358
11255TIP3   OH255179   6.130   3.653  12.581 -0.1969 -0.2210 -0.1678
11255TIP3    H155180   6.106   3.560  12.575  0.2625 -0.3356 -0.2250
11255TIP3    H255181   6.114   3.676  12.672  1.0387 -0.7276  0.1875
11256TIP3   OH255182   1.089   6.392  12.530  0.3747  0.8204  0.9017
11256TIP3    H155183   1.085   6.366  12.438 -0.5744  0.5523  1.0018
11256TIP3    H255184   1.037   6.472  12.535 -0.0413  0.5399  1.2822
11257TIP3   OH255185   4.788   2.692  15.939 -0.2018  0.4571  0.5482
11257TIP3    H155186   4.810   2.600  15.952  0.4257  0.7013  1.3010
11257TIP3    H255187   4.701   2.702  15.976 -0.3568  0.1297  0.2814
11258TIP3   OH255188   5.431   2.384  11.582  0.7573 -0.2980 -0.0591
11258TIP3    H155189   5.458   2.358  11.494 -0.8535  0.5891 -0.8752
11258TIP3    H255190   5.469   2.471  11.595  1.0325 -0.4478  0.1407
11259TIP3   OH255191   4.765   4.084  10.651  0.0044 -0.7302 -0.4639
11259TIP3    H155192   4.803   3.996  10.660  1.6321 -0.0670 -0.3934
11259TIP3    H255193   4.737   4.088  10.560 -0.2638 -1.3959 -0.4161
11260TIP3   OH255194   1.909   3.300  14.560 -0.1706  0.3209 -0.1012
11260TIP3    H155195   1.941   3.312  14.470  2.0986 -0.3295  0.5488
11260TIP3    H255196   1.827   3.348  14.563 -0.5242  0.0226 -2.6385
11261TIP3   OH255197   1.402   0.749   1.030 -0.7068 -0.3669  0.9205
11261TIP3    H155198   1.377   0.784   0.945 -0.5128 -0.8488  0.6542
11261TIP3    H255199   1.353   0.800   1.094  0.2733  1.0220  0.6157
11262TIP3   OH255200   3.966   5.667  12.735 -0.2432 -0.0166 -0.2942
11262TIP3    H155201   4.037   5.678  12.798 -0.5395  0.8197 -0.1007
11262TIP3    H255202   3.982   5.733  12.668  0.3226 -1.1911 -1.3558
11263TIP3   OH255203   0.886   1.145   2.354  0.1134  0.3493 -0.2873
11263TIP3    H155204   0.878   1.182   2.266  0.8572 -1.3686 -1.1211
11263TIP3    H255205   0.974   1.170   2.383 -0.3492  1.4415  0.2739
11264TIP3   OH255206   0.147   6.138   3.685 -0.6215 -0.1172 -0.3103
11264TIP3    H155207   0.177   6.047   3.679 -0.4631 -0.1458  0.7538
11264TIP3    H255208   0.210   6.180   3.743 -2.1828  0.0074  1.3528
11265TIP3   OH255209   0.275   4.470   2.795  0.6930 -0.4495 -0.7690
11265TIP3    H155210   0.211   4.534   2.825 -1.0820 -1.4460 -2.2223
11265TIP3    H255211   0.358   4.500   2.833 -0.8448 -0.1608  2.7834
11266TIP3   OH255212   2.163   0.206   2.735 -0.0719 -0.5954  0.3739
11266TIP3    H155213   2.169   0.267   2.808  1.4422 -2.1249  1.6197
11266TIP3    H255214   2.077   0.165   2.746  0.2726 -1.0546  1.5517
11267TIP3   OH255215   0.075   0.086   5.033  0.1245  0.1477  0.5323
11267TIP3    H155216   0.071   0.037   5.115  0.9125  0.4130  0.7404
11267TIP3    H255217   0.068   0.177   5.059 -2.5580  0.1540  0.0488
11268TIP3   OH255218   3.431   6.635  14.496 -0.3884  0.2564 -0.4659
11268TIP3    H155219   3.344   6.675  14.491 -0.6186 -0.2994 -0.9702
11268TIP3    H255220   3.460   6.628  14.405 -0.4548 -0.9462 -0.4106
11269TIP3   OH255221   0.202   0.169   1.434 -0.3429  0.5124  0.2833
11269TIP3    H155222   0.276   0.230   1.439  2.1352 -2.2087  0.2815
11269TIP3    H255223   0.209   0.132   1.346  1.0646 -2.7621  1.6020
11270TIP3   OH255224   4.953   5.492  10.274 -0.4264 -0.0648 -0.1918
11270TIP3    H155225   4.940   5.468  10.182  1.7598 -1.7540 -0.1575
11270TIP3    H255226   5.048   5.491  10.286 -0.6127  0.8713  1.9290
11271TIP3   OH255227   3.218   4.136   1.694  0.0621  0.0453 -0.1226
11271TIP3    H155228   3.140   4.191   1.703 -0.1663 -0.2500 -0.2901
11271TIP3    H255229   3.235   4.105   1.783  2.0316  2.8463  0.6398
11272TIP3   OH255230   2.016   0.750   4.725  0.2370  0.0824 -0.6510
11272TIP3    H155231   2.051   0.839   4.726  0.8180 -0.1344 -1.2740
11272TIP3    H255232   2.048   0.712   4.643  1.0593 -1.1232  0.1862
11273TIP3   OH255233   0.395   0.816   0.585  0.0702 -0.7031  0.0380
11273TIP3    H155234   0.405   0.731   0.541 -1.3812 -1.1182  0.4306
11273TIP3    H255235   0.368   0.793   0.674  1.6046  0.1582  0.7610
11274TIP3   OH255236   5.532   6.067  16.857 -0.2563 -0.0354 -0.0825
11274TIP3    H155237   5.438   6.049  16.858 -0.6207  1.7450  0.4716
11274TIP3    H255238   5.572   5.983  16.835 -2.0502 -0.5200 -1.7602
11275TIP3   OH255239   2.128   1.002  14.897 -1.2172  0.7227  0.2680
11275TIP3    H155240   2.150   0.950  14.974 -0.7492  0.8587  0.2320
11275TIP3    H255241   2.037   1.026  14.909 -1.6059 -0.5679  0.0186
11276TIP3   OH255242   3.588   1.914   3.901 -0.9185 -0.3442  0.3144
11276TIP3    H155243   3.627   1.827   3.902  0.8571  0.4166 -0.0946
11276TIP3    H255244   3.612   1.953   3.985 -2.2374 -0.4539  0.7627
11277TIP3   OH255245   5.322   5.809   3.294 -0.2925 -0.7261 -0.7372
11277TIP3    H155246   5.254   5.817   3.228  0.2175  1.0879 -1.0963
11277TIP3    H255247   5.328   5.896   3.333  1.1662 -1.1001 -0.0634
11278TIP3   OH255248   6.278   4.075  12.805  0.4213  0.6415  0.3358
11278TIP3    H155249   6.268   4.124  12.724  1.0750 -2.7782 -2.0288
11278TIP3    H255250   6.209   4.109  12.863  0.4943  3.8000 -1.2160
11279TIP3   OH255251   6.288   0.566  11.213  0.2731 -0.1793 -0.7472
11279TIP3    H155252   6.381   0.586  11.203 -0.0080  2.2639  0.8043
11279TIP3    H255253   6.279   0.543  11.306 -0.9465  1.6694 -0.3517
11280TIP3   OH255254   0.149   2.290  14.984  0.5635  1.4097  0.1698
11280TIP3    H155255   0.224   2.337  15.021  1.2300  0.2792  0.2937
11280TIP3    H255256   0.076   2.313  15.041  1.2149  1.0384  1.1903
11281TIP3   OH255257   3.744   4.577  14.405 -0.4569  0.1875  0.5918
11281TIP3    H155258   3.695   4.564  14.324  1.6680 -0.7325 -0.6281
11281TIP3    H255259   3.737   4.671  14.422 -0.4120  0.5175 -1.0340
11282TIP3   OH255260   6.767   4.598   5.140 -0.1111  0.0807  0.0060
11282TIP3    H155261   6.728   4.553   5.066  2.9126 -0.6529 -1.2895
11282TIP3    H255262   6.855   4.622   5.110  1.2385 -0.1827  3.3076
11283TIP3   OH255263   0.326   4.461  11.662 -0.2381  0.2715 -0.6286
11283TIP3    H155264   0.363   4.387  11.709 -0.3831  0.2489 -0.5477
11283TIP3    H255265   0.283   4.423  11.586 -0.4815  0.2518 -0.4824
11284TIP3   OH255266   5.718   1.481  14.716  0.5110 -0.1104 -0.3347
11284TIP3    H155267   5.785   1.463  14.781 -1.2715 -4.7134  0.5757
11284TIP3    H255268   5.652   1.532  14.763 -0.3606 -2.6574  1.4236
11285TIP3   OH255269   1.454   6.586   0.719 -0.2652  0.2526 -0.1447
11285TIP3    H155270   1.527   6.589   0.781  0.1149  2.9066 -0.5784
11285TIP3    H255271   1.379   6.557   0.770  0.7649 -1.0733  0.6684
11286TIP3   OH255272   3.846   4.472   4.409 -0.2195 -0.9106  0.4804
11286TIP3    H155273   3.824   4.542   4.348 -3.4923 -2.4166 -0.2939
11286TIP3    H255274   3.886   4.404   4.355 -0.9163 -1.2798  0.4131
11287TIP3   OH255275   4.033   1.533   0.437  0.1242 -0.0461 -0.5560
11287TIP3    H155276   4.048   1.516   0.530  0.2361  0.1730 -0.5335
11287TIP3    H255277   3.939   1.548   0.430  0.0780 -0.3148 -0.5190
11288TIP3   OH255278   0.543   1.973  15.250  0.0494 -0.0370  0.0068
11288TIP3    H155279   0.489   1.929  15.185 -0.7436 -1.2449  1.3981
11288TIP3    H255280   0.622   1.919  15.256 -0.4274 -0.6712  0.9006
11289TIP3   OH255281   0.487   0.647  15.730  0.7623  0.1018  0.2692
11289TIP3    H155282   0.492   0.555  15.705 -0.5678 -0.2899  1.2642
11289TIP3    H255283   0.443   0.689  15.656  0.3417 -0.2956  0.2842
11290TIP3   OH255284   5.324   3.495   6.064 -0.1882 -0.0342  0.1793
11290TIP3    H155285   5.351   3.583   6.040 -0.1447 -0.5556 -1.8567
11290TIP3    H255286   5.342   3.442   5.987 -1.3261 -1.6026  0.9282
11291TIP3   OH255287   0.648   1.402   6.295 -0.0962  0.3532 -0.1533
11291TIP3    H155288   0.584   1.379   6.228 -2.5241  2.2341  1.3485
11291TIP3    H255289   0.627   1.493   6.318  2.7488  0.8549  0.8845
11292TIP3   OH255290   3.449   1.643   2.841 -0.5021  0.2169  0.2900
11292TIP3    H155291   3.480   1.571   2.787 -1.0105  1.1331 -1.2687
11292TIP3    H255292   3.362   1.615   2.870 -0.7325  0.2304 -0.3767
11293TIP3   OH255293   6.691   4.493  12.814 -0.0856  0.6945  0.4252
11293TIP3    H155294   6.628   4.439  12.766  0.4082  1.0947 -0.7103
11293TIP3    H255295   6.775   4.475  12.772  0.0417  2.5594 -0.2046
11294TIP3   OH255296   4.044   5.218   1.971 -0.2559  0.3163  0.0102
11294TIP3    H155297   3.961   5.216   1.923 -0.5517 -0.2973  0.5209
11294TIP3    H255298   4.037   5.294   2.028 -0.2879  0.5114 -0.2528
11295TIP3   OH255299   0.366   4.552   2.148 -0.0795  0.0368  0.2391
11295TIP3    H155300   0.328   4.479   2.100  0.4356 -0.7635  1.0161
11295TIP3    H255301   0.339   4.539   2.239 -0.0169  0.8380  0.3857
11296TIP3   OH255302   3.561   4.822   5.150  0.3108  0.3408  0.0595
11296TIP3    H155303   3.506   4.792   5.223 -0.1504  1.3254  0.1383
11296TIP3    H255304   3.582   4.913   5.172  2.2063 -0.0818  0.1595
11297TIP3   OH255305   0.744   0.014   1.351  0.1994 -0.1030 -0.2372
11297TIP3    H155306   0.753  -0.077   1.322 -1.3225 -0.7795  1.2566
11297TIP3    H255307   0.766   0.012   1.444  1.5324  1.3618 -0.4760
11298TIP3   OH255308   2.156   2.818  13.808  0.1920  0.3202 -0.0832
11298TIP3    H155309   2.144   2.807  13.714 -0.7252  1.8464 -0.1766
11298TIP3    H255310   2.071   2.795  13.846 -0.6263  3.1471  0.0052
11299TIP3   OH255311   5.113   4.418   3.766  0.0797 -0.1698  0.4874
11299TIP3    H155312   5.119   4.486   3.832 -1.5870  0.4456  0.0523
11299TIP3    H255313   5.097   4.337   3.815 -3.6521  0.6325  0.8433
11300TIP3   OH255314   4.981   3.164   0.556 -0.7975 -0.1825  0.3972
11300TIP3    H155315   4.948   3.245   0.518  0.3495  0.2934  0.3803
11300TIP3    H255316   5.007   3.111   0.481  1.9356  0.9547  0.4083
11301TIP3   OH255317   3.045   4.611   4.938 -0.2037 -0.5451  0.8264
11301TIP3    H155318   3.022   4.619   4.845  1.3056 -1.3135  0.3563
11301TIP3    H255319   3.011   4.525   4.963 -0.0675 -0.6024  0.8155
11302TIP3   OH255320   3.370   6.640   4.429  0.3926  0.3924  0.0078
11302TIP3    H155321   3.461   6.669   4.421 -0.5836  3.6940 -0.6929
11302TIP3    H255322   3.322   6.694   4.365 -2.2255 -0.3195  1.2427
11303TIP3   OH255323   5.959   4.438   5.567  0.9058  0.0126 -0.0106
11303TIP3    H155324   5.945   4.434   5.662  0.6598  0.3851 -0.0278
11303TIP3    H255325   6.031   4.378   5.551 -0.1791 -1.4044  0.1916
11304TIP3   OH255326   5.983   2.435   0.590  0.1512 -0.5234 -0.0458
11304TIP3    H155327   5.908   2.468   0.541  0.1878 -1.1158 -0.5085
11304TIP3    H255328   5.945   2.378   0.658  0.0744  0.5941  0.8850
11305TIP3   OH255329   3.579   3.384  16.671 -1.1223 -0.3101  0.1296
11305TIP3    H155330   3.507   3.342  16.718 -1.1753 -1.5932 -1.0417
11305TIP3    H255331   3.605   3.321  16.604 -0.1796  0.9149 -0.7255
11306TIP3   OH255332   1.690   3.124  16.906  0.4223 -0.0052 -0.3438
11306TIP3    H155333   1.670   3.040  16.946  1.2612  0.0453  0.1980
11306TIP3    H255334   1.716   3.102  16.816  1.0066 -0.3714 -0.0935
11307TIP3   OH255335   3.429   6.536  11.354  0.0677  0.0714  0.1386
11307TIP3    H155336   3.376   6.603  11.400  0.9555  1.1000 -0.2911
11307TIP3    H255337   3.517   6.573  11.351 -0.1834  0.7885 -3.6778
11308TIP3   OH255338   5.060   0.713  16.569 -0.2999  0.3582  0.6501
11308TIP3    H155339   5.119   0.663  16.513  0.5624  0.4991  1.4260
11308TIP3    H255340   4.976   0.667  16.561 -0.3448  0.7038 -1.1905
11309TIP3   OH255341   3.398   2.364   1.102 -0.3281  0.2295 -0.6376
11309TIP3    H155342   3.447   2.418   1.039  0.3136  1.1447  0.6107
11309TIP3    H255343   3.422   2.274   1.079  0.6277  0.5864 -1.1083
11310TIP3   OH255344   0.539   6.343   0.257  0.1172  0.5646 -0.3422
11310TIP3    H155345   0.574   6.432   0.269  0.2792  0.2744  1.7612
11310TIP3    H255346   0.615   6.290   0.235  0.4986  0.5191  0.9846
11311TIP3   OH255347   5.316   6.274   5.359  0.1230 -0.2028  0.9172
11311TIP3    H155348   5.237   6.299   5.406  0.9160  0.9960  1.6577
11311TIP3    H255349   5.381   6.339   5.385  0.3271  1.2770 -2.7016
11312TIP3   OH255350   3.993   3.685  11.339 -0.3045 -0.1663 -0.1610
11312TIP3    H155351   3.947   3.720  11.416  2.0059 -0.8297  1.6382
11312TIP3    H255352   3.987   3.755  11.274 -0.9343  1.1102  1.2034
11313TIP3   OH255353   3.438   6.190   1.882  0.0369  0.4549 -0.1260
11313TIP3    H155354   3.395   6.205   1.797 -2.4489  0.5857  1.0538
11313TIP3    H255355   3.454   6.278   1.916  0.0309  0.4047  0.0056
11314TIP3   OH255356   4.241   0.714   1.034 -0.1877  0.3231 -0.8210
11314TIP3    H155357   4.300   0.713   1.109 -2.2459  0.4052  0.9277
11314TIP3    H255358   4.297   0.725   0.958  1.8583  2.5111  0.8782
11315TIP3   OH255359   3.543   0.964  13.145  0.0464 -0.1411  0.2453
11315TIP3    H155360   3.582   1.047  13.117  0.1843 -0.9539 -2.1802
11315TIP3    H255361   3.464   0.956  13.093  0.1210 -1.6205  0.3173
11316TIP3   OH255362   1.951   3.285   3.121  0.3497  0.1644  0.1681
11316TIP3    H155363   1.860   3.307   3.102  0.6496  1.0231 -0.3482
11316TIP3    H255364   1.974   3.217   3.058 -0.5385 -1.5827  1.6569
11317TIP3   OH255365   1.746   2.806  13.378 -0.2243  0.0378  0.0441
11317TIP3    H155366   1.687   2.823  13.305 -0.5438 -1.2054 -0.0126
11317TIP3    H255367   1.833   2.821  13.342 -0.4195  0.1745 -0.3814
11318TIP3   OH255368   6.192   2.801  14.024  0.6024 -0.2550 -0.0397
11318TIP3    H155369   6.263   2.781  14.085 -0.9960  1.0769  2.4207
11318TIP3    H255370   6.114   2.807  14.079 -0.6370  2.9698 -1.8866
11319TIP3   OH255371   0.693   5.628  13.150  0.8368 -0.3922 -0.0426
11319TIP3    H155372   0.652   5.628  13.236 -2.1978  0.0264 -1.3840
11319TIP3    H255373   0.705   5.721  13.128 -0.8972 -0.3767 -1.1042
11320TIP3   OH255374   4.238   5.003   9.991 -0.0224 -0.0081  0.7305
11320TIP3    H155375   4.203   4.927  10.037 -2.9538  0.3707 -0.6778
11320TIP3    H255376   4.300   5.042  10.053 -0.5610 -1.9257  2.5835
11321TIP3   OH255377   5.225   4.545  12.139  0.3381  0.9722 -0.4057
11321TIP3    H155378   5.307   4.592  12.154  0.6641  0.6971 -1.2604
11321TIP3    H255379   5.247   4.453  12.150 -0.3632  0.9915  1.5560
11322TIP3   OH255380   1.512   3.470  14.424 -0.8558  0.3743 -0.5505
11322TIP3    H155381   1.603   3.455  14.398 -0.8006 -1.2200  0.4197
11322TIP3    H255382   1.516   3.543  14.485  0.0737 -0.9143  0.9970
11323TIP3   OH255383   6.258   2.804  12.611 -0.2229 -0.1916  0.5672
11323TIP3    H155384   6.326   2.739  12.595  0.8744  1.2373 -0.9275
11323TIP3    H255385   6.219   2.820  12.526 -0.6006  0.9546  0.9293
11324TIP3   OH255386   1.174   1.804  13.682  0.1634  0.0899 -0.5136
11324TIP3    H155387   1.156   1.882  13.630  0.6648  1.7869  1.6880
11324TIP3    H255388   1.088   1.779  13.717  0.4306  1.9727  1.7254
11325TIP3   OH255389   3.432   0.341  14.190 -0.7853  0.4463  0.2288
11325TIP3    H155390   3.442   0.436  14.196 -0.2127  0.4723 -0.9038
11325TIP3    H255391   3.428   0.323  14.096 -1.2790 -0.6177  0.4396
11326TIP3   OH255392   3.164   0.863   2.985  0.0069  0.2970 -0.4384
11326TIP3    H155393   3.111   0.876   3.063  0.0664  0.4100 -0.4163
11326TIP3    H255394   3.182   0.952   2.954  1.3926  0.3120  0.3645
11327TIP3   OH255395   3.222   1.551  11.405  0.3528 -0.1074  0.3575
11327TIP3    H155396   3.187   1.518  11.487  0.1366  0.2341  0.4018
11327TIP3    H255397   3.191   1.641  11.400  1.3621  0.2582  0.4853
11328TIP3   OH255398   0.036   3.128  11.998  0.0770  0.0418 -0.4208
11328TIP3    H155399   0.085   3.105  11.919 -2.0390 -4.2411 -0.7600
11328TIP3    H255400  -0.041   3.175  11.965  0.1651  0.0118 -0.6752
11329TIP3   OH255401   5.399   5.808  16.886 -0.3314 -0.4972  0.3767
11329TIP3    H155402   5.355   5.724  16.902 -1.3155  0.1495  1.2114
11329TIP3    H255403   5.489   5.794  16.915 -0.4252 -1.3205  0.3044
11330TIP3   OH255404   3.201   0.077   0.630 -0.3302  0.0394  0.0679
11330TIP3    H155405   3.124   0.083   0.686 -0.0298  1.2028  0.3917
11330TIP3    H255406   3.194   0.153   0.572  0.2184 -0.2292 -0.3618
11331TIP3   OH255407   2.614   0.258   1.598 -0.2093 -0.2589 -0.8144
11331TIP3    H155408   2.546   0.204   1.639  1.6166 -2.0335  0.0503
11331TIP3    H255409   2.658   0.199   1.537  1.8805  0.1798  0.1755
11332TIP3   OH255410   4.314   2.668   5.039  0.3617 -0.1479 -0.2301
11332TIP3    H155411   4.264   2.587   5.031 -0.1311  0.1799 -0.4874
11332TIP3    H255412   4.344   2.687   4.951  3.3960 -1.8540  0.2846
11333TIP3   OH255413   5.572   4.426   1.660 -0.8456  0.2950 -0.3401
11333TIP3    H155414   5.518   4.412   1.582  0.6868  0.0896 -1.4071
11333TIP3    H255415   5.660   4.438   1.627 -0.0142 -0.5127  1.4167
11334TIP3   OH255416   5.587   1.316  15.001 -0.3014 -0.5336 -0.1243
11334TIP3    H155417   5.613   1.378  15.068 -1.4217  0.5756 -0.6634
11334TIP3    H255418   5.669   1.280  14.967  0.4844  1.7918 -0.8414
11335TIP3   OH255419   6.266   3.489  15.574 -0.5377  0.3530 -0.1090
11335TIP3    H155420   6.215   3.497  15.655  1.1166  0.1610  1.0017
11335TIP3    H255421   6.356   3.478  15.604 -0.0300 -1.0419 -1.9671
11336TIP3   OH255422   4.870   3.829   3.577  0.5655 -0.1360 -0.0056
11336TIP3    H155423   4.932   3.756   3.581  0.4715 -0.1623  1.3730
11336TIP3    H255424   4.801   3.799   3.518  0.1838 -1.4627  1.0705
11337TIP3   OH255425   5.771   2.892   0.376 -0.4902 -0.7812  0.3349
11337TIP3    H155426   5.784   2.916   0.467  1.4297 -0.7943  0.0909
11337TIP3    H255427   5.763   2.797   0.377 -0.2218 -0.8011  0.4517
11338TIP3   OH255428   2.777   1.687   0.152 -0.3833 -0.6690 -0.0944
11338TIP3    H155429   2.837   1.660   0.221 -0.1582 -0.7094 -0.3065
11338TIP3    H255430   2.760   1.780   0.170  0.0906 -0.5402 -0.2898
11339TIP3   OH255431   2.700   6.607  17.153  0.3824  0.0087  0.3308
11339TIP3    H155432   2.620   6.554  17.159 -0.6900  1.4996  0.0240
11339TIP3    H255433   2.722   6.628  17.243 -0.4513  0.7814  0.3757
11340TIP3   OH255434   0.021   2.577  13.819  0.7359 -1.0106 -0.2918
11340TIP3    H155435   0.070   2.631  13.756  1.1007 -2.7221 -1.5422
11340TIP3    H255436   0.017   2.631  13.898  1.5145  0.6337 -1.3121
11341TIP3   OH255437   2.551   6.149   3.866 -0.2648  0.1489  0.2929
11341TIP3    H155438   2.543   6.071   3.921  2.3884  0.2822  0.9651
11341TIP3    H255439   2.562   6.115   3.777 -2.0126 -0.1145  0.1349
11342TIP3   OH255440   1.789   3.681  12.927 -0.4846  0.0952  0.4623
11342TIP3    H155441   1.874   3.660  12.965 -0.1725 -0.4789 -0.5273
11342TIP3    H255442   1.783   3.777  12.933  0.4269  0.1773  0.1228
11343TIP3   OH255443   2.767   3.116  11.425 -0.3354 -0.4150 -0.7041
11343TIP3    H155444   2.781   3.189  11.485  0.0388 -0.3083 -0.9187
11343TIP3    H255445   2.844   3.060  11.436  0.0887 -0.0277 -1.6005
11344TIP3   OH255446   5.754   0.040   3.350  0.2974  0.1177  0.1678
11344TIP3    H155447   5.768   0.009   3.261  0.9089  1.5332 -0.2687
11344TIP3    H255448   5.692   0.113   3.340  0.5269  0.4122  0.8644
11345TIP3   OH255449   0.090   6.484  12.548  0.5652  0.5718 -0.0305
11345TIP3    H155450   0.096   6.416  12.615 -1.5529  1.8971  1.6520
11345TIP3    H255451   0.035   6.446  12.480  0.7815  0.0452  0.0821
11346TIP3   OH255452   3.308   4.672   5.300 -0.2387 -0.0950 -0.1497
11346TIP3    H155453   3.349   4.704   5.380 -0.4970  0.6818 -0.3236
11346TIP3    H255454   3.278   4.583   5.322  0.9514 -0.4313  0.1702
11347TIP3   OH255455   6.577   2.177   0.400  0.2348 -0.2955 -0.2234
11347TIP3    H155456   6.566   2.115   0.472 -0.3694 -2.0214 -1.6879
11347TIP3    H255457   6.671   2.175   0.381  1.1491  3.1262  2.8431
11348TIP3   OH255458   1.378   0.829  13.827  0.0354 -0.6175 -0.2815
11348TIP3    H155459   1.301   0.861  13.781  0.2853  1.3647  0.5964
11348TIP3    H255460   1.452   0.870  13.782  0.3173  0.7934  1.3879
11349TIP3   OH255461   1.743   2.585  14.810  0.1058 -0.9145 -0.1964
11349TIP3    H155462   1.722   2.605  14.719  0.9646 -1.9934 -0.6517
11349TIP3    H255463   1.831   2.620  14.823 -0.3475  0.0110  0.4962
11350TIP3   OH255464   2.085   0.226   3.174  0.7413  0.1387  0.2843
11350TIP3    H155465   2.027   0.236   3.249  0.9316 -0.5532  0.5215
11350TIP3    H255466   2.088   0.132   3.156  1.9865  0.1230  0.4379
11351TIP3   OH255467   6.380   6.624  15.932 -0.2787 -0.1642  0.4711
11351TIP3    H155468   6.449   6.561  15.955  0.3818  0.4678  0.2407
11351TIP3    H255469   6.306   6.569  15.908  1.3867 -1.0372 -3.3742
11352TIP3   OH255470   3.347   2.596  14.535 -0.7797  0.3318 -0.6416
11352TIP3    H155471   3.299   2.572  14.615 -1.3432 -0.1525 -1.1193
11352TIP3    H255472   3.431   2.550  14.544 -1.3969 -0.9160 -0.9895
11353TIP3   OH255473   6.589   0.703   0.453 -0.1813 -0.0249  0.3618
11353TIP3    H155474   6.613   0.736   0.366 -2.9335 -0.4842 -0.6536
11353TIP3    H255475   6.590   0.781   0.508  0.3834  0.4976 -0.3629
11354TIP3   OH255476   0.469   4.242  16.521  0.1259 -0.3176 -0.5197
11354TIP3    H155477   0.499   4.151  16.518  1.1826 -0.1788  2.3472
11354TIP3    H255478   0.549   4.294  16.516 -0.1779  0.3105  0.7745
11355TIP3   OH255479   1.131   5.471   2.141  0.6645  0.0948 -0.1674
11355TIP3    H155480   1.220   5.442   2.155  0.0909 -1.0264  1.4539
11355TIP3    H255481   1.139   5.546   2.081  2.8481  1.1846  1.3362
11356TIP3   OH255482   5.029   5.602  15.774  0.3870 -0.0774  0.6741
11356TIP3    H155483   5.102   5.546  15.748 -0.5376 -0.5700 -0.9700
11356TIP3    H255484   5.019   5.665  15.703  0.4373  1.2663  1.7981
11357TIP3   OH255485   0.495   5.009  16.678 -0.1788  0.0091 -0.4752
11357TIP3    H155486   0.423   4.966  16.724 -0.6141  0.8175 -0.3870
11357TIP3    H255487   0.482   5.102  16.694 -0.1793  0.3027 -1.9835
11358TIP3   OH255488   3.410   3.294  13.464 -0.2701 -0.1882  0.0937
11358TIP3    H155489   3.363   3.324  13.541 -0.2691 -1.3017  0.5420
11358TIP3    H255490   3.494   3.340  13.466  0.4423 -1.4564  1.7186
11359TIP3   OH255491   2.515   5.886   5.125  0.8302  0.3195 -0.2202
11359TIP3    H155492   2.446   5.935   5.079 -0.2682 -2.0448 -1.2667
11359TIP3    H255493   2.541   5.818   5.063  0.5400 -1.9319  1.9664
11360TIP3   OH255494   0.911   4.969   2.632  0.2813 -0.2997 -0.7124
11360TIP3    H155495   0.946   4.988   2.720  0.3400  0.6317 -0.9262
11360TIP3    H255496   0.914   4.874   2.626  3.2485 -0.2808 -0.8795
11361TIP3   OH255497   1.383   5.518   1.251  0.0987 -0.5999  0.1364
11361TIP3    H155498   1.438   5.583   1.209  1.1746 -0.9193  1.0109
11361TIP3    H255499   1.314   5.568   1.295 -0.3652 -0.2046 -0.9997
11362TIP3   OH255500   2.435   1.146   3.909  0.1403  0.0937 -0.0184
11362TIP3    H155501   2.398   1.180   3.990  0.5298 -0.3835  0.3621
11362TIP3    H255502   2.474   1.223   3.867 -0.7632  0.4959 -0.1541
11363TIP3   OH255503   5.805   6.789   4.562 -0.0143 -0.3893  0.4586
11363TIP3    H155504   5.725   6.842   4.558 -0.1781 -0.6244  0.6146
11363TIP3    H255505   5.839   6.804   4.650 -0.7883 -1.5921  0.9921
11364TIP3   OH255506   6.172   0.770  11.608  0.0205 -0.2749  0.0274
11364TIP3    H155507   6.172   0.675  11.596 -0.5649 -0.3998  0.9824
11364TIP3    H255508   6.254   0.799  11.567  0.6701 -1.3010  0.5602
11365TIP3   OH255509   2.158   0.655   4.080 -0.0688  0.3589  0.3824
11365TIP3    H155510   2.183   0.632   3.991 -0.0632  0.7467  0.2832
11365TIP3    H255511   2.166   0.750   4.084 -3.1291  0.7518 -0.1765
11366TIP3   OH255512   6.280   3.756  14.767 -0.2926  0.0136  0.3416
11366TIP3    H155513   6.278   3.852  14.760 -1.6314 -0.0185 -0.0541
11366TIP3    H255514   6.220   3.736  14.838 -0.4052 -0.5539  0.0907
11367TIP3   OH255515   5.448   3.344  13.131 -0.9723  0.2221  0.2438
11367TIP3    H155516   5.417   3.259  13.099  0.0182  0.2763 -0.9450
11367TIP3    H255517   5.408   3.408  13.071  0.5506  0.3622 -0.6858
11368TIP3   OH255518   1.159   5.557  10.260 -0.7951  0.7422  0.1034
11368TIP3    H155519   1.226   5.604  10.209 -0.8638  2.1417  1.2515
11368TIP3    H255520   1.079   5.609  10.248 -0.6051  1.6329  2.3160
11369TIP3   OH255521   5.590   4.903  14.107 -0.0355  0.0564  0.1068
11369TIP3    H155522   5.611   4.863  14.022 -2.1323 -0.1240 -0.3867
11369TIP3    H255523   5.634   4.847  14.171 -0.2565 -1.1359 -0.7523
11370TIP3   OH255524   3.373   4.845  10.646 -0.1149 -0.0227  0.1144
11370TIP3    H155525   3.379   4.760  10.688  2.0009  0.2569  0.4617
11370TIP3    H255526   3.453   4.890  10.671 -0.1774  1.2751 -1.8237
11371TIP3   OH255527   5.534   1.231  11.579 -0.8546  0.1218 -0.1813
11371TIP3    H155528   5.624   1.199  11.573 -0.4975  0.9748  0.4538
11371TIP3    H255529   5.480   1.152  11.588 -0.1010 -0.3427  0.2832
11372TIP3   OH255530   1.242   1.370   4.818  0.0236  0.1735  0.5113
11372TIP3    H155531   1.190   1.307   4.767  1.3089  0.7832 -1.7079
11372TIP3    H255532   1.194   1.452   4.809 -0.4564  0.0149  1.4855
11373TIP3   OH255533   5.767   2.861   0.649  0.1141  0.6217  0.0631
11373TIP3    H155534   5.730   2.930   0.705 -0.7566  1.4729 -1.5055
11373TIP3    H255535   5.777   2.786   0.708  2.0150  2.3158  2.0921
11374TIP3   OH255536   5.220   5.172   0.709 -0.3593  0.3448  0.0355
11374TIP3    H155537   5.308   5.150   0.677 -0.3844  0.5712 -0.1888
11374TIP3    H255538   5.184   5.088   0.738  0.3456  0.4193  1.1615
11375TIP3   OH255539   5.846   6.037   5.806 -0.0181 -0.3905 -0.1009
11375TIP3    H155540   5.921   6.053   5.864 -0.1021 -0.6178  0.0704
11375TIP3    H255541   5.774   6.084   5.848 -0.5014 -1.9754  0.9242
11376TIP3   OH255542   2.861   5.887  11.056  0.3957  0.5082 -0.0922
11376TIP3    H155543   2.888   5.830  11.128  0.5018  0.9403  0.2107
11376TIP3    H255544   2.844   5.971  11.097  3.3915  1.6616 -0.9757
11377TIP3   OH255545   5.230   5.304  10.580 -0.3122  0.1791  0.2637
11377TIP3    H155546   5.139   5.281  10.562 -0.6856 -0.0869  2.2014
11377TIP3    H255547   5.274   5.219  10.593  0.2277  0.3066 -0.6430
11378TIP3   OH255548   6.705   3.134   3.455 -0.3493 -0.3826 -1.1748
11378TIP3    H155549   6.620   3.172   3.475 -0.5511 -1.7418  0.8156
11378TIP3    H255550   6.767   3.206   3.468 -0.7540 -0.4895  2.0737
11379TIP3   OH255551   2.828   3.020   0.560  0.0213 -0.1550 -0.6275
11379TIP3    H155552   2.831   2.938   0.511  1.0839  0.0833 -0.9793
11379TIP3    H255553   2.765   3.074   0.512  0.3530 -0.2657 -1.2005
11380TIP3   OH255554   6.343   4.427  11.743 -0.4476 -0.3041  0.0591
11380TIP3    H155555   6.300   4.438  11.658 -1.1632 -1.8532  0.1719
11380TIP3    H255556   6.273   4.445  11.807 -0.9013 -2.4254  0.2489
11381TIP3   OH255557   4.426   0.021   6.357  0.0089  0.2783 -0.2012
11381TIP3    H155558   4.347  -0.032   6.369  1.7640 -2.1910  1.4601
11381TIP3    H255559   4.406   0.077   6.282 -2.8991 -0.9817 -0.5043
11382TIP3   OH255560   5.859   3.532   2.059  0.0255 -0.5397  0.0736
11382TIP3    H155561   5.924   3.529   1.989 -0.1685 -1.2040 -0.0837
11382TIP3    H255562   5.890   3.468   2.124  0.2963  0.1944  0.6786
11383TIP3   OH255563   1.693   1.484  14.124 -0.6730  0.3297  0.0775
11383TIP3    H155564   1.772   1.508  14.075  0.0847  0.9274  1.5140
11383TIP3    H255565   1.625   1.539  14.088 -0.4379 -0.1482 -1.1486
11384TIP3   OH255566   6.330   5.212   1.589 -0.3446 -0.2735  0.2082
11384TIP3    H155567   6.411   5.261   1.594  0.2055 -0.9153 -1.5323
11384TIP3    H255568   6.324   5.166   1.673  0.9537 -0.0149  0.4647
11385TIP3   OH255569   4.638   5.982   2.987  0.6640  0.0787  0.0282
11385TIP3    H155570   4.557   5.967   3.035  0.8420 -0.0306  0.2959
11385TIP3    H255571   4.617   5.961   2.896  0.0535  1.2338 -0.1207
11386TIP3   OH255572   3.905   5.791   2.958 -0.0018  0.6719  0.3402
11386TIP3    H155573   3.823   5.746   2.981  0.1545  0.0277 -0.3469
11386TIP3    H255574   3.968   5.721   2.942  0.4231  1.1465 -0.1059
11387TIP3   OH255575   0.708   5.774   0.911 -0.1107  0.1066 -0.0423
11387TIP3    H155576   0.704   5.746   1.003 -1.3458 -0.5159 -0.2698
11387TIP3    H255577   0.622   5.812   0.894  0.3944  0.9802 -0.7222
11388TIP3   OH255578   4.351   1.951   1.430 -0.7267  0.0387  0.2918
11388TIP3    H155579   4.410   2.015   1.470  0.2669 -0.0055 -1.0254
11388TIP3    H255580   4.264   1.979   1.457 -0.1834  0.7855  1.3461
11389TIP3   OH255581   0.477   6.711   5.431  0.3460 -0.8042 -0.3899
11389TIP3    H155582   0.468   6.688   5.523  0.1234  0.7481  0.0090
11389TIP3    H255583   0.389   6.703   5.395  0.6072 -2.3830 -0.7363
11390TIP3   OH255584   5.958   1.347  10.515  0.9661  0.4392 -0.0530
11390TIP3    H155585   5.898   1.408  10.473 -0.1332  0.0169  0.8552
11390TIP3    H255586   6.026   1.403  10.553  0.4289  1.0269  0.0584
11391TIP3   OH255587   2.143   0.346   1.612 -0.0254 -0.2248 -0.1540
11391TIP3    H155588   2.083   0.308   1.549  2.4821 -0.7029 -2.4331
11391TIP3    H255589   2.166   0.432   1.575 -1.2966  1.1743  2.0655
11392TIP3   OH255590   2.707   3.083   5.278  0.2199  0.1003  0.5255
11392TIP3    H155591   2.684   3.079   5.185  1.1313  0.3658  0.2852
11392TIP3    H255592   2.799   3.108   5.279 -0.0591  1.1620  1.5215
11393TIP3   OH255593   5.291   2.213  13.487 -0.4040  0.2295  0.3084
11393TIP3    H155594   5.349   2.136  13.488 -0.7515 -0.0328  1.0571
11393TIP3    H255595   5.327   2.269  13.418 -1.5502 -1.6647 -1.9993
11394TIP3   OH255596   0.137   6.380  15.884 -0.8939  0.0987 -0.5190
11394TIP3    H155597   0.101   6.468  15.879  2.0828  1.4211 -0.9972
11394TIP3    H255598   0.184   6.368  15.801  0.5959 -1.0300  0.4284
11395TIP3   OH255599   5.460   5.868   1.520 -0.0815  0.3458 -0.4380
11395TIP3    H155600   5.521   5.848   1.590  0.0904  1.2021 -0.3280
11395TIP3    H255601   5.417   5.785   1.500  0.7235 -0.1487 -0.1406
11396TIP3   OH255602   4.095   1.522  12.172  0.7681  0.4711 -0.1421
11396TIP3    H155603   4.185   1.518  12.139  0.3376 -0.4405 -1.2846
11396TIP3    H255604   4.059   1.436  12.153 -0.6128  1.0978 -0.4975
11397TIP3   OH255605   5.908   5.356  12.973 -0.3342  0.5604 -0.6794
11397TIP3    H155606   5.871   5.330  13.058 -0.2968  1.8549 -0.2551
11397TIP3    H255607   5.993   5.394  12.994 -0.3204  0.8814 -1.3025
11398TIP3   OH255608   0.473   5.200  15.940  0.4234  0.1863  0.0942
11398TIP3    H155609   0.478   5.291  15.908  1.1646  0.4527  0.9089
11398TIP3    H255610   0.380   5.187  15.960 -0.1886 -0.1789 -2.5831
11399TIP3   OH255611   0.838   3.287   2.002 -0.5832 -0.1283 -0.1933
11399TIP3    H155612   0.803   3.242   2.079 -2.9358  0.2840 -0.9209
11399TIP3    H255613   0.763   3.336   1.967  0.2451 -0.7159 -3.0436
11400TIP3   OH255614   6.746   4.667   0.673 -0.4326 -0.5563 -0.2153
11400TIP3    H155615   6.801   4.588   0.678  2.5829  1.3793 -0.1752
11400TIP3    H255616   6.710   4.665   0.584  0.9650 -1.1891 -0.8031
11401TIP3   OH255617   0.207   2.998  16.450  0.0355  0.7643  0.0167
11401TIP3    H155618   0.189   3.003  16.544  1.0302  0.6463  0.2219
11401TIP3    H255619   0.121   3.009  16.409 -0.7420 -1.1511  0.9792
11402TIP3   OH255620   2.323   2.235  11.220  0.5117  0.0915  0.3151
11402TIP3    H155621   2.417   2.247  11.227  0.8053  0.2214 -2.6135
11402TIP3    H255622   2.299   2.279  11.138 -2.0651 -0.1593  0.8354
11403TIP3   OH255623   5.944   1.741   2.444  0.0762  0.1695 -0.3608
11403TIP3    H155624   5.910   1.830   2.451 -0.0846  0.0700  0.1450
11403TIP3    H255625   5.917   1.712   2.357 -0.4539  0.3740 -0.2647
11404TIP3   OH255626   6.509   5.110  12.680 -0.0431 -0.1304 -0.6179
11404TIP3    H155627   6.579   5.175  12.670 -0.8565  0.8734  0.1551
11404TIP3    H255628   6.510   5.088  12.773 -0.1760 -0.7931 -0.7684
11405TIP3   OH255629   6.586   4.991   2.017 -0.2099  0.2715  0.5285
11405TIP3    H155630   6.610   4.983   1.924 -1.0954  0.2606  0.2966
11405TIP3    H255631   6.670   5.006   2.061  0.1602  0.8805 -0.3362
11406TIP3   OH255632   0.700   4.327   2.951  0.0555  0.5214  0.4289
11406TIP3    H155633   0.760   4.332   3.026  0.6503 -2.1820  0.2266
11406TIP3    H255634   0.655   4.243   2.961  0.3315 -0.0578 -2.3530
11407TIP3   OH255635   4.643   3.481  12.917  0.2350 -0.5832  0.1145
11407TIP3    H155636   4.643   3.518  12.829  1.4583  0.5261  0.5310
11407TIP3    H255637   4.566   3.518  12.959  0.2882 -0.1817 -0.1363
11408TIP3   OH255638   3.689   5.655   2.979  0.0681 -0.3943 -0.6267
11408TIP3    H155639   3.607   5.695   3.006 -1.2066 -0.1787 -4.1832
11408TIP3    H255640   3.679   5.562   2.999 -1.2728 -0.4301 -1.3617
11409TIP3   OH255641   1.541   2.210  14.433 -0.1361 -0.2635  0.6525
11409TIP3    H155642   1.573   2.158  14.359  3.1041  0.0671  1.6525
11409TIP3    H255643   1.526   2.146  14.502 -2.9985 -0.5522 -0.1298
11410TIP3   OH255644   0.466   1.146   2.872  0.2479  0.0693 -0.5812
11410TIP3    H155645   0.495   1.101   2.792 -0.5581 -2.9500  0.6512
11410TIP3    H255646   0.371   1.131   2.873 -0.1200  2.2165 -0.2441
11411TIP3   OH255647   4.654   2.697  12.524 -0.1613  0.9188  0.2474
11411TIP3    H155648   4.713   2.625  12.546 -0.6354 -0.4912 -2.6960
11411TIP3    H255649   4.571   2.655  12.503 -1.0371  2.5214  0.3743
11412TIP3   OH255650   1.674   4.926   5.483  0.4001  0.6498 -0.1055
11412TIP3    H155651   1.717   4.931   5.398  0.1294  0.8173 -0.2320
11412TIP3    H255652   1.743   4.947   5.546  0.0537  3.1112 -0.4225
11413TIP3   OH255653   6.339   1.827  16.027 -0.1183 -0.2192  0.0281
11413TIP3    H155654   6.365   1.918  16.038 -1.9516  0.1644  1.8252
11413TIP3    H255655   6.391   1.779  16.091 -1.9175  0.2060  1.9188
11414TIP3   OH255656   0.215   0.446   5.622 -0.6137  0.0821  0.2311
11414TIP3    H155657   0.306   0.420   5.616 -0.8324 -1.4594  2.3864
11414TIP3    H255658   0.217   0.528   5.672 -0.3746  0.4232 -0.3340
11415TIP3   OH255659   3.989   5.043  12.188  0.5019 -0.0290 -0.2708
11415TIP3    H155660   4.069   4.992  12.178  0.6403  0.2909 -0.8867
11415TIP3    H255661   4.001   5.093  12.268  0.7191 -0.3262 -0.1152
11416TIP3   OH255662   6.615   5.129   4.539  0.2731 -0.0446  0.1721
11416TIP3    H155663   6.590   5.068   4.469  2.1815 -1.4669  0.6223
11416TIP3    H255664   6.557   5.204   4.528  0.9848  0.1525 -3.4178
11417TIP3   OH255665   6.588   6.568  11.183  0.3207 -0.0273 -0.1149
11417TIP3    H155666   6.612   6.558  11.091 -1.0866 -2.5112 -0.2971
11417TIP3    H255667   6.662   6.532  11.231 -0.2730 -1.8374 -0.4578
11418TIP3   OH255668   2.572   3.447   5.564 -0.8835  0.4622  0.5335
11418TIP3    H155669   2.539   3.536   5.562  2.1133  1.7454  1.9861
11418TIP3    H255670   2.639   3.445   5.495 -0.2453 -0.3377  1.1552
11419TIP3   OH255671   5.406   6.341  14.862 -0.0995 -0.0210 -0.4410
11419TIP3    H155672   5.331   6.283  14.849 -0.9457  0.8907  0.2023
11419TIP3    H255673   5.375   6.405  14.926  2.2708 -1.5156  2.4811
11420TIP3   OH255674   0.804   0.548   0.260  0.1069 -0.0733  0.4853
11420TIP3    H155675   0.796   0.553   0.355  0.3805  2.1989  0.4317
11420TIP3    H255676   0.726   0.591   0.227  0.4725 -0.0092 -0.3151
11421TIP3   OH255677   2.731   6.158   5.786 -0.4932 -0.6557  0.2606
11421TIP3    H155678   2.765   6.246   5.773  1.6363 -1.0866  2.3499
11421TIP3    H255679   2.799   6.113   5.836 -2.4553 -2.8481  1.1184
11422TIP3   OH255680   0.837   5.384   2.913 -0.0365  0.4303  0.1398
11422TIP3    H155681   0.812   5.302   2.954  0.7255 -0.4232 -1.0314
11422TIP3    H255682   0.761   5.441   2.922  0.0583  0.2685  2.6006
11423TIP3   OH255683   4.280   4.640  16.437  0.0788 -0.5113 -0.7053
11423TIP3    H155684   4.330   4.589  16.501  0.2372 -1.2872 -1.4349
11423TIP3    H255685   4.196   4.594  16.430 -0.8468  0.8428  0.5915
11424TIP3   OH255686   4.629   3.705   0.022 -0.0835 -0.0267 -0.0344
11424TIP3    H155687   4.613   3.611   0.012 -0.3491  0.1422 -1.4699
11424TIP3    H255688   4.647   3.717   0.115  0.2798 -1.5499  0.1203
11425TIP3   OH255689   1.317   1.064   5.350 -0.3529 -0.1138 -0.1434
11425TIP3    H155690   1.333   1.042   5.258  0.1195 -0.6181  0.0605
11425TIP3    H255691   1.403   1.085   5.385 -0.7028  1.6006 -0.1943
11426TIP3   OH255692   3.187   2.241  15.567  0.1318  0.6208 -0.5023
11426TIP3    H155693   3.191   2.324  15.614  1.3734  1.0636 -1.3162
11426TIP3    H255694   3.260   2.190  15.602 -0.0730  0.2353 -0.6354
11427TIP3   OH255695   3.814   2.306   4.069 -0.0421  0.0951 -0.4088
11427TIP3    H155696   3.906   2.327   4.087  0.0712 -0.5181 -0.2131
11427TIP3    H255697   3.765   2.381   4.102  0.3786  0.3565 -0.3674
11428TIP3   OH255698   6.595   3.516   2.440  0.4344  0.1262 -0.4840
11428TIP3    H155699   6.588   3.608   2.415  0.8850  0.9253  2.0291
11428TIP3    H255700   6.681   3.510   2.482 -0.5418 -0.8724  1.4586
11429TIP3   OH255701   0.733   3.683   2.574  0.2348 -0.2676 -0.4443
11429TIP3    H155702   0.656   3.632   2.597  1.6935 -1.0131  3.6129
11429TIP3    H255703   0.700   3.772   2.559 -1.4212 -0.3494  2.1235
11430TIP3   OH255704   1.364   0.309  15.751 -0.4350  0.1271 -0.1222
11430TIP3    H155705   1.389   0.396  15.782 -0.8268  0.4402 -0.6665
11430TIP3    H255706   1.421   0.294  15.676  1.3577 -1.1344  1.4198
11431TIP3   OH255707   3.837   1.598   3.750 -0.4687  0.6909  0.8082
11431TIP3    H155708   3.882   1.592   3.666  1.9188 -1.0243  2.0796
11431TIP3    H255709   3.856   1.686   3.782  2.0015  0.0843  1.2229
11432TIP3   OH255710   4.731   3.350   3.324 -0.1514  0.0619 -0.2851
11432TIP3    H155711   4.810   3.386   3.284 -0.1796  0.9381  0.4184
11432TIP3    H255712   4.719   3.265   3.281  1.1740 -0.0966 -0.3818
11433TIP3   OH255713   2.125   3.869  11.516  0.1793 -0.0888  0.0188
11433TIP3    H155714   2.043   3.917  11.506  0.8450  1.0738  0.0348
11433TIP3    H255715   2.099   3.777  11.513 -1.1101  0.2607 -0.0793
11434TIP3   OH255716   0.493   6.307   6.172 -0.3388 -0.5005 -0.4135
11434TIP3    H155717   0.585   6.309   6.201  0.1964 -1.3724 -1.9319
11434TIP3    H255718   0.494   6.254   6.093 -1.8625  1.1340 -1.5991
11435TIP3   OH255719   2.470   3.240   5.306  0.0895  0.1062  0.0922
11435TIP3    H155720   2.405   3.192   5.255  0.8058  0.0675 -0.8121
11435TIP3    H255721   2.542   3.177   5.318  0.6018  0.6237 -0.2231
11436TIP3   OH255722   1.898   3.819   3.580  0.4463 -0.7819  0.5394
11436TIP3    H155723   1.861   3.817   3.491  1.8246 -0.2926 -0.0690
11436TIP3    H255724   1.922   3.728   3.597  0.4514 -0.8284  0.2927
11437TIP3   OH255725   5.455   4.715  15.067  0.5779  0.6131 -0.1316
11437TIP3    H155726   5.425   4.783  15.006 -1.6583  1.3224  1.5975
11437TIP3    H255727   5.401   4.639  15.045  0.7257  0.4506  0.0697
11438TIP3   OH255728   3.478   6.585  11.049 -0.8845 -0.5790  0.4528
11438TIP3    H155729   3.555   6.599  10.995 -0.5875 -0.2122  0.9677
11438TIP3    H255730   3.463   6.669  11.092 -1.5252 -0.6673  0.4208
11439TIP3   OH255731   3.876   3.435   4.889 -0.6056 -0.0023  0.3998
11439TIP3    H155732   3.852   3.499   4.956 -2.1773  1.4475 -1.4223
11439TIP3    H255733   3.802   3.373   4.887  0.6844 -1.6810  1.8168
11440TIP3   OH255734   2.191   6.156   1.526 -0.3549  0.6569 -0.3246
11440TIP3    H155735   2.240   6.117   1.453 -1.1431  0.7557 -0.9275
11440TIP3    H255736   2.226   6.114   1.604  1.1267  1.1873 -0.6778
11441TIP3   OH255737   4.116   6.516   3.757 -0.3438 -0.3345  0.1554
11441TIP3    H155738   4.109   6.610   3.771 -0.4338 -0.2508 -0.4440
11441TIP3    H255739   4.120   6.505   3.662 -0.4315 -0.9422  0.2136
11442TIP3   OH255740   5.420   1.427   3.283  0.0419  0.0713 -0.3114
11442TIP3    H155741   5.419   1.334   3.261  0.3906  0.4305 -1.9781
11442TIP3    H255742   5.504   1.439   3.328 -0.1420 -0.4542  0.1991
11443TIP3   OH255743   6.459   3.445  11.054  0.7284 -0.1670 -0.2284
11443TIP3    H155744   6.510   3.525  11.068 -1.2444  0.9708  0.8926
11443TIP3    H255745   6.440   3.445  10.960  0.5340  0.8322 -0.2001
11444TIP3   OH255746   2.932   3.529  12.367 -0.5052  0.4182  0.7473
11444TIP3    H155747   2.960   3.438  12.371  0.3380  0.4621 -2.1578
11444TIP3    H255748   2.843   3.529  12.402 -1.8882 -2.2117 -2.3444
11445TIP3   OH255749   3.010   5.618  10.831  0.1569  0.1782 -0.6423
11445TIP3    H155750   2.915   5.616  10.825  0.0011  1.0043  1.0441
11445TIP3    H255751   3.029   5.696  10.883  1.7664  0.0604 -1.0017
11446TIP3   OH255752   3.847   0.399   4.994  0.1019  0.6627 -0.7194
11446TIP3    H155753   3.919   0.386   5.055  1.3644 -0.5442 -2.3472
11446TIP3    H255754   3.867   0.340   4.921 -1.5643  1.6879 -2.0903
11447TIP3   OH255755   0.286   1.481  12.206  0.0386  0.4850  0.2829
11447TIP3    H155756   0.316   1.391  12.201  1.0779  0.8398 -0.0990
11447TIP3    H255757   0.274   1.497  12.300 -0.2649 -0.0815  0.3416
11448TIP3   OH255758   4.944   6.210  13.272  0.1715  0.8039  0.4681
11448TIP3    H155759   4.969   6.118  13.276 -0.5395  0.6470  2.4735
11448TIP3    H255760   4.911   6.222  13.183  1.3892 -0.5572 -0.2015
11449TIP3   OH255761   3.845   3.074  15.838  0.7451  0.3572  0.0035
11449TIP3    H155762   3.755   3.088  15.867  0.5052  1.6817 -1.3087
11449TIP3    H255763   3.894   3.060  15.920 -0.5057  0.3485  0.7790
11450TIP3   OH255764   3.896   5.177  10.872  0.2794 -0.3088 -0.1938
11450TIP3    H155765   3.922   5.257  10.826  0.7548 -1.5309 -2.1655
11450TIP3    H255766   3.855   5.208  10.953  2.1374  1.8652  0.0048
11451TIP3   OH255767   1.560   5.547  12.554 -0.1828 -0.1623  0.3569
11451TIP3    H155768   1.610   5.465  12.558  0.2883  0.1648  1.4787
11451TIP3    H255769   1.521   5.555  12.641  0.1362  1.0211  0.3994
11452TIP3   OH255770   2.072   4.285  14.345 -0.6464 -0.0045  0.4135
11452TIP3    H155771   2.049   4.195  14.321 -0.5582  0.1896 -0.4143
11452TIP3    H255772   2.153   4.276  14.395 -0.3125 -0.3375 -0.1834
11453TIP3   OH255773   3.511   6.634  15.046 -0.1865 -0.3230 -0.1406
11453TIP3    H155774   3.452   6.596  14.980 -0.7489 -0.0733  0.2079
11453TIP3    H255775   3.488   6.588  15.127 -0.2872  0.1706  0.1101
11454TIP3   OH255776   3.882   4.611   0.242 -0.1475 -0.1238  0.5982
11454TIP3    H155777   3.948   4.671   0.278 -1.6042  1.1005  1.3665
11454TIP3    H255778   3.805   4.625   0.297 -0.9228 -1.8624  0.0353
11455TIP3   OH255779   2.861   1.505   3.244  0.8916  0.0326 -0.6894
11455TIP3    H155780   2.891   1.594   3.258  1.5201 -0.1278 -0.9913
11455TIP3    H255781   2.904   1.454   3.313 -0.9438  0.2477  0.6866
11456TIP3   OH255782   6.644   2.906   0.108  0.4485  0.6730  0.0998
11456TIP3    H155783   6.721   2.853   0.085  0.7575  0.8429  0.7217
11456TIP3    H255784   6.681   2.985   0.146 -0.0060  1.4665 -1.0667
11457TIP3   OH255785   2.867   3.524   3.847  0.1234  0.0554  0.0781
11457TIP3    H155786   2.925   3.594   3.878 -1.9741  2.1960 -0.5405
11457TIP3    H255787   2.924   3.466   3.796  1.9837  1.1610  0.7987
11458TIP3   OH255788   6.579   1.512  11.872 -0.2118 -0.8269  0.0880
11458TIP3    H155789   6.578   1.460  11.952 -0.1792  0.0484  0.6713
11458TIP3    H255790   6.636   1.586  11.892  0.5453 -1.0747 -1.0602
11459TIP3   OH255791   2.242   5.684   1.690 -0.0761  0.1550  0.4066
11459TIP3    H155792   2.159   5.730   1.679  0.0676  0.4950  0.7043
11459TIP3    H255793   2.304   5.734   1.638 -0.6828 -1.9963 -2.6376
11460TIP3   OH255794   0.765   0.304  15.459 -0.2375 -0.5902  0.2356
11460TIP3    H155795   0.704   0.339  15.524  1.0833  1.6344  0.3800
11460TIP3    H255796   0.816   0.380  15.430  0.2204 -1.7678 -2.3363
11461TIP3   OH255797   1.971   0.535   6.048 -0.1140 -0.5740  0.7353
11461TIP3    H155798   1.947   0.626   6.068  0.4112 -0.5481  1.3054
11461TIP3    H255799   1.900   0.483   6.085  0.3140 -0.4629  1.7773
11462TIP3   OH255800   0.191   0.157   6.261  0.3143  0.3856 -0.5455
11462TIP3    H155801   0.278   0.196   6.275  0.1020  1.1122 -1.1854
11462TIP3    H255802   0.141   0.183   6.338  0.7130 -0.2102 -0.0720
11463TIP3   OH255803   0.782   5.625   2.047  0.3012  0.1598  0.9193
11463TIP3    H155804   0.687   5.615   2.053  0.0154  0.0918 -2.1137
11463TIP3    H255805   0.810   5.643   2.136 -2.7087  1.3952  1.7361
11464TIP3   OH255806   2.524   5.437   4.773 -0.1112 -0.0819 -0.8950
11464TIP3    H155807   2.445   5.384   4.784 -0.2773  0.2219 -0.6162
11464TIP3    H255808   2.583   5.382   4.721  0.5422 -1.4238  1.1347
11465TIP3   OH255809   4.139   5.465   3.797 -0.2799  0.8965  0.3854
11465TIP3    H155810   4.099   5.535   3.745 -2.2373  0.6524  1.4520
11465TIP3    H255811   4.136   5.388   3.740  0.3217  1.2897 -0.1872
11466TIP3   OH255812   5.029   6.761  11.461 -0.2521  0.0210  0.0122
11466TIP3    H155813   5.098   6.826  11.474 -0.6627  0.7389 -1.2192
11466TIP3    H255814   5.015   6.759  11.366 -2.3469  0.3548  0.2625
11467TIP3   OH255815   0.773   3.768  16.389 -0.6057 -0.2593  0.3877
11467TIP3    H155816   0.867   3.788  16.391 -0.4555 -0.8474 -0.2869
11467TIP3    H255817   0.762   3.697  16.452 -0.4089 -0.9024 -0.2891
11468TIP3   OH255818   3.529   2.071   5.052  0.1461  0.7417 -0.4589
11468TIP3    H155819   3.583   1.996   5.078 -1.2026  0.0681  0.4614
11468TIP3    H255820   3.506   2.053   4.960  0.1577  0.2316 -0.3654
11469TIP3   OH255821   2.798   2.709   4.969  0.6475  0.6049 -0.4499
11469TIP3    H155822   2.887   2.683   4.945  1.3415 -0.9099  3.0601
11469TIP3    H255823   2.808   2.795   5.010  0.8798 -0.2804  1.4699
11470TIP3   OH255824   2.872   3.366   6.056 -0.3381  0.0215 -0.0236
11470TIP3    H155825   2.942   3.322   6.104 -1.2643 -1.6254 -0.1214
11470TIP3    H255826   2.858   3.448   6.103  1.2513  0.1044  0.3286
11471TIP3   OH255827   5.952   1.126  14.602 -0.3570  0.2815  0.1328
11471TIP3    H155828   5.983   1.206  14.645 -0.1441  0.3469 -0.1360
11471TIP3    H255829   5.989   1.055  14.654 -0.0586  0.3598  0.0335
11472TIP3   OH255830   1.240   3.639  15.703  0.7574  0.1287 -0.2315
11472TIP3    H155831   1.246   3.592  15.786  1.7435 -0.1597 -0.4501
11472TIP3    H255832   1.307   3.707  15.709 -0.5164  1.4174  0.0020
11473TIP3   OH255833   1.915   3.991  11.404  0.0118  0.2427  0.2818
11473TIP3    H155834   1.949   4.078  11.381 -2.4517  1.0927 -0.4500
11473TIP3    H255835   1.915   3.943  11.321  3.6614 -1.4687  1.0474
11474TIP3   OH255836   6.789   6.141   4.669 -0.7021 -0.2812  0.1403
11474TIP3    H155837   6.764   6.205   4.735  1.8147  1.8194 -0.7975
11474TIP3    H255838   6.839   6.075   4.718 -0.6580  0.1354  0.6657
11475TIP3   OH255839   6.626   2.460  17.089 -0.5153 -0.0283  0.1805
11475TIP3    H155840   6.651   2.501  17.172 -0.1228 -1.3406  0.7288
11475TIP3    H255841   6.548   2.409  17.109 -0.5710 -0.1474 -0.3226
11476TIP3   OH255842   4.360   0.274   5.866  0.1519 -0.3349  0.0715
11476TIP3    H155843   4.410   0.334   5.810  1.8944 -1.1028  0.7143
11476TIP3    H255844   4.332   0.329   5.940  2.9614 -0.4835  1.3842
11477TIP3   OH255845   0.462   3.835   0.344  0.5323  0.0612 -0.0083
11477TIP3    H155846   0.514   3.757   0.365  1.7478  1.2004  1.4938
11477TIP3    H255847   0.527   3.904   0.332 -0.5280  0.9143 -1.1137
11478TIP3   OH255848   1.144   2.280   0.266 -0.1976 -0.1979  0.2824
11478TIP3    H155849   1.131   2.191   0.232 -0.7085 -0.9445  2.2904
11478TIP3    H255850   1.091   2.283   0.345 -1.4436  2.4571 -0.5682
11479TIP3   OH255851   4.104   0.806  14.974  0.4620 -0.2674 -0.6042
11479TIP3    H155852   4.079   0.718  14.946 -0.9542 -0.9961  2.5204
11479TIP3    H255853   4.101   0.803  15.069  0.0818  3.2505 -0.3650
11480TIP3   OH255854   1.257   1.395   3.767 -0.0840 -0.8043 -0.3484
11480TIP3    H155855   1.188   1.380   3.702  1.0367 -0.3521 -1.7050
11480TIP3    H255856   1.338   1.374   3.720  0.7681 -0.4807  0.9284
11481TIP3   OH255857   6.088   0.770  11.289 -0.2955 -0.0705  0.3192
11481TIP3    H155858   6.134   0.692  11.257 -2.0413 -0.8174 -0.5107
11481TIP3    H255859   6.155   0.839  11.289  1.2496 -1.4927  0.8789
11482TIP3   OH255860   2.685   6.042   3.640 -0.5762 -0.0283 -0.2537
11482TIP3    H155861   2.703   6.107   3.572 -0.6749  1.3890  1.0266
11482TIP3    H255862   2.769   6.029   3.684 -0.6382 -0.5165 -0.2713
11483TIP3   OH255863   1.012   2.482   4.804 -0.0181  0.1597 -0.0196
11483TIP3    H155864   0.930   2.473   4.854 -0.5615  1.9697 -0.5186
11483TIP3    H255865   1.069   2.413   4.839 -1.4190 -0.5343  0.9968
11484TIP3   OH255866   5.300   0.926  15.402  0.3581  1.1257  0.1598
11484TIP3    H155867   5.347   1.008  15.417  0.9036  1.3493 -2.3354
11484TIP3    H255868   5.339   0.864  15.464 -0.0132  2.6894  2.0288
11485TIP3   OH255869   4.244   0.446   1.595 -0.2499 -0.2862  0.6422
11485TIP3    H155870   4.220   0.441   1.502 -1.7466  0.7725  0.9514
11485TIP3    H255871   4.176   0.396   1.640  0.3411 -0.5950  1.2064
11486TIP3   OH255872   1.509   0.298  13.765  0.6326  0.6491  0.5968
11486TIP3    H155873   1.446   0.367  13.781  1.9146  1.8919  0.4609
11486TIP3    H255874   1.546   0.318  13.679  0.5794 -0.5729  0.2618
11487TIP3   OH255875   3.005   6.494   2.887 -0.8223 -0.1345  0.8052
11487TIP3    H155876   3.058   6.557   2.935 -2.1849 -0.7475  3.3094
11487TIP3    H255877   2.915   6.510   2.918 -1.8930 -0.2999 -1.9472
11488TIP3   OH255878   6.231   6.217  14.086  0.1078  0.2953 -0.3817
11488TIP3    H155879   6.163   6.163  14.046  0.6693 -1.8151  1.3580
11488TIP3    H255880   6.237   6.294  14.029 -2.1216 -0.5224 -1.8362
11489TIP3   OH255881   6.685   3.776   2.042 -0.2938  0.3316  0.4331
11489TIP3    H155882   6.744   3.817   1.979  0.7886 -0.2489  1.0471
11489TIP3    H255883   6.664   3.691   2.004 -1.6684  0.9833 -0.3225
11490TIP3   OH255884   6.449   5.778   2.973 -0.3864 -0.2477  0.0250
11490TIP3    H155885   6.496   5.824   3.043  0.9202 -2.3185  0.6053
11490TIP3    H255886   6.361   5.763   3.008 -0.6805  1.2949  0.0110
11491TIP3   OH255887   6.294   0.843   2.543  0.7780  0.2810  0.3249
11491TIP3    H155888   6.291   0.825   2.637  0.4229  1.2059  0.5103
11491TIP3    H255889   6.288   0.758   2.501  1.9865 -0.2335  1.1532
11492TIP3   OH255890   2.713   6.227  14.996  0.2766 -0.2242  0.3087
11492TIP3    H155891   2.670   6.311  14.982  0.4393 -0.5197 -2.5287
11492TIP3    H255892   2.652   6.177  15.049 -2.6094 -0.2934 -2.7735
11493TIP3   OH255893   4.410   3.341   2.100 -0.6017  0.2752 -0.1332
11493TIP3    H155894   4.329   3.323   2.148  0.0053  0.2620  0.9159
11493TIP3    H255895   4.388   3.322   2.009 -1.8459  0.4941  0.0961
11494TIP3   OH255896   4.181   4.449   2.057 -0.4218  0.3854  0.3568
11494TIP3    H155897   4.275   4.431   2.065 -0.5625 -0.4007  0.3426
11494TIP3    H255898   4.145   4.369   2.020 -1.0621  0.7859  0.1042
11495TIP3   OH255899   0.595   2.905  11.373 -0.0593  0.1072  0.1053
11495TIP3    H155900   0.616   2.991  11.335  1.9586 -0.5974 -0.4871
11495TIP3    H255901   0.578   2.850  11.297  0.1539 -0.3780  0.4092
11496TIP3   OH255902   0.936   6.322   0.756 -0.3531  0.4638  0.1986
11496TIP3    H155903   0.925   6.228   0.747 -2.7848  0.6333  0.7598
11496TIP3    H255904   0.998   6.332   0.828  0.3371 -0.6845 -0.2094
11497TIP3   OH255905   4.976   0.745   3.744 -0.0408 -0.3482 -0.3727
11497TIP3    H155906   4.981   0.679   3.675 -2.8108 -1.5947  0.4865
11497TIP3    H255907   4.899   0.798   3.723  0.3635  0.6811  0.5850
11498TIP3   OH255908   2.541   4.157   0.749 -0.2055  0.0661 -0.1719
11498TIP3    H155909   2.459   4.131   0.790  0.7164 -2.3591  0.2852
11498TIP3    H255910   2.536   4.123   0.660  1.1545 -2.1585  0.5309
11499TIP3   OH255911   4.100   6.094   2.334  0.5483 -0.2522 -0.2632
11499TIP3    H155912   4.172   6.045   2.376  1.7555 -0.0293 -1.9689
11499TIP3    H255913   4.029   6.091   2.398  0.4830 -4.3223 -0.2536
11500TIP3   OH255914   3.684   3.384  16.031 -0.2061 -0.7740 -0.7510
11500TIP3    H155915   3.754   3.378  15.965  3.0141  0.9056  2.1548
11500TIP3    H255916   3.674   3.478  16.047 -2.2684 -1.0465 -0.1417
11501TIP3   OH255917   4.571   3.920  13.062  0.2527  0.4213 -0.1756
11501TIP3    H155918   4.634   3.962  13.121 -0.9627  0.6691  1.0094
11501TIP3    H255919   4.510   3.875  13.121 -0.1018 -0.6304 -1.3262
11502TIP3   OH255920   2.827   4.847   4.945 -0.1332 -0.4051  0.0743
11502TIP3    H155921   2.880   4.770   4.965 -0.3972 -0.5782  0.1141
11502TIP3    H255922   2.797   4.879   5.031 -0.1077 -0.3184  0.0514
11503TIP3   OH255923   6.698   0.497  13.743 -0.6966 -0.6286  0.1584
11503TIP3    H155924   6.690   0.407  13.777 -0.0497 -1.0399 -0.7314
11503TIP3    H255925   6.743   0.545  13.813 -0.2230 -1.2219  0.2667
11504TIP3   OH255926   1.931   5.773  11.683 -0.0397  0.1864  0.2472
11504TIP3    H155927   1.874   5.842  11.717 -0.3229 -0.0198  0.1941
11504TIP3    H255928   1.917   5.774  11.588  0.4801  0.5206  0.1677
11505TIP3   OH255929   3.539   4.619  11.555 -0.3604 -0.9738  0.2996
11505TIP3    H155930   3.481   4.695  11.566 -1.7968 -1.8697 -0.7678
11505TIP3    H255931   3.483   4.543  11.573  0.5883 -1.8449 -0.3209
11506TIP3   OH255932   0.089   6.007   0.799  0.0445  0.1062 -0.5135
11506TIP3    H155933   0.142   6.072   0.845  0.8627  0.4584 -1.8787
11506TIP3    H255934   0.048   6.057   0.728 -1.4473 -0.3468 -0.0030
11507TIP3   OH255935   2.039   5.695  12.754  0.0348 -0.4735 -0.2267
11507TIP3    H155936   1.983   5.705  12.831 -0.4894  1.0515 -0.7733
11507TIP3    H255937   2.083   5.780  12.744  0.0991 -0.6433 -1.5917
11508TIP3   OH255938   4.670   4.024   2.915 -0.2919  0.2708 -0.2292
11508TIP3    H155939   4.648   3.931   2.914 -1.7914  0.5607  1.3911
11508TIP3    H255940   4.764   4.026   2.932 -0.2195 -0.9434 -0.4386
11509TIP3   OH255941   6.517   2.336  11.498 -0.0620  0.3166  0.6762
11509TIP3    H155942   6.444   2.320  11.557 -0.2938 -0.5538  0.1703
11509TIP3    H255943   6.493   2.416  11.451 -1.1921 -0.5403 -0.2367
11510TIP3   OH255944   2.806   6.532  15.872  0.9354 -0.1407 -0.7105
11510TIP3    H155945   2.866   6.551  15.944  1.0358 -2.2841 -0.1749
11510TIP3    H255946   2.720   6.524  15.914  0.7621 -0.0633 -1.0435
11511TIP3   OH255947   6.331   2.805   1.709  0.4275  0.3855  0.5322
11511TIP3    H155948   6.350   2.748   1.635 -0.1320  2.4548 -1.3024
11511TIP3    H255949   6.415   2.818   1.753  0.9872  0.0067 -0.4165
11512TIP3   OH255950   0.139   5.837  17.081  0.2546  0.4266 -0.1253
11512TIP3    H155951   0.189   5.919  17.079  0.8501  0.1050 -3.1049
11512TIP3    H255952   0.198   5.774  17.123  1.7215  0.5113 -1.9130
11513TIP3   OH255953   5.578   2.365  11.066 -0.1972  0.5332 -0.3468
11513TIP3    H155954   5.590   2.293  11.005  0.2536  0.9888 -0.7977
11513TIP3    H255955   5.593   2.444  11.014 -2.0630  1.0268 -0.2028
11514TIP3   OH255956   5.045   3.070   1.440  0.2729 -0.7990  0.0878
11514TIP3    H155957   5.087   3.122   1.508 -0.5415 -0.9689  0.7544
11514TIP3    H255958   5.036   3.129   1.365 -0.3222 -0.0757  0.7084
11515TIP3   OH255959   6.235   3.132  10.897 -0.4948 -0.2672  0.3333
11515TIP3    H155960   6.145   3.125  10.864 -0.5089 -0.1566  0.3495
11515TIP3    H255961   6.290   3.115  10.821 -0.5258 -1.6278  0.5855
11516TIP3   OH255962   0.027   1.479  14.440  0.1817 -0.6771  0.1686
11516TIP3    H155963   0.035   1.574  14.452 -0.2702 -0.6230  0.0597
11516TIP3    H255964   0.092   1.442  14.501 -0.6837 -0.3429  1.3319
11517TIP3   OH255965   0.585   3.811   3.305  0.5540  0.3553  0.2515
11517TIP3    H155966   0.636   3.759   3.242  0.3811  0.3819  0.0887
11517TIP3    H255967   0.584   3.899   3.267  0.7920  0.4636  0.4947
11518TIP3   OH255968   6.807   4.872  15.517 -0.3666 -0.7207 -0.2488
11518TIP3    H155969   6.712   4.878  15.506 -0.5496 -1.8875  0.4933
11518TIP3    H255970   6.826   4.931  15.589 -0.0813  1.7875 -2.2495
11519TIP3   OH255971   6.154   1.404  11.955  0.0774 -0.0257 -0.0179
11519TIP3    H155972   6.215   1.476  11.959  2.3691 -1.8881  0.8233
11519TIP3    H255973   6.068   1.445  11.948  1.4226  2.7136 -2.6551
11520TIP3   OH255974   5.967   5.925   1.987  0.2798 -0.1346  0.2145
11520TIP3    H155975   6.049   5.917   1.939  0.4690 -0.2497  0.5599
11520TIP3    H255976   5.969   6.013   2.025  1.7728 -1.2633  3.0156
11521TIP3   OH255977   3.270   4.068  17.093 -0.6150  0.6744 -0.1940
11521TIP3    H155978   3.192   4.018  17.070  0.5033 -1.4442  0.4131
11521TIP3    H255979   3.241   4.160  17.089 -2.9208 -0.0032 -0.6532
11522TIP3   OH255980   5.099   0.629   4.224  0.3043  0.2831  0.0303
11522TIP3    H155981   5.176   0.574   4.238  1.0598  1.2031 -0.3532
11522TIP3    H255982   5.109   0.663   4.135 -1.2520 -0.6261 -0.5399
11523TIP3   OH255983   1.680   3.938  17.120 -0.1211  0.2613  0.1121
11523TIP3    H155984   1.643   3.850  17.130 -1.5237  0.8332  0.1491
11523TIP3    H255985   1.704   3.965  17.208 -2.6452  1.1231  0.6245
11524TIP3   OH255986   6.519   2.178   3.308 -0.1837  0.1109  0.2414
11524TIP3    H155987   6.520   2.153   3.215 -1.7189 -0.5232  0.3669
11524TIP3    H255988   6.574   2.256   3.312  2.2516 -1.4279 -0.7010
11525TIP3   OH255989   5.274   3.772   4.815  0.2704  0.4720 -0.3979
11525TIP3    H155990   5.200   3.833   4.813  0.2421  0.4470 -0.1020
11525TIP3    H255991   5.260   3.716   4.738  0.0060  0.4975 -0.3702
11526TIP3   OH255992   1.340   0.138   0.262 -0.3779  0.4571  0.0366
11526TIP3    H155993   1.399   0.134   0.337 -0.4252  1.3327  0.1262
11526TIP3    H255994   1.319   0.047   0.243  2.1559 -0.0236 -0.9107
11527TIP3   OH255995   4.730   2.219   2.603 -0.4289  0.5658 -0.1364
11527TIP3    H155996   4.666   2.288   2.583  0.1441  0.8141 -1.1428
11527TIP3    H255997   4.815   2.264   2.601 -0.2308  0.3334  1.6383
11528TIP3   OH255998   2.811   0.908   0.216 -0.0638  0.2900  0.0303
11528TIP3    H155999   2.885   0.943   0.167 -1.0396  0.7133 -1.2110
11528TIP3    H256000   2.776   0.983   0.264 -0.2956  0.3430 -0.2125
11529TIP3   OH256001   0.732   1.367   1.120  0.2865  1.0718 -0.4325
11529TIP3    H156002   0.737   1.288   1.066 -1.6464  1.1305 -0.7723
11529TIP3    H256003   0.638   1.386   1.126  0.3023  0.7989  3.3315
11530TIP3   OH256004   0.546   1.511  16.716  0.3709 -0.3792  0.2500
11530TIP3    H156005   0.635   1.482  16.736  0.3745 -1.3639 -1.0526
11530TIP3    H256006   0.539   1.504  16.621 -0.1159  2.6230 -0.0319
11531TIP3   OH256007   1.700   3.087   0.212 -0.2083  0.6724 -0.0878
11531TIP3    H156008   1.622   3.062   0.164 -0.0944 -0.3326  0.2334
11531TIP3    H256009   1.671   3.159   0.269 -0.5358  1.3066 -1.0257
11532TIP3   OH256010   2.775   3.992   0.698 -0.0767 -0.4720  0.6019
11532TIP3    H156011   2.701   3.990   0.758  0.8681  1.6300  1.9516
11532TIP3    H256012   2.839   3.932   0.735  0.0663 -0.0004  1.1359
11533TIP3   OH256013   0.125   2.537  13.174  0.4891 -0.0201  0.4378
11533TIP3    H156014   0.161   2.612  13.126  0.0619  0.7621  1.2995
11533TIP3    H256015   0.033   2.534  13.148  0.7882 -1.0260 -0.5411
11534TIP3   OH256016   0.866   3.156  14.170 -0.0075  0.0258  0.5304
11534TIP3    H156017   0.915   3.215  14.113  1.7119 -1.0768  0.8052
11534TIP3    H256018   0.814   3.103  14.109  1.0310 -0.4495  0.0259
11535TIP3   OH256019   6.336   3.856   2.730  0.1494 -0.3909  0.4349
11535TIP3    H156020   6.404   3.892   2.672 -0.2086  0.9353  0.8102
11535TIP3    H256021   6.269   3.824   2.670  0.1857  0.1576  0.0931
11536TIP3   OH256022   4.228   1.565  14.573 -0.1116 -0.2060  0.1426
11536TIP3    H156023   4.141   1.527  14.564  0.4292 -1.1824 -1.4000
11536TIP3    H256024   4.214   1.646  14.623 -2.0865  0.3315 -1.1733
11537TIP3   OH256025   4.599   4.873  16.540 -0.3776  0.0857 -0.6502
11537TIP3    H156026   4.675   4.859  16.596 -1.0546 -1.2779 -0.0225
11537TIP3    H256027   4.636   4.894  16.454  0.6788  1.9496  0.2030
11538TIP3   OH256028   0.391   6.416  13.605  0.3305  0.4569  0.3116
11538TIP3    H156029   0.453   6.349  13.575  1.7101  1.1015  1.6005
11538TIP3    H256030   0.313   6.366  13.628  0.2947 -0.3775 -1.4042
11539TIP3   OH256031   5.685   4.191   2.510  0.3019 -0.3821 -0.2422
11539TIP3    H156032   5.719   4.239   2.585  1.1673 -0.1606 -0.7643
11539TIP3    H256033   5.700   4.249   2.435  0.1511 -0.9101 -0.6875
11540TIP3   OH256034   1.516   2.506  14.910  0.4492  0.3162 -0.0952
11540TIP3    H156035   1.500   2.411  14.909 -0.7415  0.4837  0.6586
11540TIP3    H256036   1.600   2.517  14.867  0.0794 -0.9999 -1.2354
11541TIP3   OH256037   3.310   0.454   2.331 -0.2274  0.8739 -0.0088
11541TIP3    H156038   3.352   0.470   2.247 -0.6776 -1.4608 -0.7664
11541TIP3    H256039   3.290   0.541   2.365  1.4158  1.9200 -1.5436
11542TIP3   OH256040   0.993   2.654  13.768 -0.5208  0.0874  0.2400
11542TIP3    H156041   1.021   2.596  13.839  1.3394  1.0434  0.3479
11542TIP3    H256042   1.017   2.742  13.799 -2.5445  0.8646 -0.2536
11543TIP3   OH256043   1.627   1.564   3.312  0.8051  0.7042 -0.2075
11543TIP3    H156044   1.640   1.623   3.387  0.8204 -0.3663  0.6575
11543TIP3    H256045   1.696   1.499   3.321  0.8177  0.5639 -1.1801
11544TIP3   OH256046   3.660   4.668  15.217 -0.0638 -0.7439 -0.1733
11544TIP3    H156047   3.657   4.583  15.260 -0.6547 -0.5139  0.2507
11544TIP3    H256048   3.580   4.712  15.244  0.6556  0.2957  0.3477
11545TIP3   OH256049   6.255   3.134   5.483  0.3250  0.2750 -0.0739
11545TIP3    H156050   6.252   3.227   5.506  0.3841  0.2968 -0.1549
11545TIP3    H256051   6.340   3.122   5.443  0.3666  0.1590  0.0466
11546TIP3   OH256052   4.970   0.222   6.369 -0.4126  0.2848 -0.0843
11546TIP3    H156053   5.061   0.210   6.396 -1.2047 -2.5461  1.6986
11546TIP3    H256054   4.960   0.166   6.293 -0.6882  0.6029 -0.2846
11547TIP3   OH256055   6.367   5.657   1.052 -0.2493 -0.5657 -0.0556
11547TIP3    H156056   6.449   5.609   1.053  0.0801 -0.0152  1.2207
11547TIP3    H256057   6.316   5.616   0.982  1.0721 -0.9545 -0.8306
11548TIP3   OH256058   0.690   5.620  14.157 -0.1736 -0.2832 -0.1910
11548TIP3    H156059   0.729   5.707  14.167 -3.9953  2.1245 -3.2298
11548TIP3    H256060   0.648   5.603  14.241 -0.2657  1.4271  0.1514
11549TIP3   OH256061   3.354   3.584  10.504 -0.2442  0.6425 -0.3112
11549TIP3    H156062   3.441   3.622  10.510 -0.2998  0.7739 -0.3294
11549TIP3    H256063   3.318   3.590  10.593  0.4038 -0.9605  0.1005
11550TIP3   OH256064   0.166   0.306  16.164 -0.6678  0.1989 -0.0324
11550TIP3    H156065   0.145   0.306  16.257  1.6274  1.3858  0.5663
11550TIP3    H256066   0.209   0.390  16.149 -1.7190  0.3997 -2.3814
11551TIP3   OH256067   6.414   1.146   3.568 -0.1587 -0.2247  0.2128
11551TIP3    H156068   6.321   1.135   3.550  0.3940 -0.6363 -3.0865
11551TIP3    H256069   6.448   1.057   3.572  0.5042 -0.1256 -1.8331
11552TIP3   OH256070   4.164   6.453  13.810 -0.2203  0.0632 -0.2583
11552TIP3    H156071   4.259   6.465  13.810 -0.0974 -0.6760  1.4331
11552TIP3    H256072   4.130   6.535  13.846 -0.1923  0.0919 -0.2964
11553TIP3   OH256073   1.635   5.398   5.905 -0.3735  0.1075 -0.6360
11553TIP3    H156074   1.664   5.422   5.993  0.0878  0.8965 -0.9968
11553TIP3    H256075   1.539   5.402   5.909 -0.3584 -0.0039 -0.1348
11554TIP3   OH256076   3.974   0.473  15.488 -0.0133  0.1524  0.3482
11554TIP3    H156077   3.930   0.558  15.480 -0.7621 -0.3498 -1.3738
11554TIP3    H256078   3.904   0.412  15.508  0.5177 -0.0914  1.5204
11555TIP3   OH256079   0.112   4.861   2.652 -0.0527 -0.4226  0.1544
11555TIP3    H156080   0.090   4.952   2.632  2.4126  0.0574 -0.6234
11555TIP3    H256081   0.040   4.811   2.615 -1.4405  1.1769  0.5494
11556TIP3   OH256082   5.182   5.182  15.144 -0.2055 -0.3990 -0.4477
11556TIP3    H156083   5.154   5.249  15.207 -0.4899 -2.9697  2.3875
11556TIP3    H256084   5.255   5.138  15.187  0.4560 -1.4986 -2.5440
11557TIP3   OH256085   3.250   4.670   3.088 -0.3184  0.1184 -0.1636
11557TIP3    H156086   3.228   4.646   2.998 -2.0208 -1.0368  0.5139
11557TIP3    H256087   3.308   4.600   3.118 -1.9647 -1.0329  0.4782
11558TIP3   OH256088   0.949   3.482  16.069 -0.4998  0.5635 -0.2307
11558TIP3    H156089   0.931   3.408  16.128 -0.8615 -0.8099 -1.9551
11558TIP3    H256090   1.030   3.519  16.102 -0.2043 -0.7219  0.5980
11559TIP3   OH256091   2.192   1.550   0.496  0.0190 -0.0726 -0.2060
11559TIP3    H156092   2.125   1.540   0.428 -0.1916  0.1229 -0.0265
11559TIP3    H256093   2.175   1.478   0.556 -0.8470  0.7216  0.5310
11560TIP3   OH256094   1.350   6.311   1.018  0.1130  0.2406  0.4573
11560TIP3    H156095   1.432   6.358   1.034  0.5736 -0.6803  0.9060
11560TIP3    H256096   1.364   6.224   1.057 -0.9151 -0.0811  0.1517
11561TIP3   OH256097   0.121   4.080  11.641  0.3174 -0.0803 -0.1852
11561TIP3    H156098   0.097   4.008  11.583 -0.5316  0.0031  0.0386
11561TIP3    H256099   0.174   4.040  11.709 -0.1749 -0.5115 -0.0446
11562TIP3   OH256100   4.783   2.430  16.319 -0.2853  0.5162 -0.6742
11562TIP3    H156101   4.756   2.513  16.360 -2.1183 -0.7876  0.9555
11562TIP3    H256102   4.701   2.383  16.304  0.7632 -1.6547 -0.0601
11563TIP3   OH256103   2.597   2.657  12.106  0.1309 -0.2283  0.0453
11563TIP3    H156104   2.594   2.727  12.041 -2.2383 -0.0565  0.2428
11563TIP3    H256105   2.663   2.685  12.170  3.1164 -0.7628 -2.5608
11564TIP3   OH256106   3.140   5.650  13.940 -0.3612  0.7092 -0.0841
11564TIP3    H156107   3.156   5.559  13.964 -0.6500  0.6009 -0.2933
11564TIP3    H256108   3.179   5.701  14.010 -1.3403  0.3979  0.7180
11565TIP3   OH256109   0.017   0.512  15.850  1.0786  0.4134  0.2124
11565TIP3    H156110  -0.052   0.540  15.791  1.7018 -0.7456 -1.1329
11565TIP3    H256111   0.023   0.582  15.915 -1.2573  0.5850  0.3282
11566TIP3   OH256112   0.155   4.773  12.956 -0.1438 -0.4884  0.5739
11566TIP3    H156113   0.158   4.852  13.008  1.4870 -1.3003  1.7763
11566TIP3    H256114   0.062   4.764  12.932 -0.5548  1.0847  1.4408
11567TIP3   OH256115   5.987   1.630  16.270 -0.4998 -0.3811  0.4346
11567TIP3    H156116   6.022   1.670  16.191 -2.2530  0.1233 -0.1389
11567TIP3    H256117   5.931   1.698  16.308 -0.8673 -1.1341  1.2738
11568TIP3   OH256118   5.961   1.159  16.144 -0.1102 -0.2089 -0.3901
11568TIP3    H156119   6.047   1.129  16.116  0.7673  0.6570  1.2325
11568TIP3    H256120   5.973   1.251  16.168 -1.8741  0.4052 -1.6533
11569TIP3   OH256121   1.788   3.818   4.981  0.6362  0.7022 -0.0292
11569TIP3    H156122   1.743   3.757   5.040  2.3871 -0.8440 -0.1788
11569TIP3    H256123   1.727   3.832   4.909  0.0776 -0.7425  0.1329
11570TIP3   OH256124   2.269   1.763   0.638 -0.3749 -0.0173  0.1656
11570TIP3    H156125   2.260   1.716   0.555  2.0276 -0.1150 -0.1113
11570TIP3    H256126   2.352   1.810   0.629 -1.0322  1.5435  1.7784
11571TIP3   OH256127   5.034   6.727  13.925  0.0935 -0.0630  0.0868
11571TIP3    H156128   5.051   6.661  13.857 -0.8677 -0.6334  0.3660
11571TIP3    H256129   5.035   6.677  14.007  1.2095  0.6112  0.5018
11572TIP3   OH256130   4.022   3.602  12.926  0.3241  0.1012  0.5810
11572TIP3    H156131   3.958   3.535  12.948 -0.2511  0.9001  1.4155
11572TIP3    H256132   4.098   3.581  12.981  0.1290  0.1451  0.8725
11573TIP3   OH256133   0.107   2.988  14.537 -0.5542 -0.1187 -0.1754
11573TIP3    H156134   0.155   3.060  14.579  0.3773  0.1884 -1.7126
11573TIP3    H256135   0.016   3.002  14.562 -0.0818  0.1739  1.5428
11574TIP3   OH256136   6.415   2.002   3.047 -0.3074  0.4229 -0.7701
11574TIP3    H156137   6.477   1.980   2.976 -1.3131  0.1841 -1.6007
11574TIP3    H256138   6.456   1.966   3.126  1.6802  2.1742 -0.9018
11575TIP3   OH256139   6.352   4.032   5.246 -0.2810  0.1232  0.2620
11575TIP3    H156140   6.408   3.957   5.226 -0.7693  0.1476 -1.3279
11575TIP3    H256141   6.273   4.017   5.194 -0.7892  1.2526  0.6761
11576TIP3   OH256142   4.395   1.204   2.779 -0.4318  0.0145  0.3380
11576TIP3    H156143   4.320   1.259   2.757 -0.8060  0.0985  1.7300
11576TIP3    H256144   4.420   1.230   2.867 -0.7112 -2.1083  1.1138
11577TIP3   OH256145   6.328   4.028   5.515 -0.1206  0.2396 -0.0344
11577TIP3    H156146   6.312   4.120   5.537  1.3265  0.7438 -0.9781
11577TIP3    H256147   6.342   4.028   5.420  2.1162 -0.6051  0.2411
11578TIP3   OH256148   4.052   6.512  10.722  0.4601  0.4021 -0.2142
11578TIP3    H156149   3.986   6.463  10.672  1.7645  0.6916 -2.3700
11578TIP3    H256150   4.049   6.474  10.810 -1.4434 -0.6778 -0.6867
11579TIP3   OH256151   1.328   2.435   2.678 -0.1084  0.6921 -0.2261
11579TIP3    H156152   1.422   2.440   2.660 -0.3459  1.8963 -1.1882
11579TIP3    H256153   1.286   2.450   2.593 -1.1787 -1.0009 -0.0454
11580TIP3   OH256154   6.048   3.072  13.245  0.1400  0.3524 -0.4795
11580TIP3    H156155   6.019   3.162  13.263  3.5076  1.2693  1.1172
11580TIP3    H256156   6.143   3.077  13.245  0.4539 -3.1931 -0.6957
11581TIP3   OH256157   5.197   0.140  15.379  0.2017  0.7684 -0.0791
11581TIP3    H156158   5.275   0.097  15.414  0.0399 -0.1645 -0.8418
11581TIP3    H256159   5.187   0.218  15.434 -0.1421 -0.7053  2.0945
11582TIP3   OH256160   1.464   4.765  13.725  0.3969  0.0005  0.1996
11582TIP3    H156161   1.489   4.840  13.672 -0.4822  0.6623  0.7119
11582TIP3    H256162   1.403   4.715  13.670  1.6257 -0.8284 -0.4749
11583TIP3   OH256163   4.602   5.091  11.488  0.0219 -0.4956 -0.0100
11583TIP3    H156164   4.675   5.045  11.528 -0.6678 -0.6342  1.1264
11583TIP3    H256165   4.637   5.124  11.405  1.0450 -1.4824  0.0064
11584TIP3   OH256166   1.891   0.487   1.141  0.5763 -0.2834 -0.3690
11584TIP3    H156167   1.957   0.479   1.073  0.8717 -1.1351  0.0029
11584TIP3    H256168   1.829   0.552   1.107  0.7202 -0.6841 -1.4368
11585TIP3   OH256169   1.958   5.665   4.851  0.4936 -0.5234  0.3667
11585TIP3    H156170   2.017   5.718   4.904  1.5498 -2.2104  0.9652
11585TIP3    H256171   1.999   5.578   4.849 -1.6834 -1.6172  0.3129
11586TIP3   OH256172   0.433   1.919   2.003  0.9429 -0.5291 -0.5841
11586TIP3    H156173   0.400   1.945   1.917  1.4186  0.1631 -0.5611
11586TIP3    H256174   0.467   2.000   2.041 -1.3275 -0.3221  1.2009
11587TIP3   OH256175   0.412   1.714   3.933 -0.2127  0.8129  0.2551
11587TIP3    H156176   0.486   1.665   3.895  0.0594  2.0015 -0.8199
11587TIP3    H256177   0.337   1.655   3.922  0.3353  0.0939  0.2311
11588TIP3   OH256178   1.428   1.373  17.139 -0.2873  0.4390  0.3248
11588TIP3    H156179   1.521   1.358  17.122 -0.8211 -0.5213 -2.0640
11588TIP3    H256180   1.428   1.435  17.212  2.1879 -0.4651  1.2255
11589TIP3   OH256181   5.235   3.011   5.017  0.6181 -0.0998 -0.4939
11589TIP3    H156182   5.300   2.995   4.948  0.6134 -0.7933 -0.3421
11589TIP3    H256183   5.228   2.928   5.063  1.2401  0.5901  0.8879
11590TIP3   OH256184   4.579   2.885   1.992 -0.3163 -0.8156 -0.1422
11590TIP3    H156185   4.622   2.810   1.950  2.2370 -0.6006  1.8716
11590TIP3    H256186   4.633   2.960   1.969 -2.0046  0.2426 -0.8961
11591TIP3   OH256187   5.871   4.351  12.038  0.1038  0.0322  0.1035
11591TIP3    H156188   5.895   4.267  12.001  3.1998  1.1556 -0.7797
11591TIP3    H256189   5.834   4.330  12.124 -0.7741 -2.2420 -0.7628
11592TIP3   OH256190   5.777   2.341  15.087  0.9546 -0.1433 -0.1679
11592TIP3    H156191   5.703   2.343  15.027  0.7471 -0.2900  0.0805
11592TIP3    H256192   5.852   2.317  15.033  0.1905 -4.0864  0.2105
11593TIP3   OH256193   2.972   3.810   3.379  0.4324 -0.2840 -0.4423
11593TIP3    H156194   2.934   3.780   3.461  1.5524  0.3194  0.3178
11593TIP3    H256195   2.899   3.853   3.334  0.2456  1.1299  1.1197
11594TIP3   OH256196   6.170   1.562  12.925 -0.0849 -0.1127 -0.6061
11594TIP3    H156197   6.223   1.504  12.871  0.4970  0.0672 -0.2371
11594TIP3    H256198   6.146   1.509  13.001 -0.6323 -0.2654 -0.8819
11595TIP3   OH256199   4.923   2.794   3.720 -0.3589  0.3146 -0.0359
11595TIP3    H156200   4.837   2.805   3.761 -0.4938 -0.7751  0.0057
11595TIP3    H256201   4.945   2.702   3.734  0.9359  0.6290  0.1784
11596TIP3   OH256202   2.837   4.861  10.831 -0.0056 -0.0331  0.0197
11596TIP3    H156203   2.880   4.817  10.757 -0.3349 -0.0030 -0.1927
11596TIP3    H256204   2.796   4.938  10.792 -0.7143 -0.3484  0.1136
11597TIP3   OH256205   2.600   4.651   2.472  0.0776 -0.3211  0.2945
11597TIP3    H156206   2.689   4.684   2.471 -0.4098  1.0816 -1.3021
11597TIP3    H256207   2.608   4.560   2.499  2.0761 -0.4277 -0.5274
11598TIP3   OH256208   3.018   5.077   0.597  0.3220 -0.1915 -0.7155
11598TIP3    H156209   3.076   5.135   0.647  0.4871 -0.4113 -0.6475
11598TIP3    H256210   3.076   5.034   0.534  0.0679  0.2859 -1.2871
11599TIP3   OH256211   3.712   4.775   2.015  0.0628  0.0371  0.0925
11599TIP3    H156212   3.686   4.858   2.055  0.3087  0.9367 -1.5104
11599TIP3    H256213   3.739   4.720   2.088  2.5157  2.2967  1.0501
11600TIP3   OH256214   6.068   4.037  11.024 -0.2022  0.1507  0.9147
11600TIP3    H156215   6.033   3.957  11.063 -1.7475  1.3467  2.1037
11600TIP3    H256216   6.007   4.057  10.952  0.8876 -0.3698 -0.2003
11601TIP3   OH256217   5.720   6.311   4.198 -0.3750  0.5058 -0.6558
11601TIP3    H156218   5.795   6.266   4.237 -0.2259  1.3621  0.0979
11601TIP3    H256219   5.722   6.286   4.106  1.1270  0.8725 -0.7464
11602TIP3   OH256220   2.504   2.380  15.237  0.6835  0.3361 -0.3698
11602TIP3    H156221   2.409   2.370  15.249  0.4856  2.2034 -0.0276
11602TIP3    H256222   2.532   2.299  15.195 -1.0702 -0.2442 -0.4904
11603TIP3   OH256223   0.883   6.698  16.425 -0.0998 -0.5853  0.0855
11603TIP3    H156224   0.963   6.721  16.471 -0.2697 -0.9208  0.5510
11603TIP3    H256225   0.906   6.706  16.332 -0.1270  1.3608  0.2052
11604TIP3   OH256226   5.266   0.365  10.934 -0.2595 -0.3636  0.6830
11604TIP3    H156227   5.240   0.274  10.919 -1.3616 -0.0113  0.3214
11604TIP3    H256228   5.356   0.370  10.900 -0.2772 -1.2538  0.4711
11605TIP3   OH256229   1.091   6.703  15.674 -0.3702 -0.0726 -0.1424
11605TIP3    H156230   1.116   6.652  15.596  1.9933  0.0797  0.4607
11605TIP3    H256231   1.079   6.792  15.642  0.6643  0.0032 -0.3480
11606TIP3   OH256232   3.794   4.086   6.101  0.3853  0.2886  0.3226
11606TIP3    H156233   3.812   4.020   6.168  1.0858  0.3324  0.1913
11606TIP3    H256234   3.712   4.057   6.061 -0.5303  0.7561  1.7780
11607TIP3   OH256235   6.520   1.766  11.665 -0.4647 -0.3602 -0.0822
11607TIP3    H156236   6.587   1.834  11.663 -2.3058  1.5803  0.4405
11607TIP3    H256237   6.564   1.690  11.702  1.4466  0.8066  0.1699
11608TIP3   OH256238   1.641   2.074   2.379 -0.1740 -0.2989 -0.0314
11608TIP3    H156239   1.635   2.020   2.300 -1.5582  1.0891 -0.9187
11608TIP3    H256240   1.628   2.012   2.451  0.5229 -1.4915 -0.8982
11609TIP3   OH256241   4.634   2.005   2.441 -0.8523 -0.0407  0.1556
11609TIP3    H156242   4.625   2.057   2.521  0.1661  0.2314  0.1052
11609TIP3    H256243   4.650   2.068   2.372  1.9401 -0.4020  0.3267
11610TIP3   OH256244   2.564   0.266  13.430  0.6039 -0.5061  0.0374
11610TIP3    H156245   2.572   0.268  13.525  0.1096 -1.6447  0.1172
11610TIP3    H256246   2.531   0.179  13.410 -0.2357  0.0351 -1.1061
11611TIP3   OH256247   0.803   0.595  12.136 -0.7786  0.4090 -0.0176
11611TIP3    H156248   0.776   0.683  12.160 -1.0650 -0.1248  1.8211
11611TIP3    H256249   0.809   0.549  12.220  3.5835 -0.1724 -0.4331
11612TIP3   OH256250   5.241   6.795  16.294  0.0438 -0.0729  0.2303
11612TIP3    H156251   5.327   6.757  16.313  0.4027  0.0909 -0.9665
11612TIP3    H256252   5.179   6.736  16.337  0.7268 -0.4402  0.7421
11613TIP3   OH256253   5.962   4.173  16.655 -0.6796  0.4046 -0.2216
11613TIP3    H156254   5.985   4.237  16.723  2.4735  0.2329 -0.9536
11613TIP3    H256255   5.963   4.088  16.700 -1.2004  0.5297  0.0274
11614TIP3   OH256256   0.050   0.429  13.370  0.0572  0.2405  0.1054
11614TIP3    H156257  -0.021   0.474  13.417  0.0898  0.5983 -0.1824
11614TIP3    H256258   0.125   0.488  13.377  0.5455 -0.4716  1.0391
11615TIP3   OH256259   1.247   4.530  12.799  0.4739 -0.2236  0.3435
11615TIP3    H156260   1.259   4.475  12.877  0.0231 -0.2389  0.4099
11615TIP3    H256261   1.262   4.619  12.830  0.4227 -0.2414  0.4206
11616TIP3   OH256262   4.884   5.599   4.134  0.8407  0.1720 -0.1199
11616TIP3    H156263   4.864   5.508   4.112  1.3392 -0.2034  0.9163
11616TIP3    H256264   4.815   5.625   4.195  2.0992 -0.3758  1.6231
11617TIP3   OH256265   4.538   4.812  11.272  0.5196  0.0290  0.2085
11617TIP3    H156266   4.483   4.739  11.298 -0.3181  0.8339  0.7325
11617TIP3    H256267   4.616   4.804  11.327  0.8689 -1.0022 -0.4012
11618TIP3   OH256268   3.308   3.487   4.240  0.0365  0.3908 -0.0705
11618TIP3    H156269   3.226   3.439   4.228  0.7688 -1.5921  2.0611
11618TIP3    H256270   3.362   3.460   4.166 -0.8047  0.7799 -0.8417
11619TIP3   OH256271   1.759   2.260  15.366  0.1704  0.3052  0.0205
11619TIP3    H156272   1.768   2.355  15.354  2.3329  0.9081  4.4868
11619TIP3    H256273   1.671   2.248  15.403  0.5175  0.8448  1.0490
11620TIP3   OH256274   1.502   5.122   3.710 -0.1864  0.2058  0.2042
11620TIP3    H156275   1.441   5.106   3.638 -0.3590  2.4444 -0.2169
11620TIP3    H256276   1.569   5.179   3.672  0.6978 -0.0242  1.3677
11621TIP3   OH256277   4.998   1.308   5.166 -0.1258  0.5288 -0.2854
11621TIP3    H156278   4.919   1.356   5.140  0.3060 -0.2154 -3.4822
11621TIP3    H256279   5.052   1.307   5.087  2.3330 -0.4867  1.2889
11622TIP3   OH256280   0.257   1.497   4.734  0.4391  0.0722 -0.1519
11622TIP3    H156281   0.237   1.485   4.641 -0.6468  1.5585 -0.1428
11622TIP3    H256282   0.270   1.591   4.744 -0.0033 -0.0022  1.3092
11623TIP3   OH256283   1.646   0.930  16.197 -0.1076 -0.2582 -0.1597
11623TIP3    H156284   1.666   0.848  16.150  1.0838 -1.5756  2.4510
11623TIP3    H256285   1.629   0.903  16.287 -1.9196  2.1960  0.3312
11624TIP3   OH256286   6.096   4.893  12.111 -0.2102 -0.0816 -0.5792
11624TIP3    H156287   6.187   4.912  12.090 -0.4567  0.1178 -1.4805
11624TIP3    H256288   6.045   4.951  12.054 -0.9879 -3.0004 -3.0791
11625TIP3   OH256289   4.723   6.176  16.044 -0.2196  0.4881 -0.1272
11625TIP3    H156290   4.812   6.204  16.068 -0.1149  0.7451 -0.8124
11625TIP3    H256291   4.716   6.195  15.951 -0.5037 -0.8418 -0.3911
11626TIP3   OH256292   3.192   6.556  15.235  0.2129 -0.2095 -0.8040
11626TIP3    H156293   3.212   6.581  15.325 -0.2854 -1.7429 -0.2296
11626TIP3    H256294   3.160   6.637  15.195  2.9790  1.1766 -0.4419
11627TIP3   OH256295   4.718   2.975  13.392  0.6477 -0.6531  0.1274
11627TIP3    H156296   4.668   2.998  13.471 -0.5508  0.1729 -0.8413
11627TIP3    H256297   4.801   2.941  13.426  1.0382  1.6514  1.7484
11628TIP3   OH256298   3.527   3.083  11.372 -0.3911  0.0438  0.4292
11628TIP3    H156299   3.536   3.137  11.294 -0.3869  1.5535  1.4215
11628TIP3    H256300   3.452   3.122  11.419  0.6680  0.2890  2.0037
11629TIP3   OH256301   1.020   0.168   0.205 -0.8761 -0.3645 -0.0653
11629TIP3    H156302   0.964   0.184   0.129  0.4465  0.6229 -0.8805
11629TIP3    H256303   1.098   0.126   0.168 -0.2608  0.0158  0.7717
11630TIP3   OH256304   1.708   4.096   5.519 -0.1610 -0.2420  0.3180
11630TIP3    H156305   1.696   4.019   5.463 -1.4664 -0.2751  0.6132
11630TIP3    H256306   1.760   4.157   5.466 -0.0325 -0.8895 -0.3181
11631TIP3   OH256307   3.732   3.039   4.296 -0.4691  0.9099  0.0715
11631TIP3    H156308   3.681   3.056   4.375 -2.1636 -0.9297 -0.5596
11631TIP3    H256309   3.668   3.007   4.232  1.2016  0.2685 -1.3632
11632TIP3   OH256310   4.475   6.412  13.096  0.4604 -0.3641 -0.1027
11632TIP3    H156311   4.449   6.470  13.168  2.8414  0.4278  0.2098
11632TIP3    H256312   4.480   6.469  13.020  0.9717 -0.5576 -0.2133
11633TIP3   OH256313   6.215   5.141  10.909 -0.1909 -0.1513  0.0705
11633TIP3    H156314   6.223   5.086  10.832  3.6577  1.0753 -0.6279
11633TIP3    H256315   6.303   5.178  10.922 -1.2442  1.6378  3.6066
11634TIP3   OH256316   4.775   1.857  12.878 -0.0596  0.1300 -0.0937
11634TIP3    H156317   4.721   1.911  12.936 -1.4779 -0.5757 -0.7121
11634TIP3    H256318   4.713   1.810  12.823  1.2298  0.2130 -1.7145
11635TIP3   OH256319   4.742   4.237  16.791 -0.0289  0.6385 -1.1398
11635TIP3    H156320   4.814   4.174  16.779 -0.3157  0.3635 -1.4498
11635TIP3    H256321   4.666   4.193  16.752 -0.6929  0.3192  0.4511
11636TIP3   OH256322   5.029   1.202   0.810  0.0362 -0.2867 -0.0264
11636TIP3    H156323   4.945   1.247   0.815  0.6736  0.8045  1.4966
11636TIP3    H256324   5.071   1.239   0.732  0.2116  1.2178  0.7463
11637TIP3   OH256325   6.794   6.130   3.970  0.4482 -0.0116  0.3191
11637TIP3    H156326   6.825   6.138   3.880  0.4044 -1.6974  0.1176
11637TIP3    H256327   6.790   6.036   3.986  1.2798  0.2447  2.3781
11638TIP3   OH256328   1.637   6.042  14.132  0.3782 -0.2685  0.0195
11638TIP3    H156329   1.560   6.059  14.077  1.5208 -0.2609 -1.6287
11638TIP3    H256330   1.632   6.110  14.200 -0.4540  0.4454 -0.7222
11639TIP3   OH256331   1.060   5.393   2.748 -0.0196 -0.1965  0.2720
11639TIP3    H156332   1.124   5.342   2.797 -0.5761 -2.5453 -1.2666
11639TIP3    H256333   0.980   5.388   2.801  0.6391  1.6180  1.5362
11640TIP3   OH256334   2.229   3.798   1.176 -0.2436 -0.6049  0.2522
11640TIP3    H156335   2.325   3.799   1.174 -0.2266 -1.2049 -1.6331
11640TIP3    H256336   2.205   3.878   1.222  1.1597 -0.7463  1.2810
11641TIP3   OH256337   4.707   3.066   3.650  0.2338  0.3248 -0.0846
11641TIP3    H156338   4.702   2.991   3.709 -1.2832  1.3256  1.1109
11641TIP3    H256339   4.688   3.029   3.563  0.2763 -0.7831  0.3545
11642TIP3   OH256340   5.860   4.125  14.612  0.4483 -0.5554  0.0951
11642TIP3    H156341   5.805   4.180  14.669 -0.7627 -0.4744 -1.0966
11642TIP3    H256342   5.804   4.105  14.537  1.9839 -0.6610 -1.0827
11643TIP3   OH256343   5.146   6.671  13.109 -0.2735 -0.4274  0.1029
11643TIP3    H156344   5.135   6.642  13.019 -1.8946 -0.4129  0.2735
11643TIP3    H256345   5.152   6.766  13.104 -1.5755 -0.3337  0.0951
11644TIP3   OH256346   0.929   6.045   2.862  0.6182  0.2833  0.4229
11644TIP3    H156347   0.866   6.062   2.792  0.7397  3.0392  0.8590
11644TIP3    H256348   1.008   6.017   2.816  0.2871  0.7506 -0.4532
11645TIP3   OH256349   4.781   6.487  15.844 -0.2543 -0.1822 -0.1089
11645TIP3    H156350   4.863   6.457  15.882 -0.2699 -0.8783 -0.5925
11645TIP3    H256351   4.781   6.582  15.857 -0.0442 -0.3384  1.1701
11646TIP3   OH256352   1.924   0.635   3.483 -0.2307 -0.4003 -0.6772
11646TIP3    H156353   1.863   0.563   3.464  0.7052 -0.8678 -2.0689
11646TIP3    H256354   2.009   0.592   3.493  0.2585  0.4723 -1.0509
11647TIP3   OH256355   0.591   4.795  11.547  0.9220 -0.0704 -0.2635
11647TIP3    H156356   0.650   4.866  11.522 -0.1042  1.0483  0.3982
11647TIP3    H256357   0.539   4.778  11.469  0.4984  0.5817 -0.1192
11648TIP3   OH256358   2.997   4.747   0.457  0.0968  0.1073  0.9270
11648TIP3    H156359   3.057   4.683   0.420  1.3644  0.8823  1.5745
11648TIP3    H256360   3.043   4.831   0.450 -1.5921  1.0120 -0.0854
11649TIP3   OH256361   3.970   2.238  11.370  0.2121 -0.2627  0.0750
11649TIP3    H156362   3.939   2.246  11.280 -0.0219 -0.7016  0.1132
11649TIP3    H256363   4.055   2.195  11.362  0.2111 -0.2617  0.0603
11650TIP3   OH256364   1.315   3.305   6.215  0.2063 -0.5966  0.3630
11650TIP3    H156365   1.308   3.355   6.133 -0.1059 -1.1605  0.0426
11650TIP3    H256366   1.274   3.221   6.195 -1.8731  0.0127  1.7338
11651TIP3   OH256367   6.287   5.671   5.370 -1.0641  0.3435 -0.2979
11651TIP3    H156368   6.247   5.661   5.457 -1.2120 -0.3027 -0.4320
11651TIP3    H256369   6.286   5.582   5.334 -0.1367  0.4473 -0.5842
11652TIP3   OH256370   5.494   1.442   0.859 -0.0097 -0.2338  0.2906
11652TIP3    H156371   5.574   1.390   0.849 -0.9183 -1.5353 -0.6841
11652TIP3    H256372   5.442   1.394   0.923 -0.6543 -0.2830 -0.2529
11653TIP3   OH256373   2.105   3.671   0.975 -0.0983 -0.9802 -0.2112
11653TIP3    H156374   2.174   3.607   0.961  0.6098 -0.3780  0.4150
11653TIP3    H256375   2.139   3.728   1.044 -0.5744  0.2538 -0.9619
11654TIP3   OH256376   3.529   2.976  13.388  0.2329  0.1085  0.3832
11654TIP3    H156377   3.527   3.032  13.466 -0.6937 -1.7683  1.7683
11654TIP3    H256378   3.451   2.922  13.395  0.8006 -0.9825 -1.2072
11655TIP3   OH256379   2.472   5.193  14.736  0.8037  0.5014 -0.1323
11655TIP3    H156380   2.532   5.118  14.739 -0.4411 -0.5258  1.9432
11655TIP3    H256381   2.529   5.269  14.727  2.1415 -0.6183 -1.8390
11656TIP3   OH256382   5.763   0.365   0.424  0.4492  0.3525  0.3226
11656TIP3    H156383   5.850   0.402   0.410  0.3427  0.6947  0.5641
11656TIP3    H256384   5.712   0.399   0.350  0.3654  0.6461  0.5142
11657TIP3   OH256385   4.622   2.349  14.700 -0.2512 -0.0714 -0.2045
11657TIP3    H156386   4.553   2.329  14.763  0.7992 -0.9424  0.7143
11657TIP3    H256387   4.684   2.404  14.748  0.4798 -0.5965 -0.5280
11658TIP3   OH256388   3.644   6.068   2.821  0.2168  0.7608 -0.3243
11658TIP3    H156389   3.712   6.015   2.780  0.8734  1.6907 -0.4612
11658TIP3    H256390   3.634   6.031   2.909  1.1526  0.8521 -0.1759
11659TIP3   OH256391   5.480   5.605  15.184 -0.4319 -0.2708 -0.4370
11659TIP3    H156392   5.447   5.625  15.096 -0.6626 -0.4554 -0.3932
11659TIP3    H256393   5.493   5.691  15.224 -1.1005 -0.1896 -0.3698
11660TIP3   OH256394   3.806   0.989  11.403 -0.3855 -0.0138  0.2371
11660TIP3    H156395   3.798   0.991  11.308 -0.1249 -0.3401  0.2100
11660TIP3    H256396   3.896   1.015  11.421 -0.9999  2.1782  0.4941
11661TIP3   OH256397   3.004   4.065  10.350  0.6002  0.4981 -0.4325
11661TIP3    H156398   2.984   4.001  10.418 -1.0416  1.5353  0.1053
11661TIP3    H256399   2.934   4.053  10.285  0.3863  1.5763 -0.4242
11662TIP3   OH256400   1.445   1.995  11.620 -0.7714  0.0424  0.3189
11662TIP3    H156401   1.432   1.961  11.532 -2.0633  0.8100  0.1970
11662TIP3    H256402   1.540   2.002  11.629 -0.5856 -0.9723 -0.6343
11663TIP3   OH256403   4.720   0.392  11.149 -0.5086  0.1647 -0.5206
11663TIP3    H156404   4.740   0.486  11.149  0.7871 -0.0591  1.1645
11663TIP3    H256405   4.681   0.377  11.236  0.3141 -1.0329 -0.3489
11664TIP3   OH256406   2.182   5.497   4.557  0.2100  0.0240  0.1800
11664TIP3    H156407   2.157   5.454   4.639 -1.2094  1.1375  0.3618
11664TIP3    H256408   2.107   5.553   4.535  0.4283 -0.4658 -2.0389
11665TIP3   OH256409   6.198   5.637  12.330 -0.6685  0.2846 -0.4041
11665TIP3    H156410   6.283   5.659  12.369 -0.5588 -0.1666 -0.3900
11665TIP3    H256411   6.135   5.654  12.400 -0.6763  1.3114 -0.6332
11666TIP3   OH256412   2.247   2.375   2.604 -0.0054  0.5424 -0.1763
11666TIP3    H156413   2.330   2.398   2.648 -0.5608 -0.0836  1.2707
11666TIP3    H256414   2.223   2.454   2.557  1.4786  0.7006 -0.7455
11667TIP3   OH256415   5.133   3.219   0.076  0.0936 -0.2587 -0.8685
11667TIP3    H156416   5.152   3.136   0.122  0.5522 -0.9407 -2.2309
11667TIP3    H256417   5.094   3.275   0.143 -0.9061 -1.8306 -0.0737
11668TIP3   OH256418   2.646   4.395  15.622 -0.4029 -0.6082 -0.0760
11668TIP3    H156419   2.672   4.420  15.533 -0.3767  0.4290  0.2063
11668TIP3    H256420   2.697   4.316  15.640  0.3479 -0.2689 -0.6212
11669TIP3   OH256421   1.598   6.101   5.006  0.1861  0.5037 -0.0911
11669TIP3    H156422   1.557   6.179   4.969  0.6710  0.0617 -1.6548
11669TIP3    H256423   1.542   6.076   5.079 -0.7940  1.4596 -0.4945
11670TIP3   OH256424   0.260   2.959   1.174 -0.2422 -0.1355  0.4969
11670TIP3    H156425   0.251   2.877   1.222  0.0836 -0.2567  0.3527
11670TIP3    H256426   0.332   3.005   1.218  0.9646 -0.8243 -0.6675
11671TIP3   OH256427   5.839   5.332  14.439  0.2597 -0.0696 -0.8959
11671TIP3    H156428   5.928   5.355  14.464  0.5741 -1.3821 -0.7625
11671TIP3    H256429   5.830   5.365  14.349  0.7092  0.4962 -0.7379
11672TIP3   OH256430   2.473   4.702   3.493 -0.2719  0.2068 -0.2690
11672TIP3    H156431   2.396   4.661   3.533 -0.3743  1.0061  0.3768
11672TIP3    H256432   2.437   4.772   3.438  0.0233  1.2830  0.8692
11673TIP3   OH256433   5.608   0.772  16.164  0.5595  0.5613 -0.4994
11673TIP3    H156434   5.615   0.858  16.122  1.7366  0.0109 -1.4857
11673TIP3    H256435   5.692   0.760  16.209 -0.5648  1.0334  1.9335
11674TIP3   OH256436   1.787   5.828  16.272  0.5421  0.7143  0.0668
11674TIP3    H156437   1.862   5.840  16.329 -0.4610 -0.6254  1.7888
11674TIP3    H256438   1.822   5.784  16.194  1.4855 -0.2713  1.0191
11675TIP3   OH256439   1.450   1.585  12.444  0.2051  0.1114  0.5469
11675TIP3    H156440   1.379   1.596  12.380  1.7215  1.3005 -1.0406
11675TIP3    H256441   1.406   1.583  12.529 -2.0622 -3.1122 -0.4977
11676TIP3   OH256442   2.591   5.474   1.542 -0.2584  0.3663  0.3151
11676TIP3    H156443   2.641   5.555   1.537  0.4136  0.0388  1.4513
11676TIP3    H256444   2.657   5.405   1.540 -0.8632 -0.2154 -1.4500
11677TIP3   OH256445   2.878   4.995  11.271  0.2914 -0.9282  0.0834
11677TIP3    H156446   2.796   5.008  11.319  0.1348 -1.5592  0.0023
11677TIP3    H256447   2.943   4.973  11.338  0.7209  0.9053  0.2981
11678TIP3   OH256448   3.999   2.272  16.547  0.1420 -0.3590  0.0503
11678TIP3    H156449   3.919   2.322  16.530  0.6253  0.6912  0.7559
11678TIP3    H256450   3.968   2.188  16.580 -0.7145 -1.0494 -2.3234
11679TIP3   OH256451   1.560   5.856   5.525 -0.8487  0.3282 -0.0626
11679TIP3    H156452   1.472   5.863   5.489 -0.4934  1.0872 -0.8267
11679TIP3    H256453   1.564   5.925   5.591 -0.7488  0.4859 -0.2293
11680TIP3   OH256454   1.287   5.622  15.677 -0.0640  0.1653  0.4688
11680TIP3    H156455   1.360   5.634  15.617 -0.1427 -1.4610 -0.0071
11680TIP3    H256456   1.224   5.690  15.653  0.7545  0.7880  0.0569
11681TIP3   OH256457   5.047   1.062  12.649 -0.3496  0.3538  0.3286
11681TIP3    H156458   5.036   0.967  12.649  0.2341  0.2331 -1.6491
11681TIP3    H256459   4.978   1.093  12.590  0.6954  0.9358 -0.6219
11682TIP3   OH256460   3.901   2.530  14.576  0.7989  0.6770 -0.0994
11682TIP3    H156461   3.922   2.622  14.590  1.3144  0.4421  0.7841
11682TIP3    H256462   3.957   2.483  14.638 -0.7700 -0.1171  0.8010
11683TIP3   OH256463   2.413   4.756  16.967  0.0066  0.1224  0.2606
11683TIP3    H156464   2.488   4.770  17.025 -0.5996 -0.9192  1.3425
11683TIP3    H256465   2.450   4.757  16.879  0.9896  1.5094  0.6664
11684TIP3   OH256466   6.370   2.744  11.554 -0.4928 -0.2649  0.2797
11684TIP3    H156467   6.375   2.695  11.636 -1.3433  0.0330  0.5180
11684TIP3    H256468   6.283   2.724  11.519 -1.2014  1.6868  0.7845
11685TIP3   OH256469   0.288   4.371   6.295  0.8989  0.2476 -0.3772
11685TIP3    H156470   0.309   4.279   6.311  0.3044  0.1123 -0.3625
11685TIP3    H256471   0.358   4.420   6.340 -0.1618 -0.1325  1.8229
11686TIP3   OH256472   1.238   2.178   2.741  0.1966 -0.3934 -0.3553
11686TIP3    H156473   1.290   2.257   2.729 -1.4004  0.4724 -2.2397
11686TIP3    H256474   1.153   2.210   2.772 -0.3577 -1.3831 -0.7985
11687TIP3   OH256475   5.999   5.353   1.641  0.0262  0.2583 -0.1702
11687TIP3    H156476   6.060   5.356   1.715 -1.3524  0.9533  0.9733
11687TIP3    H256477   5.937   5.284   1.663  1.0030 -1.2391 -1.8677
11688TIP3   OH256478   2.850   2.401  13.872  0.6778 -0.9117 -0.2429
11688TIP3    H156479   2.764   2.409  13.832  0.4620 -1.1395  0.1686
11688TIP3    H256480   2.832   2.390  13.966  1.1821 -0.1284 -0.0421
11689TIP3   OH256481   3.844   5.419  16.513  0.4152 -0.1067  0.8191
11689TIP3    H156482   3.857   5.331  16.548  0.7381  0.1925  1.4895
11689TIP3    H256483   3.837   5.474  16.591 -0.1825  0.4104  0.4110
11690TIP3   OH256484   3.821   4.281   1.618  0.1723  0.8851  0.1846
11690TIP3    H156485   3.878   4.212   1.587  0.3249  2.2190 -2.8138
11690TIP3    H256486   3.793   4.251   1.705  1.4851 -2.1046 -0.2865
11691TIP3   OH256487   3.347   0.444  12.997 -0.3963 -0.1461  0.7427
11691TIP3    H156488   3.365   0.457  12.904 -1.1468  1.6209  0.7965
11691TIP3    H256489   3.428   0.410  13.033  0.4671  0.7480 -0.2763
11692TIP3   OH256490   0.616   3.567   4.209  0.0148 -0.3387  0.2482
11692TIP3    H156491   0.611   3.519   4.126  0.0493  0.6084 -0.3280
11692TIP3    H256492   0.710   3.568   4.230  0.1954  0.6870 -0.5028
11693TIP3   OH256493   2.056   6.608   4.205  0.2758  0.5047 -0.3654
11693TIP3    H156494   2.113   6.663   4.258  0.6847 -0.7466  0.5583
11693TIP3    H256495   2.115   6.542   4.169 -0.5615 -0.8676  0.6664
11694TIP3   OH256496   0.975   5.973  16.868 -0.4173  0.4168 -0.1922
11694TIP3    H156497   0.984   5.893  16.920 -2.1244  0.5816  0.4329
11694TIP3    H256498   0.933   6.035  16.928  3.6398  2.9318  0.4346
11695TIP3   OH256499   3.716   6.176  14.865  0.5859  0.2609 -0.3716
11695TIP3    H156500   3.695   6.150  14.775 -0.9723  0.2250 -0.0197
11695TIP3    H256501   3.784   6.114  14.892 -2.2911 -3.0386  0.0966
11696TIP3   OH256502   0.751   3.454  11.594  0.2604  0.3650 -0.0414
11696TIP3    H156503   0.833   3.482  11.553 -0.5072  1.3555 -0.9821
11696TIP3    H256504   0.692   3.528  11.580 -0.8480 -0.4028  0.4645
11697TIP3   OH256505   3.215   4.398   1.233 -0.4193 -0.2819 -0.2501
11697TIP3    H156506   3.257   4.317   1.264  1.2468 -0.0582 -1.7335
11697TIP3    H256507   3.137   4.368   1.186  0.1608 -1.0520 -0.7573
11698TIP3   OH256508   0.363   2.396  15.145  0.0404 -0.2782  0.4149
11698TIP3    H156509   0.388   2.465  15.084  1.6544 -0.9348  0.2809
11698TIP3    H256510   0.432   2.330  15.136 -0.1384 -0.7807  2.3239
11699TIP3   OH256511   1.299   2.039  15.748 -0.3856  0.4868 -0.2437
11699TIP3    H156512   1.393   2.037  15.763 -0.4541 -0.6307  0.0527
11699TIP3    H256513   1.280   2.132  15.732  1.0531  0.5234 -2.2435
11700TIP3   OH256514   0.823   2.494  11.141  0.3595  0.2733  0.1306
11700TIP3    H156515   0.743   2.508  11.192  0.1628  0.4589 -0.2233
11700TIP3    H256516   0.792   2.489  11.050  0.4619 -2.0112  0.1827
11701TIP3   OH256517   2.080   3.034  15.101 -0.3223 -0.7992 -0.6846
11701TIP3    H156518   2.056   2.942  15.116  0.4183 -0.6969  1.3505
11701TIP3    H256519   2.174   3.032  15.087 -0.3760 -0.3930 -1.1211
11702TIP3   OH256520   4.866   5.243  15.091 -0.2276 -0.3397  0.4360
11702TIP3    H156521   4.786   5.192  15.081 -0.5357  0.4255 -1.3532
11702TIP3    H256522   4.919   5.193  15.153 -1.6332 -1.4106  0.8251
11703TIP3   OH256523   1.908   0.050   6.386  0.9035 -0.0098  0.3643
11703TIP3    H156524   1.948   0.109   6.322  3.5034  0.3820  2.1837
11703TIP3    H256525   1.943  -0.037   6.364 -1.3236 -0.6466 -1.0545
11704TIP3   OH256526   2.560   0.142  14.037 -0.1552  0.5362  0.2934
11704TIP3    H156527   2.601   0.139  14.124  0.6711  1.7279 -0.0296
11704TIP3    H256528   2.581   0.229  14.004  2.7790 -1.0550 -2.6215
11705TIP3   OH256529   6.021   3.550  14.125  0.3597 -0.1736  0.5399
11705TIP3    H156530   6.018   3.594  14.040 -0.2203 -2.2491 -0.5776
11705TIP3    H256531   6.109   3.569  14.158  1.6583 -1.5612 -1.8227
11706TIP3   OH256532   6.135   2.024  10.945  0.0634 -0.2973  0.0167
11706TIP3    H156533   6.211   1.979  10.907 -0.4830 -2.9804  1.8032
11706TIP3    H256534   6.085   1.954  10.987 -2.0279  1.7664  1.1675
11707TIP3   OH256535   4.662   4.124   6.028  0.2909  0.1835 -0.3474
11707TIP3    H156536   4.576   4.094   6.056 -0.8510  2.1875 -1.5425
11707TIP3    H256537   4.714   4.124   6.109 -0.5563 -1.7229  0.2702
11708TIP3   OH256538   0.174   1.332  15.426 -0.1353  0.1172 -0.1169
11708TIP3    H156539   0.244   1.368  15.481  0.5172 -0.1472 -0.7620
11708TIP3    H256540   0.093   1.362  15.468  0.3371 -0.4723  1.2522
11709TIP3   OH256541   2.351   4.678   3.106  0.1299 -0.1230 -0.5447
11709TIP3    H156542   2.367   4.699   3.014  0.7095  1.9480 -0.0227
11709TIP3    H256543   2.422   4.618   3.130  0.9752  0.6661 -1.0191
11710TIP3   OH256544   1.379   1.988   0.582  0.2157  0.2520 -1.0194
11710TIP3    H156545   1.402   2.047   0.653 -1.1337  0.1260 -0.4446
11710TIP3    H256546   1.443   1.918   0.587  0.8611  0.8574 -0.6906
11711TIP3   OH256547   1.910   2.704  12.414  0.2615 -0.2439  0.6138
11711TIP3    H156548   1.860   2.760  12.355  0.6230 -0.5147  0.0253
11711TIP3    H256549   1.887   2.732  12.502 -3.2294 -2.2799  0.5188
11712TIP3   OH256550   3.495   0.830  15.734 -0.5066  0.1343 -0.2024
11712TIP3    H156551   3.553   0.816  15.809 -0.4158 -0.0131 -0.2998
11712TIP3    H256552   3.465   0.921  15.743  1.0494  0.7704 -1.0698
11713TIP3   OH256553   1.294   1.792  13.356  0.3491 -0.3650 -0.4479
11713TIP3    H156554   1.283   1.697  13.353 -1.1934 -0.1953 -0.6854
11713TIP3    H256555   1.225   1.824  13.413  1.6486  0.5326  0.6902
11714TIP3   OH256556   0.412   4.568   4.546  0.3033 -0.2733  0.3573
11714TIP3    H156557   0.439   4.527   4.628 -0.2711 -1.8996 -0.2228
11714TIP3    H256558   0.358   4.502   4.503 -2.1231  1.6952  0.1119
11715TIP3   OH256559   5.394   2.057   6.528  0.7190  0.3540  0.5912
11715TIP3    H156560   5.393   2.132   6.469 -0.9513 -0.4633 -0.5237
11715TIP3    H256561   5.312   2.011   6.509  0.6762 -0.5956  2.7435
11716TIP3   OH256562   0.112   3.447   4.244  0.2350  0.6194 -0.1664
11716TIP3    H156563   0.101   3.408   4.157 -1.0545  3.3427 -1.3314
11716TIP3    H256564   0.039   3.413   4.295  0.9696 -0.9610 -0.1215
11717TIP3   OH256565   0.816   2.373   1.386  0.3498  0.3890  0.3856
11717TIP3    H156566   0.815   2.305   1.454  2.5126  0.3081  0.4287
11717TIP3    H256567   0.742   2.352   1.329 -0.4673 -0.5589  1.7521
11718TIP3   OH256568   3.851   4.412   0.042  0.0193 -0.0305 -0.2498
11718TIP3    H156569   3.784   4.373   0.097  1.9221 -2.0944  0.7875
11718TIP3    H256570   3.877   4.491   0.088 -0.7833  0.0747  0.0300
11719TIP3   OH256571   4.352   2.260  13.341 -0.2081  0.3035 -0.5239
11719TIP3    H156572   4.292   2.210  13.286 -1.8395  0.7285  0.7904
11719TIP3    H256573   4.309   2.345  13.352  0.8700  0.7887  0.0934
11720TIP3   OH256574   3.251   5.068   4.577  0.1378  0.6138  0.2702
11720TIP3    H156575   3.168   5.086   4.619  0.5629  0.4777  1.1975
11720TIP3    H256576   3.253   4.972   4.568 -0.0924  0.6657 -0.3638
11721TIP3   OH256577   5.629   5.309  13.220 -0.0224 -0.7641  0.0252
11721TIP3    H156578   5.680   5.372  13.271  0.6409  0.6971 -2.3195
11721TIP3    H256579   5.644   5.225  13.264 -0.3944  0.5212  2.8509
11722TIP3   OH256580   1.760   0.755  15.460 -0.1086  0.2311 -0.0098
11722TIP3    H156581   1.706   0.685  15.496 -0.2326  1.0018  1.3773
11722TIP3    H256582   1.702   0.802  15.401  0.1030 -1.0737 -1.3112
11723TIP3   OH256583   3.791   3.268  12.115  0.4558 -0.7554 -0.2225
11723TIP3    H156584   3.864   3.330  12.110  0.0956 -0.3863 -1.1382
11723TIP3    H256585   3.806   3.207  12.042 -1.0810  0.3817 -1.5580
11724TIP3   OH256586   3.480   0.499   4.527 -0.0678 -0.3340 -0.5016
11724TIP3    H156587   3.514   0.438   4.592 -0.2725 -1.9854 -1.8803
11724TIP3    H256588   3.390   0.470   4.511 -0.7668  1.3970  0.0299
11725TIP3   OH256589   0.726   1.705   3.866 -0.1240  0.0859 -0.2732
11725TIP3    H156590   0.718   1.786   3.915  0.6558 -0.3598  0.6009
11725TIP3    H256591   0.740   1.638   3.932  1.8972 -0.4024 -1.1409
11726TIP3   OH256592   4.444   2.733   0.815 -0.3575  0.2059 -0.0194
11726TIP3    H156593   4.416   2.684   0.738 -1.2869  0.6567  0.0222
11726TIP3    H256594   4.539   2.721   0.817 -0.4365 -0.6410 -0.6553
11727TIP3   OH256595   0.553   3.330  11.275  0.2543 -0.3642  0.0751
11727TIP3    H156596   0.602   3.251  11.298 -1.1474 -1.1040  0.6534
11727TIP3    H256597   0.478   3.299  11.225  0.8239  0.8304 -1.6029
11728TIP3   OH256598   0.441   1.149  15.523  0.0242 -0.4567  0.3662
11728TIP3    H156599   0.429   1.120  15.614 -0.5371 -1.9095 -0.1591
11728TIP3    H256600   0.357   1.132  15.481  1.2072 -2.7502 -1.2140
11729TIP3   OH256601   4.256   3.639  13.445  0.2110  0.1679  0.9193
11729TIP3    H156602   4.209   3.709  13.492  0.5593  0.8922  0.2245
11729TIP3    H256603   4.263   3.568  13.508 -1.3743  0.2334  1.2002
11730TIP3   OH256604   3.189   1.743  15.189 -0.7097  0.2083  0.4262
11730TIP3    H156605   3.093   1.745  15.197 -0.9082  0.7874 -1.5237
11730TIP3    H256606   3.219   1.816  15.243 -1.3619 -0.0414  1.1439
11731TIP3   OH256607   1.830   2.190   5.389  0.1588  0.0272  0.6355
11731TIP3    H156608   1.767   2.234   5.333 -0.0778 -0.5271  0.4692
11731TIP3    H256609   1.848   2.254   5.458  0.8673  0.9280 -0.3492
11732TIP3   OH256610   5.991   5.976   0.751  0.6176 -0.2173 -0.1409
11732TIP3    H156611   6.075   5.997   0.792  0.3216 -1.0694  0.9437
11732TIP3    H256612   6.002   5.887   0.718  0.6495  0.2423 -1.4347
11733TIP3   OH256613   5.802   4.325   0.403 -0.3403  0.4106  0.0164
11733TIP3    H156614   5.810   4.287   0.316 -1.8822  0.2519 -0.0916
11733TIP3    H256615   5.801   4.419   0.389  0.0170  0.4002 -0.0751
11734TIP3   OH256616   0.703   1.217  13.544 -0.0402 -0.4889  0.4307
11734TIP3    H156617   0.701   1.123  13.561 -0.5473 -0.3701  1.0845
11734TIP3    H256618   0.727   1.256  13.628  0.4596 -0.0532  0.0830
11735TIP3   OH256619   5.813   4.899  16.706 -0.4274  0.0431 -0.5648
11735TIP3    H156620   5.870   4.878  16.633 -1.0029  0.5142 -1.1670
11735TIP3    H256621   5.771   4.816  16.729  0.5415 -0.3175 -0.0695
11736TIP3   OH256622   6.785   5.401   4.738 -0.0014 -0.0137  0.7502
11736TIP3    H156623   6.723   5.465   4.775  0.4033  0.0646  1.3067
11736TIP3    H256624   6.758   5.318   4.776 -1.0452 -0.3231 -0.6204
11737TIP3   OH256625   4.835   4.653  14.209  0.3533  0.2599  0.2057
11737TIP3    H156626   4.802   4.736  14.242 -1.3991  1.0506 -3.0174
11737TIP3    H256627   4.759   4.594  14.214  1.1495 -0.7222  1.0844
11738TIP3   OH256628   4.541   5.085   2.681 -0.1214 -0.8996  0.1928
11738TIP3    H156629   4.501   5.120   2.760  0.3443 -1.8049  0.8467
11738TIP3    H256630   4.555   4.992   2.700  0.4865 -1.0160 -0.7480
11739TIP3   OH256631   0.293   0.117  16.575 -0.4446  0.7692  0.3688
11739TIP3    H156632   0.275   0.099  16.667  0.1086 -0.2618  0.3001
11739TIP3    H256633   0.367   0.178  16.577 -0.2605  0.5428  0.6138
11740TIP3   OH256634   4.491   3.237   2.674  0.1804  0.5405 -0.0909
11740TIP3    H156635   4.489   3.281   2.589  0.9636  2.1082  0.6538
11740TIP3    H256636   4.580   3.201   2.679  0.2985  0.8836  0.2722
11741TIP3   OH256637   0.482   3.203   5.779  0.1914  0.2275 -0.0865
11741TIP3    H156638   0.392   3.178   5.800  0.4205  0.1537  0.8395
11741TIP3    H256639   0.532   3.122   5.787  0.1039 -0.0949 -2.1956
11742TIP3   OH256640   5.623   2.519   2.202 -0.1206 -0.1790  0.3694
11742TIP3    H156641   5.568   2.464   2.257  0.7290 -0.9616  0.4547
11742TIP3    H256642   5.624   2.604   2.246 -0.8825 -0.2793  0.6002
11743TIP3   OH256643   1.532   5.492   0.553 -0.5403 -0.6461 -0.3232
11743TIP3    H156644   1.583   5.563   0.592 -0.4175 -0.7105 -0.3650
11743TIP3    H256645   1.588   5.459   0.482 -0.9821 -0.1771 -0.9030
11744TIP3   OH256646   6.421   5.979   2.795  0.5615 -0.1564  0.1761
11744TIP3    H156647   6.418   5.904   2.855  0.1505 -1.0672 -0.9485
11744TIP3    H256648   6.457   6.050   2.848 -2.4504 -0.0868  2.4145
11745TIP3   OH256649   1.909   1.376   5.783  0.5964  0.3531 -0.1666
11745TIP3    H156650   1.841   1.431   5.822  1.7411  1.4403  0.3668
11745TIP3    H256651   1.862   1.299   5.752 -0.9340  1.2286 -0.1473
11746TIP3   OH256652   5.373   6.049  12.786  0.1593 -0.1986  0.1851
11746TIP3    H156653   5.344   5.985  12.721  1.0031 -0.4800  0.0744
11746TIP3    H256654   5.454   6.012  12.822  0.2929  0.4824  0.6029
11747TIP3   OH256655   3.199   0.885   1.498  0.0006  0.5649 -0.2435
11747TIP3    H156656   3.260   0.948   1.460 -0.7153  1.5337  0.1606
11747TIP3    H256657   3.143   0.938   1.555 -0.8479 -0.3912 -0.1661
11748TIP3   OH256658   5.785   1.649  13.558  0.4731  0.0231 -0.5207
11748TIP3    H156659   5.840   1.715  13.517 -1.5731 -0.0445 -3.7211
11748TIP3    H256660   5.837   1.569  13.554  1.4478  0.6290 -0.2718
11749TIP3   OH256661   4.606   1.682  14.793  0.3034  0.5144 -0.1676
11749TIP3    H156662   4.589   1.632  14.713  0.5166  0.1054  0.0431
11749TIP3    H256663   4.531   1.663  14.849 -0.8944  2.3951 -1.0340
11750TIP3   OH256664   4.296   4.984  13.578 -0.7635  0.0240 -0.5510
11750TIP3    H156665   4.366   4.981  13.644 -0.7239 -1.7972 -0.6258
11750TIP3    H256666   4.341   5.007  13.497 -0.7598  1.9504 -0.0635
11751TIP3   OH256667   0.695   6.187   4.564  0.2458  0.3874  0.3187
11751TIP3    H156668   0.689   6.172   4.470  1.7450  0.0391  0.2564
11751TIP3    H256669   0.779   6.148   4.589 -0.5740 -0.4265  1.9731
11752TIP3   OH256670   0.196   6.216   3.309  0.5320 -0.9655 -0.3664
11752TIP3    H156671   0.145   6.152   3.358  0.4109  0.1663  1.0578
11752TIP3    H256672   0.143   6.295   3.310 -0.2635 -1.2935 -3.8444
11753TIP3   OH256673   2.135   2.072  12.530 -0.1630  0.1584  0.1377
11753TIP3    H156674   2.163   2.012  12.461 -1.2057  0.6800 -0.7703
11753TIP3    H256675   2.098   2.014  12.597  0.0577 -0.3002 -0.1284
11754TIP3   OH256676   6.496   1.911  15.593  0.5824  0.9582  0.2625
11754TIP3    H156677   6.544   1.912  15.510  1.0825 -3.1675  0.2680
11754TIP3    H256678   6.564   1.910  15.660  0.2236  2.1421  0.6712
11755TIP3   OH256679   3.613   1.132  13.758 -0.4328  0.2129  0.5089
11755TIP3    H156680   3.670   1.132  13.835 -0.5158 -0.9629  0.5855
11755TIP3    H256681   3.634   1.051  13.713  0.1364  1.2305 -1.1231
11756TIP3   OH256682   3.343   2.516   3.996  0.0669  0.0059  0.1959
11756TIP3    H156683   3.381   2.475   3.918 -0.6559 -2.2828  0.9574
11756TIP3    H256684   3.250   2.525   3.977  0.2001  1.3182  0.0693
11757TIP3   OH256685   6.209   3.507  16.300 -0.0737 -0.1310 -0.0254
11757TIP3    H156686   6.139   3.514  16.235 -0.8837 -1.0637  0.7168
11757TIP3    H256687   6.290   3.518  16.249 -0.7319  0.3939 -0.9860
11758TIP3   OH256688   0.057   6.270   2.564  0.5090  0.3784  0.0726
11758TIP3    H156689   0.053   6.348   2.508  1.4823  1.0421  0.8950
11758TIP3    H256690  -0.012   6.283   2.629  0.4261  0.3732 -0.0137
11759TIP3   OH256691   3.777   1.321   4.245 -0.3062  0.0980  0.2138
11759TIP3    H156692   3.758   1.303   4.337 -0.9478 -0.9477 -0.1051
11759TIP3    H256693   3.698   1.362   4.211  0.2061  1.1843  0.2993
11760TIP3   OH256694   2.347   6.216  14.425 -0.3657  0.8270  0.3268
11760TIP3    H156695   2.393   6.274  14.365 -2.3230  1.4919 -0.6001
11760TIP3    H256696   2.393   6.227  14.509  1.1748  1.3765 -0.5472
11761TIP3   OH256697   3.911   6.755   0.698  0.1798  0.4121 -0.4769
11761TIP3    H156698   3.937   6.718   0.783  0.6874  1.4083 -0.1823
11761TIP3    H256699   3.993   6.784   0.658 -0.0059 -0.4501 -1.5216
11762TIP3   OH256700   0.679   0.080   0.330  0.3938 -0.3812  0.2465
11762TIP3    H156701   0.677   0.159   0.275  0.5567 -0.4736  0.1066
11762TIP3    H256702   0.753   0.094   0.390  1.0256 -0.8415 -0.4047
11763TIP3   OH256703   0.431   2.846  13.491  0.0794 -0.3889  0.3274
11763TIP3    H156704   0.520   2.878  13.479  0.6276 -1.7441  0.5616
11763TIP3    H256705   0.377   2.924  13.491  1.2522  0.4487  0.0290
11764TIP3   OH256706   5.087   2.412  15.454 -0.3619 -0.5266 -0.3635
11764TIP3    H156707   5.100   2.464  15.375  1.7671 -0.8090 -0.2680
11764TIP3    H256708   5.175   2.397  15.487 -1.1052 -1.8085  1.1689
11765TIP3   OH256709   1.195   3.835   5.849  0.2552 -0.0964  0.3768
11765TIP3    H156710   1.211   3.814   5.757  1.8966  0.9308  0.3780
11765TIP3    H256711   1.166   3.752   5.887  2.9584 -1.5423 -0.3694
11766TIP3   OH256712   3.155   2.454   4.550 -0.2681 -0.7176  0.1172
11766TIP3    H156713   3.113   2.484   4.630  1.5344  2.8703 -0.0644
11766TIP3    H256714   3.083   2.441   4.488 -1.4944  4.1162  0.1079
11767TIP3   OH256715   0.934   2.247  16.351  0.4261 -0.1692 -0.2305
11767TIP3    H156716   0.881   2.327  16.343  0.2212 -0.4001 -1.2844
11767TIP3    H256717   0.870   2.176  16.356  0.6165 -0.4346 -1.3415
11768TIP3   OH256718   6.134   0.206   0.710 -0.5130  0.3315 -0.0882
11768TIP3    H156719   6.166   0.280   0.763 -1.1855 -0.1360  0.9891
11768TIP3    H256720   6.044   0.229   0.688 -1.0015 -0.5088  0.9390
11769TIP3   OH256721   6.729   4.957   3.643  0.4100 -1.0766  0.1802
11769TIP3    H156722   6.750   5.049   3.661  0.5561 -1.2640  1.0065
11769TIP3    H256723   6.757   4.943   3.552  0.4132 -0.3165  0.0572
11770TIP3   OH256724   4.907   2.287  16.046 -0.4821  0.0966 -0.2289
11770TIP3    H156725   4.986   2.257  16.091  0.8621  1.7826 -1.3234
11770TIP3    H256726   4.862   2.342  16.110  0.1096  0.4770 -0.1370
11771TIP3   OH256727   5.791   1.401  13.270  0.3608  0.2590  0.3108
11771TIP3    H156728   5.773   1.307  13.271  0.8951  0.1573  1.2426
11771TIP3    H256729   5.717   1.440  13.317 -0.2227  0.3822 -0.6906
11772TIP3   OH256730   1.122   3.509  14.245 -0.3101  0.6731  0.6104
11772TIP3    H156731   1.155   3.571  14.310 -1.0319  0.2661  1.3796
11772TIP3    H256732   1.107   3.429  14.294  1.4918 -0.4484 -0.5399
11773TIP3   OH256733   4.313   0.392   2.394  0.6319  0.1873  0.3835
11773TIP3    H156734   4.346   0.314   2.438  2.1575  0.6159  0.0362
11773TIP3    H256735   4.376   0.409   2.325  0.6203  2.0517  0.7922
11774TIP3   OH256736   2.819   6.301   1.446  0.4681  0.2949 -0.0571
11774TIP3    H156737   2.760   6.274   1.516  1.7105  0.0936  0.9491
11774TIP3    H256738   2.795   6.246   1.372 -0.0257 -0.4056  0.6117
11775TIP3   OH256739   4.606   5.726   1.863  0.0995  0.0483 -0.1530
11775TIP3    H156740   4.624   5.688   1.949  0.3138 -3.0161 -1.4087
11775TIP3    H256741   4.691   5.755   1.831  0.5392 -1.4019 -0.3965
11776TIP3   OH256742   2.903   4.599   2.450  0.0053  0.0417  0.0979
11776TIP3    H156743   2.955   4.671   2.485 -0.0482  0.5078 -0.7469
11776TIP3    H256744   2.866   4.557   2.527  1.0279  0.1571  0.6747
11777TIP3   OH256745   6.619   2.642   5.418  0.5175 -0.2608  0.3832
11777TIP3    H156746   6.593   2.734   5.430  1.5000 -0.1211  1.6706
11777TIP3    H256747   6.647   2.614   5.505  1.5698 -1.3514 -0.2845
11778TIP3   OH256748   1.236   2.640   1.059 -0.3286  0.0719  0.6826
11778TIP3    H156749   1.328   2.615   1.051 -0.4931 -0.4965  0.4590
11778TIP3    H256750   1.217   2.630   1.152 -0.7501 -2.0800  0.4359
11779TIP3   OH256751   1.881   2.081   5.128  0.2132  0.0192 -0.2196
11779TIP3    H156752   1.805   2.025   5.111 -0.4815  0.2319  1.9334
11779TIP3    H256753   1.857   2.133   5.204  2.2227  0.6725  0.0467
11780TIP3   OH256754   1.655   4.184  12.780  0.4549 -0.2615 -0.1520
11780TIP3    H156755   1.629   4.250  12.716 -0.5063 -0.7161 -0.2477
11780TIP3    H256756   1.576   4.131  12.795  1.5195 -2.2418 -1.0881
11781TIP3   OH256757   6.380   5.996  12.990 -0.1085  0.3933  0.3770
11781TIP3    H156758   6.336   5.933  12.932  1.8253  0.2572 -1.0332
11781TIP3    H256759   6.453   5.947  13.028 -0.1973  1.0458  1.4326
11782TIP3   OH256760   1.986   5.330  17.148 -0.1294  0.0130  0.2132
11782TIP3    H156761   2.006   5.276  17.224  1.7749 -0.9696 -0.9084
11782TIP3    H256762   1.982   5.268  17.075 -1.0428  1.0409 -0.6489
11783TIP3   OH256763   0.087   1.162   6.531  0.0880 -0.1732 -0.2603
11783TIP3    H156764   0.043   1.111   6.599 -0.0880 -1.5969 -1.3966
11783TIP3    H256765   0.179   1.165   6.559 -0.1119 -0.1194  0.3960
11784TIP3   OH256766   2.185   6.540  13.819 -0.0755 -0.3586 -0.2642
11784TIP3    H156767   2.202   6.628  13.784  1.2527 -0.3258  0.4052
11784TIP3    H256768   2.091   6.526  13.804 -0.7501  1.9114  1.2293
11785TIP3   OH256769   4.516   4.717   5.751 -0.1935 -0.1679  0.4323
11785TIP3    H156770   4.479   4.642   5.705 -1.3561  0.4013  0.3935
11785TIP3    H256771   4.495   4.700   5.843 -0.3223  0.0243  0.4396
11786TIP3   OH256772   6.400   5.261   2.370 -0.1415  0.3779  0.6259
11786TIP3    H156773   6.409   5.356   2.368 -2.2413  0.6438 -1.9643
11786TIP3    H256774   6.485   5.229   2.401  1.1779  3.0419  0.0510
11787TIP3   OH256775   0.495   5.158   6.397 -0.3591  0.9172  0.0401
11787TIP3    H156776   0.479   5.064   6.396  0.8416  0.6810  0.5479
11787TIP3    H256777   0.442   5.193   6.326  1.0205 -0.4710 -1.7599
11788TIP3   OH256778   2.324   5.759   2.060 -0.0946  0.0291  0.0116
11788TIP3    H156779   2.293   5.827   2.120 -2.5889 -1.5397  0.6371
11788TIP3    H256780   2.293   5.788   1.974 -1.6445 -0.5388  0.3537
11789TIP3   OH256781   5.228   3.263   3.000  0.0641 -0.2522 -0.2349
11789TIP3    H156782   5.133   3.275   2.995  0.2204  1.1726 -0.3900
11789TIP3    H256783   5.252   3.230   2.913 -0.2263 -0.1042 -0.3734
11790TIP3   OH256784   1.374   2.213  16.010  0.3237 -0.1607  0.0237
11790TIP3    H156785   1.427   2.142  15.972  1.1406  0.2379  0.4026
11790TIP3    H256786   1.315   2.168  16.070  0.7161 -0.5416  0.1325
11791TIP3   OH256787   1.143   5.843   4.027 -0.0196 -0.3172  0.1714
11791TIP3    H156788   1.208   5.834   4.097 -1.1729 -0.9447  1.1884
11791TIP3    H256789   1.086   5.914   4.056  1.6513  2.1096 -1.9481
11792TIP3   OH256790   2.131   1.886  12.726 -0.1509 -0.3565  0.0897
11792TIP3    H156791   2.118   1.840  12.809  1.1927  0.4529  0.7987
11792TIP3    H256792   2.221   1.866  12.702 -0.4683 -0.4099 -1.0845
11793TIP3   OH256793   2.612   5.393  16.619  0.3187  0.3708  0.0543
11793TIP3    H156794   2.591   5.424  16.707  1.0874 -0.2572  0.4768
11793TIP3    H256795   2.527   5.380  16.577 -0.1455 -1.1199  1.3621
11794TIP3   OH256796   6.308   2.213  15.854  0.2710 -0.4607  0.9424
11794TIP3    H156797   6.377   2.195  15.918 -0.6439 -0.8656  1.8419
11794TIP3    H256798   6.328   2.300  15.821  1.3764 -0.6859  0.9648
11795TIP3   OH256799   2.996   0.452   5.517  0.3516 -0.0723  0.6430
11795TIP3    H156800   2.996   0.493   5.430 -0.4921 -2.9600 -0.8329
11795TIP3    H256801   2.907   0.464   5.549 -0.8483 -3.0741 -1.1240
11796TIP3   OH256802   1.645   5.109  10.767 -0.1425  0.3478  0.2414
11796TIP3    H156803   1.601   5.082  10.686  0.1783 -1.0393  0.5045
11796TIP3    H256804   1.693   5.188  10.743 -1.2032  0.7748 -0.5495
11797TIP3   OH256805   1.236   2.300  16.892  0.3632  0.9292  0.0912
11797TIP3    H156806   1.242   2.238  16.964  1.0986  0.1153 -0.6580
11797TIP3    H256807   1.223   2.246  16.814  2.4535  1.5704 -0.7783
11798TIP3   OH256808   3.655   5.633   2.549  0.4219  0.0138  0.0573
11798TIP3    H156809   3.726   5.697   2.547 -0.1659  0.6692 -1.5167
11798TIP3    H256810   3.579   5.680   2.515 -0.9664 -0.4981  2.2880
11799TIP3   OH256811   2.013   5.423  15.114 -0.5154 -0.4084 -0.1234
11799TIP3    H156812   1.962   5.466  15.182 -2.2657 -0.1207 -1.5312
11799TIP3    H256813   2.024   5.491  15.046  1.6644 -0.5076  0.0624
11800TIP3   OH256814   6.714   1.323   0.219  0.0544 -0.4999 -0.2978
11800TIP3    H156815   6.783   1.284   0.273  0.0169 -1.4210 -0.9042
11800TIP3    H256816   6.734   1.295   0.130 -0.8514 -0.4080 -0.5388
11801TIP3   OH256817   5.522   0.055   4.794  0.1692  0.1778 -0.1664
11801TIP3    H156818   5.504  -0.039   4.790  0.7225 -0.1457  2.8256
11801TIP3    H256819   5.586   0.064   4.865 -0.0143  2.8418 -0.2580
11802TIP3   OH256820   4.087   4.645  12.305  0.1908  0.3509 -0.0688
11802TIP3    H156821   4.046   4.559  12.294  0.0814  0.2420  1.0330
11802TIP3    H256822   4.171   4.626  12.347  1.3611  0.5854 -2.1605
11803TIP3   OH256823   3.417   3.894  12.840 -0.0087 -0.4131 -0.1641
11803TIP3    H156824   3.462   3.910  12.757  0.1849 -1.6669 -0.3259
11803TIP3    H256825   3.437   3.970  12.893  0.1105  0.2713 -1.1659
11804TIP3   OH256826   3.414   3.743  12.400  0.3335 -0.2612  0.0011
11804TIP3    H156827   3.322   3.744  12.376 -0.3345 -2.1851  2.1120
11804TIP3    H256828   3.419   3.795  12.480  1.1727  0.1912 -0.3339
11805TIP3   OH256829   3.527   4.968   3.168 -0.2293 -0.3570 -0.3416
11805TIP3    H156830   3.606   4.924   3.135  0.3867  0.4843 -0.0264
11805TIP3    H256831   3.492   4.907   3.234  0.2612 -0.6536 -0.3474
11806TIP3   OH256832   2.433   4.642  16.052  0.3036  0.2304  0.3032
11806TIP3    H156833   2.456   4.622  15.961  0.8653 -0.6845  0.6366
11806TIP3    H256834   2.364   4.709  16.045 -3.5367 -3.4187 -1.0029
11807TIP3   OH256835   2.165   3.663   5.419  0.5228  0.0069 -0.4955
11807TIP3    H156836   2.200   3.605   5.351  1.7750  1.6321 -1.3201
11807TIP3    H256837   2.199   3.628   5.501  1.7071 -0.1457 -1.0308
11808TIP3   OH256838   4.328   2.461   6.044 -0.0751 -0.9316 -0.2507
11808TIP3    H156839   4.421   2.447   6.023  0.7707  0.5663  2.1033
11808TIP3    H256840   4.320   2.438   6.136 -2.0454 -0.9346 -0.3748
11809TIP3   OH256841   0.506   2.936   1.349  0.4308 -0.1268  0.0575
11809TIP3    H156842   0.602   2.938   1.349  0.4347  1.4810  0.3684
11809TIP3    H256843   0.481   3.029   1.348 -1.1234 -0.5262  0.0114
11810TIP3   OH256844   5.235   4.506  12.796  0.1484 -0.0613  0.1303
11810TIP3    H156845   5.190   4.578  12.751 -0.6910 -0.9636 -0.4992
11810TIP3    H256846   5.250   4.540  12.884 -0.7524  0.6742  0.0173
11811TIP3   OH256847   0.866   4.132   0.569  0.2076 -0.0771  0.0073
11811TIP3    H156848   0.900   4.162   0.485 -0.1334  1.5070  0.3897
11811TIP3    H256849   0.938   4.085   0.610  0.8411  0.3659 -0.5902
11812TIP3   OH256850   0.922   2.218  11.703 -0.2037 -0.1970 -0.0007
11812TIP3    H156851   0.862   2.216  11.629  0.4490  0.6854 -0.5735
11812TIP3    H256852   0.866   2.226  11.780 -0.8270  0.5427 -0.5251
11813TIP3   OH256853   6.409   2.725   2.611 -0.0287 -0.2277 -0.5313
11813TIP3    H156854   6.464   2.658   2.571 -2.9165 -2.4609 -1.1153
11813TIP3    H256855   6.377   2.777   2.538  0.3676  0.2935 -0.3338
11814TIP3   OH256856   0.210   4.408  16.371 -0.5895 -0.1285  0.0553
11814TIP3    H156857   0.134   4.454  16.408 -0.0659  1.0668 -0.3033
11814TIP3    H256858   0.253   4.367  16.446 -0.4212  0.9534  0.5645
11815TIP3   OH256859   0.959   0.842  13.104  0.6257 -0.2854  0.2955
11815TIP3    H156860   1.045   0.801  13.093  0.5072 -0.6542  0.7136
11815TIP3    H256861   0.927   0.808  13.187 -0.6395 -1.4366 -0.6168
11816TIP3   OH256862   0.123   0.248  14.246  0.6914  0.3533  0.0582
11816TIP3    H156863   0.210   0.216  14.221  0.7713 -0.3023  1.1331
11816TIP3    H256864   0.125   0.342  14.224  0.8599 -0.0827 -2.0428
11817TIP3   OH256865   5.307   4.484  15.025 -0.0931 -0.0682 -0.0373
11817TIP3    H156866   5.217   4.454  15.036 -0.1281 -0.2694 -0.8212
11817TIP3    H256867   5.323   4.480  14.930  1.1315 -1.2190  0.1714
11818TIP3   OH256868   2.342   6.583  11.630 -0.2298  0.0488 -0.2689
11818TIP3    H156869   2.272   6.545  11.577  0.9301 -0.5405 -1.4227
11818TIP3    H256870   2.297   6.644  11.689 -1.5915  0.4401 -1.6660
11819TIP3   OH256871   4.590   5.008   5.694 -0.1248 -0.0073 -0.2405
11819TIP3    H156872   4.524   4.996   5.626  0.0326  0.1096 -0.4119
11819TIP3    H256873   4.567   4.943   5.760  0.4743 -0.9967 -0.9808
11820TIP3   OH256874   3.191   4.964   1.780  0.6881 -0.4173  0.2272
11820TIP3    H156875   3.223   4.876   1.804  0.9885 -0.4622 -0.3187
11820TIP3    H256876   3.252   4.993   1.712  0.7600  0.3341  0.6115
11821TIP3   OH256877   4.067   3.606   1.838  0.1134  0.5000  0.3577
11821TIP3    H156878   4.025   3.541   1.894 -0.4193 -0.6129 -1.2890
11821TIP3    H256879   3.998   3.669   1.818 -0.2067 -0.1360 -0.5698
11822TIP3   OH256880   6.709   1.126   2.945  0.2149 -0.2285 -0.0613
11822TIP3    H156881   6.635   1.178   2.915 -1.0834 -0.8477  1.8937
11822TIP3    H256882   6.695   1.040   2.907  0.7584  0.0213 -0.8676
11823TIP3   OH256883   6.371   3.011   0.037 -0.0217  0.0337  0.0517
11823TIP3    H156884   6.455   2.983   0.074 -0.0977 -0.9096 -0.4551
11823TIP3    H256885   6.307   2.950   0.075 -0.3210  0.0506 -0.4204
11824TIP3   OH256886   6.806   6.593  10.958 -0.2402 -0.4254 -0.6576
11824TIP3    H156887   6.861   6.650  10.904 -0.7075 -0.9684 -1.7470
11824TIP3    H256888   6.798   6.513  10.907 -1.3907 -0.6497 -0.1556
11825TIP3   OH256889   6.465   1.711  16.275 -0.2030  0.3174  0.0669
11825TIP3    H156890   6.447   1.617  16.265 -0.7881  0.0387  2.9229
11825TIP3    H256891   6.548   1.714  16.322 -0.4876  1.2097  0.5302
11826TIP3   OH256892   4.878   3.696  13.408  0.5957  0.0752 -0.4908
11826TIP3    H156893   4.847   3.624  13.353  0.4041 -0.7175  0.6159
11826TIP3    H256894   4.936   3.747  13.351 -1.1529  0.4529 -2.0140
11827TIP3   OH256895   4.200   6.369  10.385  0.0079 -0.2885 -0.0632
11827TIP3    H156896   4.128   6.331  10.435 -1.2841  1.1422 -0.7733
11827TIP3    H256897   4.160   6.439  10.333  1.7433 -0.0600 -1.1919
11828TIP3   OH256898   6.499   1.277   5.254 -0.5187  0.1888  0.0975
11828TIP3    H156899   6.450   1.228   5.320 -1.5492  1.0972  0.0319
11828TIP3    H256900   6.457   1.363   5.251  0.8597  0.8929 -0.2191
11829TIP3   OH256901   0.496   0.449  12.289 -0.3382  0.0554 -0.3617
11829TIP3    H156902   0.553   0.388  12.243 -0.0424 -0.9098  1.2220
11829TIP3    H256903   0.463   0.400  12.364 -0.3678  1.7321  0.7873
11830TIP3   OH256904   4.888   0.869   2.815 -0.1723 -0.1496 -0.2903
11830TIP3    H156905   4.935   0.791   2.843  0.7444  0.8341  1.0431
11830TIP3    H256906   4.949   0.915   2.758  0.0381  0.5001  0.4332
11831TIP3   OH256907   2.255   4.717   2.493  0.6324  0.0248  0.0848
11831TIP3    H156908   2.253   4.700   2.587 -2.0960  1.1104  0.3181
11831TIP3    H256909   2.247   4.813   2.487 -1.1285 -0.1572 -1.2042
11832TIP3   OH256910   1.616   6.034  16.226  0.0134 -0.6890  0.1636
11832TIP3    H156911   1.542   6.043  16.287  0.3428  0.6632  0.3894
11832TIP3    H256912   1.666   5.960  16.260 -0.9450 -1.2879  0.3085
11833TIP3   OH256913   5.597   4.665   2.440  0.1856 -0.0245 -0.1085
11833TIP3    H156914   5.513   4.619   2.439  0.3143 -0.2718 -2.0249
11833TIP3    H256915   5.575   4.755   2.417  0.1718  0.5252  1.8544
11834TIP3   OH256916   6.331   0.701  15.385 -0.0790  0.0440 -0.0561
11834TIP3    H156917   6.420   0.681  15.353 -0.1826  1.1768 -1.1369
11834TIP3    H256918   6.343   0.720  15.478  0.9388  0.7935 -0.3142
11835TIP3   OH256919   3.630   3.188   3.660  0.2542  0.7070 -0.1333
11835TIP3    H156920   3.697   3.162   3.597  0.5093  0.2908  0.2981
11835TIP3    H256921   3.563   3.232   3.608  0.9657  1.3169 -0.5378
11836TIP3   OH256922   4.457   0.826   5.606 -0.3469  0.3086 -0.2549
11836TIP3    H156923   4.510   0.870   5.539 -1.4119 -0.7760 -1.9003
11836TIP3    H256924   4.368   0.828   5.570 -1.6133  2.5677  2.6640
11837TIP3   OH256925   6.418   1.457  13.895 -0.1554  0.5917 -0.5097
11837TIP3    H156926   6.471   1.392  13.849 -0.2548  0.8673 -1.0178
11837TIP3    H256927   6.395   1.415  13.978 -0.8422 -0.3202 -1.1415
11838TIP3   OH256928   6.620   1.979   5.475  0.9407  0.0988  0.0162
11838TIP3    H156929   6.640   1.957   5.566  0.9051  1.8900  0.4890
11838TIP3    H256930   6.590   2.070   5.478 -2.3066 -0.7654 -1.3352
11839TIP3   OH256931   6.730   0.989   6.172  0.3289 -0.2134  0.4702
11839TIP3    H156932   6.813   1.031   6.194  0.6331  0.0313 -1.0307
11839TIP3    H256933   6.703   0.946   6.253  2.7659 -1.7557  0.5916
11840TIP3   OH256934   5.098   6.264   5.538  0.0299 -0.0731  0.3369
11840TIP3    H156935   5.189   6.254   5.565 -0.2326 -1.2009  0.8695
11840TIP3    H256936   5.063   6.332   5.597  0.2406 -0.4196  0.8731
11841TIP3   OH256937   5.806   3.117   3.959 -0.2201 -0.1754 -0.1675
11841TIP3    H156938   5.753   3.192   3.932 -2.1099 -2.0524 -2.1364
11841TIP3    H256939   5.859   3.150   4.031  0.6160  3.5875 -2.2074
11842TIP3   OH256940   0.329   5.424  11.276 -0.4324  0.1984 -0.5104
11842TIP3    H156941   0.290   5.374  11.348  1.6094  0.1999  0.6676
11842TIP3    H256942   0.345   5.511  11.313  0.6415  0.1999 -0.9476
11843TIP3   OH256943   6.157   5.856  11.683  0.6836  0.3389  0.3057
11843TIP3    H156944   6.124   5.781  11.633  1.5483 -0.1101  0.3848
11843TIP3    H256945   6.228   5.820  11.736  1.1967  1.2402  0.2479
11844TIP3   OH256946   5.718   3.658  11.896 -0.0803  0.1092  0.0578
11844TIP3    H156947   5.764   3.740  11.883  0.8429 -0.5693 -1.2240
11844TIP3    H256948   5.759   3.618  11.973  0.1120  0.4057  0.1056
11845TIP3   OH256949   2.348   0.377   0.662  0.6649  0.1737 -0.3262
11845TIP3    H156950   2.307   0.409   0.582  0.1626 -2.8836 -1.4440
11845TIP3    H256951   2.276   0.339   0.713  0.8748  2.5552  1.9587
11846TIP3   OH256952   2.768   6.211   4.534 -0.5297  0.8542 -1.1020
11846TIP3    H156953   2.844   6.249   4.489  0.9881  0.5950  1.0649
11846TIP3    H256954   2.805   6.170   4.612 -2.9369  0.7034  0.0487
11847TIP3   OH256955   6.773   4.594   0.176  0.2488  0.7940  0.0303
11847TIP3    H156956   6.735   4.583   0.263 -1.3079  1.4729 -0.5171
11847TIP3    H256957   6.727   4.530   0.121  1.6245 -0.0287 -0.1980
11848TIP3   OH256958   1.305   6.466  11.352 -0.2071  0.3347 -0.0683
11848TIP3    H156959   1.215   6.452  11.322 -0.0698  0.4349 -0.5322
11848TIP3    H256960   1.295   6.507  11.438 -0.6444  3.4668 -1.4880
11849TIP3   OH256961   1.750   6.332   0.096 -0.3902 -0.3749 -0.3435
11849TIP3    H156962   1.658   6.341   0.118 -0.7676  0.0846 -1.9887
11849TIP3    H256963   1.754   6.348   0.001  1.6774  2.1906  0.0473
11850TIP3   OH256964   1.103   5.850   4.694 -0.6913  0.2819 -0.6116
11850TIP3    H156965   1.176   5.813   4.744  0.0805  2.7126  0.2027
11850TIP3    H256966   1.120   5.823   4.604  0.3251 -0.5132 -0.2112
11851TIP3   OH256967   1.633   1.374  15.407  0.7534 -0.6499 -0.4822
11851TIP3    H156968   1.572   1.301  15.418  0.3542 -0.2564 -0.0656
11851TIP3    H256969   1.698   1.361  15.477  0.0593  0.0054  0.3085
11852TIP3   OH256970   0.742   1.039  16.332  0.4817 -0.5870  0.2953
11852TIP3    H156971   0.664   1.075  16.289  1.2990  0.1377 -0.6272
11852TIP3    H256972   0.733   1.065  16.424  0.4558  0.9799 -0.1177
11853TIP3   OH256973   6.584   4.375  16.849 -0.5808 -0.3796  0.6825
11853TIP3    H156974   6.639   4.452  16.832 -2.2616  0.4537 -1.6173
11853TIP3    H256975   6.585   4.365  16.944  3.8350 -0.7460  0.8026
11854TIP3   OH256976   0.969   4.870  11.451 -0.4182  0.2452 -0.4778
11854TIP3    H156977   1.021   4.848  11.375 -0.8643 -0.4310 -0.5952
11854TIP3    H256978   0.965   4.789  11.502 -0.7435  0.4887 -0.1104
11855TIP3   OH256979   2.286   3.034   3.527 -0.4701  0.0114 -0.2761
11855TIP3    H156980   2.359   3.073   3.575  0.6234 -1.6036 -0.5707
11855TIP3    H256981   2.234   3.110   3.497  1.6018  1.2756 -0.8988
11856TIP3   OH256982   0.186   5.070  12.402  0.0131 -0.7705 -0.2890
11856TIP3    H156983   0.279   5.087  12.386  0.1581 -2.5748 -1.7296
11856TIP3    H256984   0.184   5.022  12.484  0.2709 -0.1083  0.1122
11857TIP3   OH256985   4.827   4.520  14.821 -0.7737  0.5560  0.2822
11857TIP3    H156986   4.914   4.506  14.782 -1.4527 -1.8482 -0.5587
11857TIP3    H256987   4.844   4.531  14.914  0.4277 -0.6577  0.2455
11858TIP3   OH256988   0.017   0.474  14.741 -0.0193  0.2571 -0.4736
11858TIP3    H156989   0.089   0.415  14.717 -0.0098 -0.1864  0.5654
11858TIP3    H256990   0.006   0.531  14.665  0.1926 -0.8793 -1.3865
11859TIP3   OH256991   1.576   3.238  11.592 -0.2551  0.3641 -0.3055
11859TIP3    H156992   1.671   3.250  11.595 -0.2966  0.5234  0.7795
11859TIP3    H256993   1.555   3.237  11.498  0.8882 -0.3244 -0.5724
11860TIP3   OH256994   0.486   5.450  15.863  0.3946 -0.0739 -0.7064
11860TIP3    H156995   0.432   5.526  15.880 -0.2331 -0.1223 -2.3016
11860TIP3    H256996   0.543   5.476  15.790 -0.7409 -1.5045 -2.1900
11861TIP3   OH256997   1.302   1.365   4.180 -0.1477  0.4631 -0.7739
11861TIP3    H156998   1.236   1.392   4.116 -0.2177 -0.6857 -1.2184
11861TIP3    H256999   1.386   1.392   4.141 -0.2901  1.1977 -0.5869
11862TIP3   OH257000   2.131   3.031   0.600  0.2204 -0.6426 -0.6164
11862TIP3    H157001   2.099   2.960   0.545  0.4938 -1.1175 -0.1689
11862TIP3    H257002   2.155   3.101   0.538 -1.4868 -0.3370 -0.9736
11863TIP3   OH257003   3.356   3.336  15.466 -0.2208 -0.1640 -0.5918
11863TIP3    H157004   3.331   3.253  15.425  0.8455 -2.1159  2.3688
11863TIP3    H257005   3.274   3.369  15.504 -0.4484 -0.4383 -0.8394
11864TIP3   OH257006   4.317   3.170  15.981  0.6647  0.1378  0.4670
11864TIP3    H157007   4.254   3.231  15.941  0.4839 -0.0697  0.4340
11864TIP3    H257008   4.402   3.212  15.968  0.7005 -0.2908 -0.8570
11865TIP3   OH257009   0.471   1.484   2.621 -0.4402 -0.7885 -0.0472
11865TIP3    H157010   0.423   1.401   2.625 -1.7306 -0.0379  0.5874
11865TIP3    H257011   0.483   1.500   2.527 -0.3027 -1.6170 -0.1780
11866TIP3   OH257012   5.931   5.388   4.486 -0.2567  0.3444 -0.3126
11866TIP3    H157013   5.897   5.438   4.411  0.6920  0.0300 -0.9835
11866TIP3    H257014   5.856   5.378   4.544 -0.5957  2.1559 -0.3599
11867TIP3   OH257015   0.122   0.567   4.665 -0.6340 -0.2918 -0.4461
11867TIP3    H157016   0.168   0.484   4.674  0.0073  0.0235 -0.7139
11867TIP3    H257017   0.134   0.611   4.750  0.6154  0.3015 -0.9026
11868TIP3   OH257018   2.006   0.452  13.424 -0.0197 -0.5230 -0.0421
11868TIP3    H157019   2.023   0.529  13.477  3.6151 -1.6102  0.6388
11868TIP3    H257020   1.953   0.484  13.351  0.7164  2.4566  0.6230
11869TIP3   OH257021   2.745   6.117  13.128 -0.2769  0.3602 -0.6301
11869TIP3    H157022   2.837   6.100  13.148 -0.4189  0.4013  0.0690
11869TIP3    H257023   2.700   6.035  13.145 -0.4520  0.4937 -0.4381
11870TIP3   OH257024   5.799   3.018  12.063  0.3405  0.1318  0.6519
11870TIP3    H157025   5.783   3.007  12.157  0.3168  2.2273  0.9258
11870TIP3    H257026   5.713   3.043  12.027  0.7336  1.1632  0.3976
11871TIP3   OH257027   4.680   0.383  12.441  0.2775 -0.0654 -0.2462
11871TIP3    H157028   4.656   0.391  12.533  1.2566  2.0049 -0.1149
11871TIP3    H257029   4.752   0.321  12.440  0.4711  0.1438  0.4335
11872TIP3   OH257030   5.620   6.127  16.281 -0.0985  0.6342  0.2159
11872TIP3    H157031   5.547   6.073  16.311 -0.4704  0.6848 -0.5821
11872TIP3    H257032   5.667   6.072  16.219  1.3655  0.0901  1.7210
11873TIP3   OH257033   3.965   0.153   2.709 -0.2198  0.3082 -0.4451
11873TIP3    H157034   3.881   0.111   2.689 -0.6418  1.4436 -1.1746
11873TIP3    H257035   4.021   0.081   2.739 -1.3791 -0.5065 -0.1466
11874TIP3   OH257036   4.260   0.072  13.492 -0.0708 -0.1561 -0.3166
11874TIP3    H157037   4.188   0.130  13.470 -0.4530 -0.7333 -0.6047
11874TIP3    H257038   4.227  -0.016  13.474  0.6649 -0.4359 -0.3531
11875TIP3   OH257039   1.373   2.408   1.814 -0.6491 -0.5296 -0.2156
11875TIP3    H157040   1.316   2.485   1.810 -2.3733 -1.7434 -0.1261
11875TIP3    H257041   1.399   2.402   1.906 -1.5900 -0.7833  0.0456
11876TIP3   OH257042   0.998   6.151   2.498 -0.3379 -0.0198  0.5733
11876TIP3    H157043   0.921   6.110   2.539  0.1728 -0.7784  0.7831
11876TIP3    H257044   0.965   6.182   2.414 -0.7365 -0.9073  0.3820
11877TIP3   OH257045   3.061   3.444  14.544  0.4757 -0.5752 -0.1910
11877TIP3    H157046   3.071   3.362  14.593  0.7452 -1.6947 -2.0233
11877TIP3    H257047   2.968   3.449  14.524 -0.0212  0.9506  2.0799
11878TIP3   OH257048   3.530   2.392  13.854 -0.2688 -0.1956 -0.5871
11878TIP3    H157049   3.625   2.406  13.854 -0.5464  2.1496 -1.3741
11878TIP3    H257050   3.512   2.346  13.936  1.3746  0.8242  0.4018
11879TIP3   OH257051   3.301   4.628  12.335  0.7211 -0.2789  0.5992
11879TIP3    H157052   3.390   4.595  12.325  0.1181 -1.5507 -1.2342
11879TIP3    H257053   3.272   4.595  12.420  1.6637 -0.6778  0.7769
11880TIP3   OH257054   4.867   1.208  10.585 -0.1777  0.1862 -0.3653
11880TIP3    H157055   4.896   1.182  10.498 -0.3172 -1.5949  0.0774
11880TIP3    H257056   4.928   1.277  10.612  1.2650 -0.8070 -0.9872
11881TIP3   OH257057   5.302   2.714  16.857 -0.2495 -0.2656  0.2142
11881TIP3    H157058   5.384   2.762  16.861 -0.7940  0.6211  2.0989
11881TIP3    H257059   5.234   2.779  16.874 -1.2180 -1.2389  0.2592
11882TIP3   OH257060   6.333   1.386  14.158 -0.2896  0.1471  0.3501
11882TIP3    H157061   6.241   1.387  14.131 -0.0365  3.3955 -0.7479
11882TIP3    H257062   6.341   1.459  14.220  1.2193 -1.2751  1.9586
11883TIP3   OH257063   3.185   5.525  12.799  0.0651 -0.4957  0.0459
11883TIP3    H157064   3.280   5.526  12.811  0.0430  1.3685  0.3795
11883TIP3    H257065   3.170   5.464  12.726  1.8649  1.7433 -2.3795
11884TIP3   OH257066   4.291   6.496  14.239 -0.2185 -0.9877  0.2015
11884TIP3    H157067   4.337   6.412  14.234 -0.7375 -1.2419 -0.4146
11884TIP3    H257068   4.204   6.473  14.272 -1.1152 -1.0196 -2.0308
11885TIP3   OH257069   1.546   3.680  13.068  0.0919  0.0756  0.2144
11885TIP3    H157070   1.629   3.643  13.039 -0.3077  0.4488 -1.5027
11885TIP3    H257071   1.570   3.758  13.117  0.7584  0.0467 -0.0613
11886TIP3   OH257072   6.245   1.216   0.191  0.3040 -0.5693 -0.4262
11886TIP3    H157073   6.179   1.285   0.193 -0.1808 -1.0439  0.2920
11886TIP3    H257074   6.221   1.162   0.115  0.6801  0.0255 -0.9836
11887TIP3   OH257075   5.852   6.695  11.953 -0.5030 -0.1761  0.4385
11887TIP3    H157076   5.946   6.679  11.963 -0.3676  0.3147 -0.0080
11887TIP3    H257077   5.831   6.757  12.023 -0.5798 -0.5980  0.7920
11888TIP3   OH257078   1.877   6.119   3.004  0.4261  0.7754 -0.2890
11888TIP3    H157079   1.965   6.120   2.968 -0.1922  0.4405 -1.9074
11888TIP3    H257080   1.838   6.202   2.976  0.3904  1.1592  0.8660
11889TIP3   OH257081   1.301   6.783   3.228 -0.2480 -0.0965 -0.6877
11889TIP3    H157082   1.222   6.745   3.267 -1.0288 -0.1883 -2.2817
11889TIP3    H257083   1.331   6.847   3.293 -3.1740  1.9143 -1.1240
11890TIP3   OH257084   5.735   2.956  11.329  0.2867  0.1283 -0.1622
11890TIP3    H157085   5.679   2.973  11.404 -1.1057  3.4858 -1.7585
11890TIP3    H257086   5.823   2.950  11.366 -0.4720  0.5687  1.8539
11891TIP3   OH257087   3.783   0.529  14.344  0.8847 -0.3787  0.4744
11891TIP3    H157088   3.725   0.452  14.343  0.0875  0.2143 -0.0591
11891TIP3    H257089   3.738   0.591  14.401  0.4368  0.4934 -0.7941
11892TIP3   OH257090   3.955   0.607   4.313 -0.0232 -0.0517 -0.2349
11892TIP3    H157091   3.954   0.688   4.262 -0.7106 -0.4631 -0.8853
11892TIP3    H257092   3.863   0.580   4.319  0.1488 -0.5475  0.3652
11893TIP3   OH257093   4.188   0.524  12.787 -0.4267 -0.7240  0.2603
11893TIP3    H157094   4.147   0.603  12.752  1.0450 -0.2847 -0.5438
11893TIP3    H257095   4.252   0.555  12.850 -0.5322 -1.3474  0.6872
11894TIP3   OH257096   5.485   0.886   2.752 -0.2805  0.0966 -0.6590
11894TIP3    H157097   5.575   0.914   2.771 -0.8333  1.3578  0.2810
11894TIP3    H257098   5.493   0.794   2.730  1.0926 -0.1692  0.7441
11895TIP3   OH257099   3.816   5.914  11.631 -0.3330 -0.4852  0.1102
11895TIP3    H157100   3.724   5.908  11.656 -0.1011  0.5917  1.3192
11895TIP3    H257101   3.816   5.972  11.554 -0.7118 -1.0446 -0.3246
11896TIP3   OH257102   4.986   1.291  14.345  0.3575  0.1092  0.2455
11896TIP3    H157103   5.065   1.290  14.399  0.6544  0.5958 -0.1677
11896TIP3    H257104   4.982   1.381  14.311 -1.3026  0.6295  1.6284
11897TIP3   OH257105   0.428   1.509  12.678 -0.0542 -0.0203 -0.2346
11897TIP3    H157106   0.425   1.591  12.728  1.4065 -0.2160  0.2096
11897TIP3    H257107   0.508   1.515  12.627  0.2307 -1.2928  0.0399
11898TIP3   OH257108   3.205   3.021   0.022 -0.0438  0.4901  0.2497
11898TIP3    H157109   3.111   3.038   0.027 -0.1854  0.0739 -0.7644
11898TIP3    H257110   3.228   2.993   0.110 -1.6222 -2.9537 -0.2467
11899TIP3   OH257111   4.085   1.567   0.158 -0.2876 -0.1745  0.2247
11899TIP3    H157112   4.068   1.568   0.252 -0.8786  1.4140  0.1381
11899TIP3    H257113   4.045   1.648   0.126 -0.8354 -1.0849 -1.5316
11900TIP3   OH257114   4.659   1.414  13.236  0.1182 -0.3187 -0.7398
11900TIP3    H157115   4.726   1.396  13.302 -2.0448 -1.3780  1.3201
11900TIP3    H257116   4.640   1.507  13.245 -1.0922 -0.7071  1.1622
11901TIP3   OH257117   2.285   0.770  15.476 -0.2187  0.1098 -0.6790
11901TIP3    H157118   2.307   0.697  15.418 -0.2040  1.9618 -3.1733
11901TIP3    H257119   2.190   0.766  15.485  0.0001 -1.7742  1.5077
11902TIP3   OH257120   1.546   5.774   1.561  0.5143 -0.0997  0.7223
11902TIP3    H157121   1.564   5.683   1.537 -0.6474 -0.2797  0.4911
11902TIP3    H257122   1.550   5.822   1.479 -1.4860 -0.3926  0.4105
11903TIP3   OH257123   1.649   3.398  16.217 -0.2552  0.1375  0.0153
11903TIP3    H157124   1.576   3.398  16.280 -0.7225  0.5932 -0.5138
11903TIP3    H257125   1.606   3.409  16.132  0.2781 -1.4654 -0.4975
11904TIP3   OH257126   0.928   5.566   2.313 -0.0071  0.0023  0.1326
11904TIP3    H157127   0.947   5.637   2.374  1.0354 -0.1456 -0.0124
11904TIP3    H257128   1.012   5.544   2.274 -0.2019 -1.7514  0.6436
11905TIP3   OH257129   4.114   0.873   4.043  0.1230 -0.4229  0.1167
11905TIP3    H157130   4.072   0.909   4.121  0.1511  2.3343 -1.0193
11905TIP3    H257131   4.206   0.898   4.052  0.2899 -0.8279 -0.4120
11906TIP3   OH257132   2.920   1.637  11.499 -0.2291 -0.4379 -0.1981
11906TIP3    H157133   2.911   1.552  11.541  1.9582 -0.7225 -0.1606
11906TIP3    H257134   2.914   1.700  11.570 -0.0270 -0.6934  0.0498
11907TIP3   OH257135   0.799   3.582   1.483  0.5520  0.0680  0.0510
11907TIP3    H157136   0.844   3.662   1.455  0.2467 -0.0713 -0.8705
11907TIP3    H257137   0.757   3.606   1.565 -0.1971  1.1088 -0.6147
11908TIP3   OH257138   4.485   0.992  16.825  0.1039 -0.3216  0.7581
11908TIP3    H157139   4.564   0.984  16.878  0.9569  0.0534 -0.4113
11908TIP3    H257140   4.477   1.085  16.808 -0.8523 -0.3045  1.2148
11909TIP3   OH257141   6.593   1.005  16.740  0.4913 -0.4411 -0.0094
11909TIP3    H157142   6.633   1.060  16.672  0.2327 -1.5979 -1.1509
11909TIP3    H257143   6.499   1.009  16.720  0.2490  0.3067  1.1619
11910TIP3   OH257144   1.106   4.321  11.419  0.0744  0.3069  0.1029
11910TIP3    H157145   1.164   4.245  11.412 -0.8252 -0.4854  0.9404
11910TIP3    H257146   1.047   4.312  11.344  0.0228  0.2332  0.1527
11911TIP3   OH257147   0.828   5.032   4.179 -0.1350  0.1959  0.5530
11911TIP3    H157148   0.825   5.054   4.272  0.9870 -0.3338  0.7299
11911TIP3    H257149   0.774   4.953   4.172 -0.9685  0.7416  0.5774
11912TIP3   OH257150   3.106   4.900  15.501 -0.2158 -0.4390  0.1112
11912TIP3    H157151   3.049   4.901  15.578  1.3096 -1.1599  1.2965
11912TIP3    H257152   3.127   4.808  15.487 -0.5632 -0.3410 -1.2798
11913TIP3   OH257153   2.344   1.148   0.302 -0.1290  0.5195  0.4610
11913TIP3    H157154   2.286   1.107   0.366  0.3332 -0.0401  0.5284
11913TIP3    H257155   2.423   1.170   0.353  0.2420  0.0722  0.0833
11914TIP3   OH257156   1.989   4.094   5.699 -0.6667 -0.6141  0.1773
11914TIP3    H157157   1.904   4.122   5.666 -0.7559  0.0866  0.9705
11914TIP3    H257158   2.039   4.175   5.708 -0.4859 -0.8328  1.2997
11915TIP3   OH257159   5.019   1.569   5.971 -0.4574 -0.7774  0.0861
11915TIP3    H157160   5.059   1.654   5.990  1.1085 -1.5030  0.1366
11915TIP3    H257161   5.032   1.518   6.050  2.0565 -2.3089 -1.1999
11916TIP3   OH257162   4.186   3.249   9.875  0.0801  0.0266 -0.0960
11916TIP3    H157163   4.184   3.306   9.951  1.9196  0.3066 -0.1956
11916TIP3    H257164   4.183   3.160   9.910 -0.3716  0.1638  0.2133
11917TIP3   OH257165   3.171   3.222  12.273 -0.2788  0.2124  0.2645
11917TIP3    H157166   3.219   3.291  12.228 -1.2078  1.1852  0.6979
11917TIP3    H257167   3.223   3.143  12.261  1.4467  1.2331  0.7924
11918TIP3   OH257168   5.897   5.910  14.189  0.1798  0.0079 -0.2875
11918TIP3    H157169   5.881   5.842  14.123 -0.0566  0.5239 -0.7645
11918TIP3    H257170   5.810   5.936  14.218  0.2561  0.3747 -0.3812
11919TIP3   OH257171   0.713   0.002  15.996 -0.0363  0.5756 -0.2271
11919TIP3    H157172   0.623  -0.032  15.997 -0.6500  2.1096 -0.0405
11919TIP3    H257173   0.756  -0.041  16.070 -0.5925 -0.1916 -0.3322
11920TIP3   OH257174   4.479   1.257  14.288  0.8295  0.4304  0.2891
11920TIP3    H157175   4.391   1.294  14.281  1.2572  1.2903 -0.6930
11920TIP3    H257176   4.503   1.269  14.380 -0.8073 -1.5642  1.0645
11921TIP3   OH257177   6.615   4.607  13.956  0.1611 -0.5248  0.3126
11921TIP3    H157178   6.653   4.525  13.926 -1.5451 -1.0645 -0.5131
11921TIP3    H257179   6.657   4.675  13.902  1.2864 -0.8705  0.7262
11922TIP3   OH257180   6.798   0.210  15.303 -0.1200 -0.1864 -0.4362
11922TIP3    H157181   6.790   0.243  15.393  2.0424  1.8423 -0.9012
11922TIP3    H257182   6.707   0.207  15.271 -0.7760  1.1210  1.1205
11923TIP3   OH257183   2.605   2.543  16.513  0.7710 -0.3499 -0.6746
11923TIP3    H157184   2.568   2.630  16.527  2.0952  0.4178 -1.7309
11923TIP3    H257185   2.617   2.508  16.601  1.3627  1.0499 -0.1724
11924TIP3   OH257186   3.258   3.605   1.257 -0.0168 -0.5642  0.0616
11924TIP3    H157187   3.277   3.697   1.237 -2.5584  0.0435 -0.0002
11924TIP3    H257188   3.273   3.597   1.351  0.2010 -0.0734  0.0713
11925TIP3   OH257189   0.017   0.034  11.072 -0.0574  0.1376  0.3575
11925TIP3    H157190   0.004  -0.059  11.049 -0.1079 -0.0216  1.0174
11925TIP3    H257191  -0.011   0.081  10.994 -0.9155 -0.3716  0.3387
11926TIP3   OH257192   6.104   1.585  15.826  0.0109 -0.4141 -0.3660
11926TIP3    H157193   6.144   1.502  15.851 -1.5565 -1.2934 -0.6142
11926TIP3    H257194   6.128   1.596  15.734  1.3396  0.1231  0.0204
11927TIP3   OH257195   5.674   4.550  11.143 -0.4697 -0.0064  0.1765
11927TIP3    H157196   5.767   4.545  11.164 -0.4638  1.4060  0.5430
11927TIP3    H257197   5.651   4.642  11.153 -1.4698  0.0302 -1.7847
11928TIP3   OH257198   1.480   3.752   3.872 -0.4819  0.1902 -0.2745
11928TIP3    H157199   1.411   3.686   3.855  0.2449 -0.5020 -0.6168
11928TIP3    H257200   1.472   3.771   3.965  0.0594 -1.3031  0.1159
11929TIP3   OH257201   2.455   3.607   0.192  0.8154 -0.3368  1.0431
11929TIP3    H157202   2.470   3.690   0.238 -2.4241 -0.3220  2.3234
11929TIP3    H257203   2.401   3.632   0.117 -1.0020 -1.2994  1.9625
11930TIP3   OH257204   5.241   4.527  10.121  0.1085  0.1206  0.1295
11930TIP3    H157205   5.175   4.515  10.053 -1.9778 -0.2349  2.1011
11930TIP3    H257206   5.269   4.618  10.112 -1.9219  0.7958  0.3003
11931TIP3   OH257207   4.213   2.969  12.347 -0.0456 -0.1146  0.0399
11931TIP3    H157208   4.209   3.031  12.420  0.9803  2.3857 -1.8903
11931TIP3    H257209   4.135   2.990  12.295 -0.3513 -1.3412 -0.0149
11932TIP3   OH257210   2.767   2.015   6.191 -0.2361 -0.1408  0.2445
11932TIP3    H157211   2.733   1.988   6.276  0.1515  1.5572  0.9907
11932TIP3    H257212   2.784   2.109   6.201  1.3640 -0.2293 -1.1877
11933TIP3   OH257213   6.420   0.022   1.815  0.3099  0.5074  0.2626
11933TIP3    H157214   6.416  -0.032   1.736  1.6736 -0.4178  0.8062
11933TIP3    H257215   6.507   0.062   1.812  0.5887  0.0413  1.5636
11934TIP3   OH257216   1.623   2.669   5.013  0.7404 -0.8015 -1.0403
11934TIP3    H157217   1.703   2.704   5.051  0.4973 -1.9949  0.6959
11934TIP3    H257218   1.553   2.715   5.059  0.3845  0.2925 -2.6031
11935TIP3   OH257219   0.374   3.413  14.667  0.5131  0.1754  0.1108
11935TIP3    H157220   0.450   3.445  14.716 -1.4522  0.9959  2.8924
11935TIP3    H257221   0.308   3.480  14.680 -1.0643 -1.0528 -1.2428
11936TIP3   OH257222   0.796   2.691   3.544 -0.5298  0.3592  0.0458
11936TIP3    H157223   0.707   2.724   3.557 -1.4128 -1.6334 -0.4653
11936TIP3    H257224   0.824   2.662   3.630 -1.5161 -1.5343 -0.2163
11937TIP3   OH257225   2.279   1.234  14.995 -0.2200 -0.3147 -0.0444
11937TIP3    H157226   2.252   1.153  14.954  1.0482 -0.6958 -0.1680
11937TIP3    H257227   2.262   1.301  14.929 -0.6828 -0.5528 -0.1739
11938TIP3   OH257228   1.530   0.132  12.603  0.5160 -0.3285  0.5651
11938TIP3    H157229   1.589   0.100  12.671  0.5015  2.8621  2.2547
11938TIP3    H257230   1.465   0.062  12.594  1.7369 -1.7841  2.2490
11939TIP3   OH257231   1.708   2.071   3.448  0.8033  0.5722  0.2147
11939TIP3    H157232   1.694   2.086   3.355  0.5642  1.3785  0.3723
11939TIP3    H257233   1.796   2.105   3.465  1.1281 -0.2265  0.1442
11940TIP3   OH257234   5.773   5.861   5.614  0.0841 -0.6266 -0.2739
11940TIP3    H157235   5.862   5.834   5.593 -0.3271 -0.9407 -1.7659
11940TIP3    H257236   5.783   5.932   5.677  1.3539 -1.0780  0.0574
11941TIP3   OH257237   1.470   4.048   2.401  0.1623 -0.3115  0.1603
11941TIP3    H157238   1.414   3.984   2.444  1.4364 -1.0038  0.8487
11941TIP3    H257239   1.533   4.075   2.469  0.8874  0.1660 -0.6750
11942TIP3   OH257240   0.094   1.065  12.052 -0.1534  1.2390  0.0513
11942TIP3    H157241   0.027   1.035  12.113 -0.1532 -0.5435 -0.7476
11942TIP3    H257242   0.044   1.107  11.981 -0.4683  0.0011 -0.4962
11943TIP3   OH257243   0.056   4.299   3.144  0.2553 -0.4050 -0.2040
11943TIP3    H157244  -0.022   4.283   3.091 -0.5110  0.8823  0.5029
11943TIP3    H257245   0.119   4.338   3.082 -1.0629  2.2720  0.0117
11944TIP3   OH257246   5.519   1.198  15.446 -0.1760 -1.1479 -0.3520
11944TIP3    H157247   5.483   1.275  15.403  0.1905 -1.0224 -0.4359
11944TIP3    H257248   5.454   1.175  15.513 -0.9954 -1.6457 -1.2877
11945TIP3   OH257249   4.876   0.534   2.540  0.5243  0.2024 -0.1327
11945TIP3    H157250   4.821   0.469   2.496  1.2895  0.2551 -1.2097
11945TIP3    H257251   4.919   0.581   2.469  1.0552  0.9571  0.6640
11946TIP3   OH257252   6.220   2.700   4.886 -0.6332  0.0118  0.1878
11946TIP3    H157253   6.245   2.771   4.946  1.2677  0.6925 -1.2715
11946TIP3    H257254   6.250   2.620   4.929  3.1665  0.6821 -0.8169
11947TIP3   OH257255   4.801   3.119   2.010 -0.0119  0.6137  0.4059
11947TIP3    H157256   4.886   3.137   2.049  0.3156 -1.1079  0.5539
11947TIP3    H257257   4.821   3.069   1.931 -0.8077  1.8440 -0.6248
11948TIP3   OH257258   3.440   1.376  12.734 -0.6795 -1.0692  0.4074
11948TIP3    H157259   3.391   1.458  12.727  0.2078 -0.6600 -2.2876
11948TIP3    H257260   3.392   1.324  12.797 -2.0953  0.9679  1.0991
11949TIP3   OH257261   3.968   5.305   4.056  0.4579  0.4522  0.0760
11949TIP3    H157262   3.908   5.270   4.121  0.1326  0.1437 -0.3820
11949TIP3    H257263   3.921   5.380   4.019  1.0815  1.2941  0.9346
11950TIP3   OH257264   0.271   0.343   4.740  0.1638 -0.2014  0.1495
11950TIP3    H157265   0.325   0.359   4.818  0.3807 -0.0894 -0.0240
11950TIP3    H257266   0.328   0.295   4.680 -0.3252 -1.1854  0.4596
11951TIP3   OH257267   1.344   2.393   2.332  0.1556  0.1697 -0.1545
11951TIP3    H157268   1.295   2.461   2.378  0.1596  0.3795 -0.4591
11951TIP3    H257269   1.423   2.381   2.384  0.9793  1.6173 -1.0085
11952TIP3   OH257270   1.781   5.886  10.135 -0.0676 -0.2947  0.0132
11952TIP3    H157271   1.690   5.879  10.106  0.4981  0.4881 -2.1609
11952TIP3    H257272   1.821   5.803  10.109 -0.0992 -0.5606  0.7916
11953TIP3   OH257273   5.679   6.407   0.558 -0.0522 -0.2912 -0.5901
11953TIP3    H157274   5.739   6.420   0.485 -0.1058 -0.9819 -0.7571
11953TIP3    H257275   5.735   6.399   0.635 -0.0085  0.8561 -0.4757
11954TIP3   OH257276   2.175   4.956  16.920  0.0316 -0.7714 -0.1303
11954TIP3    H157277   2.226   4.889  16.965  0.9025 -0.0868 -0.0643
11954TIP3    H257278   2.181   4.933  16.827  0.2265 -0.8526 -0.0974
11955TIP3   OH257279   4.550   2.746  16.130 -0.1823  0.3295  0.0585
11955TIP3    H157280   4.517   2.669  16.084 -0.2745  0.7910 -0.6672
11955TIP3    H257281   4.580   2.712  16.214  1.7495 -0.8848 -1.0435
11956TIP3   OH257282   4.778   2.961  13.851 -0.3734  0.4424 -0.2174
11956TIP3    H157283   4.826   2.882  13.828  0.6808  0.5019  1.5799
11956TIP3    H257284   4.691   2.929  13.878  0.3035 -0.2553  1.2949
11957TIP3   OH257285   0.776   4.955  12.824 -0.1187  0.1596  0.4053
11957TIP3    H157286   0.759   4.867  12.856  0.8598 -0.4558 -0.6946
11957TIP3    H257287   0.871   4.963  12.825 -0.1956  1.2638  0.6074
11958TIP3   OH257288   2.256   1.533  16.829 -0.3104 -0.1148 -0.2892
11958TIP3    H157289   2.204   1.514  16.906 -1.4160 -0.3787 -1.0755
11958TIP3    H257290   2.319   1.461  16.824  0.4230  0.4244  0.8969
11959TIP3   OH257291   0.850   2.895  11.762  0.4070  0.0808  0.1692
11959TIP3    H157292   0.885   2.968  11.813  0.2586  0.5812 -0.4243
11959TIP3    H257293   0.756   2.915  11.753 -0.4861 -2.0574  3.1449
11960TIP3   OH257294   6.202   5.641  14.346  0.8296  0.2681 -0.4479
11960TIP3    H157295   6.153   5.709  14.300 -0.1599 -0.0411  0.1131
11960TIP3    H257296   6.284   5.633  14.297 -0.4618 -0.5830 -2.6232
11961TIP3   OH257297   4.865   0.411  13.471  0.5589 -0.2074  0.3165
11961TIP3    H157298   4.770   0.424  13.475  0.4049 -0.7994 -0.9309
11961TIP3    H257299   4.901   0.479  13.528 -0.5364  1.0820 -0.4621
11962TIP3   OH257300   0.131   6.351  15.289  0.1096  0.0235 -0.1744
11962TIP3    H157301   0.111   6.445  15.284 -0.5671 -0.1490 -1.0702
11962TIP3    H257302   0.065   6.310  15.233  1.0273 -0.8949 -0.6122
11963TIP3   OH257303   6.239   1.946  14.189 -0.4400  0.8743  0.4892
11963TIP3    H157304   6.198   1.936  14.103 -0.1307 -0.8269  0.5000
11963TIP3    H257305   6.332   1.953  14.171 -0.1546 -1.5698  0.7355
11964TIP3   OH257306   4.402   5.289   2.034 -0.5158 -0.0213 -0.0057
11964TIP3    H157307   4.346   5.356   1.994 -1.6576 -0.1514  1.3067
11964TIP3    H257308   4.364   5.206   2.006 -0.6855 -0.1077  0.4698
11965TIP3   OH257309   1.323   3.483   6.001  0.0342 -0.0036  0.8077
11965TIP3    H157310   1.238   3.526   5.988  0.1774  0.0909  0.1253
11965TIP3    H257311   1.380   3.523   5.936  0.2928 -0.9038  0.4595
11966TIP3   OH257312   0.634   3.991   1.001 -0.2793  0.5561  0.5569
11966TIP3    H157313   0.616   4.075   1.043  1.4071  0.6425  1.1809
11966TIP3    H257314   0.593   3.999   0.914  0.2603  2.2360  0.4091
11967TIP3   OH257315   4.334   5.266   4.303 -0.2364  0.0193  0.2089
11967TIP3    H157316   4.271   5.331   4.274  0.4773  0.2802 -0.8400
11967TIP3    H257317   4.323   5.261   4.398 -1.9242 -0.0689  0.0405
11968TIP3   OH257318   4.401   2.216   1.779  0.7630 -0.2786  0.1356
11968TIP3    H157319   4.460   2.259   1.841  0.7260  0.7996 -0.5666
11968TIP3    H257320   4.460   2.176   1.714  0.7652 -0.4351  0.2335
11969TIP3   OH257321   2.732   0.066   1.444  0.2800 -0.5092 -0.2893
11969TIP3    H157322   2.769   0.056   1.356  0.1149  1.1003 -0.5879
11969TIP3    H257323   2.782   0.006   1.499 -0.9247 -3.0751 -1.8006
11970TIP3   OH257324   2.723   3.098   5.589 -0.1031  0.0885  0.2572
11970TIP3    H157325   2.752   3.032   5.526 -1.4218 -0.6429  0.3814
11970TIP3    H257326   2.758   3.180   5.556  0.4457 -0.4833 -0.6335
11971TIP3   OH257327   0.677   5.729  16.867  0.0189 -0.2281  0.0615
11971TIP3    H157328   0.677   5.797  16.800 -2.2047 -0.3781 -0.1317
11971TIP3    H257329   0.667   5.647  16.819  0.7787 -0.5648  0.4442
11972TIP3   OH257330   5.046   5.174  14.460 -0.1561 -0.4637 -0.0770
11972TIP3    H157331   5.002   5.250  14.422 -1.4242 -1.1549 -0.0576
11972TIP3    H257332   5.125   5.163  14.408  0.5145  1.3991  0.4967
11973TIP3   OH257333   4.927   2.266   0.878 -0.2712  0.0557 -0.4035
11973TIP3    H157334   4.882   2.282   0.961  0.3250 -0.3429  0.0036
11973TIP3    H257335   5.007   2.318   0.884 -0.1444 -0.1114 -0.6572
11974TIP3   OH257336   4.336   4.313  11.979  0.1642  0.3187 -0.5972
11974TIP3    H157337   4.396   4.281  12.047 -2.1246  0.1159  1.4803
11974TIP3    H257338   4.334   4.408  11.991 -1.8007  0.1400  1.1736
11975TIP3   OH257339   4.190   2.579  12.784 -0.1928 -0.3827 -0.7623
11975TIP3    H157340   4.240   2.650  12.823  2.1023 -0.6836 -2.8981
11975TIP3    H257341   4.124   2.623  12.730  0.0931  0.1153 -0.7112
11976TIP3   OH257342   3.521   1.155   6.272 -0.0403 -0.0278 -0.0241
11976TIP3    H157343   3.557   1.074   6.308  0.8455 -0.4678 -1.7968
11976TIP3    H257344   3.538   1.149   6.178 -2.3616  0.9928 -0.5890
11977TIP3   OH257345   0.009   1.274  12.539  0.0981 -0.4603  0.4967
11977TIP3    H157346  -0.023   1.362  12.556 -0.4749 -0.7612  1.0246
11977TIP3    H257347   0.104   1.280  12.553 -0.2433 -0.5671  3.5097
11978TIP3   OH257348   5.338   6.241   5.073 -0.1877 -0.7394  1.1279
11978TIP3    H157349   5.429   6.212   5.069 -0.3635 -1.2014  0.3489
11978TIP3    H257350   5.321   6.251   5.167  0.7903 -0.2228  1.2687
11979TIP3   OH257351   4.480   1.524  14.563  0.8385  0.1974 -0.1200
11979TIP3    H157352   4.385   1.533  14.558  0.8220  0.9031  0.9608
11979TIP3    H257353   4.496   1.430  14.560  0.1826  0.1111 -1.3136
11980TIP3   OH257354   0.712   0.946   1.480 -0.1636 -0.4295  0.0513
11980TIP3    H157355   0.671   0.867   1.446 -0.9301 -0.0959  0.1774
11980TIP3    H257356   0.643   0.990   1.530  0.5196 -0.1607  0.7912
11981TIP3   OH257357   5.666   5.281   1.170  0.4183  0.0953  0.4417
11981TIP3    H157358   5.641   5.204   1.118 -1.7561  1.1335 -0.1651
11981TIP3    H257359   5.678   5.350   1.105 -1.8060  1.2858  1.1891
11982TIP3   OH257360   5.073   2.870  16.324 -0.4687 -0.4854 -0.5902
11982TIP3    H157361   5.021   2.860  16.244  0.2355  3.0499 -1.6313
11982TIP3    H257362   5.163   2.879  16.294 -0.1748  0.8541  0.5617
11983TIP3   OH257363   2.178   6.097   0.449  0.3985 -0.6847  0.0080
11983TIP3    H157364   2.179   6.132   0.538  0.6636 -1.2272  0.2189
11983TIP3    H257365   2.259   6.048   0.441  1.6203  1.3993 -1.3586
11984TIP3   OH257366   5.570   4.474  10.854  0.0864 -0.3144 -0.2891
11984TIP3    H157367   5.591   4.411  10.924  0.6905  0.3506  0.1408
11984TIP3    H257368   5.479   4.497  10.869  0.2057 -0.1911  0.2758
11985TIP3   OH257369   5.232   1.379  15.405 -0.4244  0.2019  0.0882
11985TIP3    H157370   5.196   1.363  15.318 -0.9155 -1.9674  0.6261
11985TIP3    H257371   5.169   1.339  15.465  0.5525  0.5031  1.3623
11986TIP3   OH257372   5.818   2.978   2.380 -0.7006  0.1256 -0.4053
11986TIP3    H157373   5.907   3.010   2.365 -0.8292  0.7224  0.0575
11986TIP3    H257374   5.800   2.921   2.305  0.5766 -1.1191  0.1900
11987TIP3   OH257375   0.852   6.301   1.624  0.6099  0.6229 -0.0798
11987TIP3    H157376   0.857   6.278   1.716  0.8635  0.1504 -0.2095
11987TIP3    H257377   0.762   6.278   1.598  0.5861  0.6122  0.0119
11988TIP3   OH257378   5.313   6.355   3.553  0.2106  0.0834 -0.5077
11988TIP3    H157379   5.330   6.412   3.628  0.5793 -0.1609 -0.3950
11988TIP3    H257380   5.306   6.267   3.591 -0.9932  0.1321 -0.6035
11989TIP3   OH257381   4.234   4.872  12.209  0.3307 -0.3624 -0.8578
11989TIP3    H157382   4.313   4.828  12.179 -0.2113 -1.7380 -0.3473
11989TIP3    H257383   4.174   4.801  12.231 -0.3497  0.6286  0.6126
11990TIP3   OH257384   0.478   2.714  12.355  0.1410 -0.2106  0.3054
11990TIP3    H157385   0.414   2.785  12.360 -0.0444 -0.4062  0.8341
11990TIP3    H257386   0.425   2.634  12.351  0.3312 -0.4108  1.3057
11991TIP3   OH257387   2.528   6.555   4.965  0.1397 -0.4354  0.2777
11991TIP3    H157388   2.457   6.597   5.012 -0.0571  0.5499 -0.8653
11991TIP3    H257389   2.591   6.625   4.948  1.0531 -1.1385  0.6136
11992TIP3   OH257390   6.230   2.215   3.302 -0.0026 -0.4141 -0.2288
11992TIP3    H157391   6.175   2.264   3.241 -0.3066 -0.9844 -0.4211
11992TIP3    H257392   6.313   2.204   3.255 -0.1775 -0.7042 -0.4724
11993TIP3   OH257393   0.939   0.189   1.232  0.2765  0.0704  0.3181
11993TIP3    H157394   0.871   0.148   1.284 -0.1281 -0.8198 -0.8775
11993TIP3    H257395   0.899   0.204   1.147  0.8516  1.7172  0.2980
11994TIP3   OH257396   3.349   3.651  11.875  0.2164 -0.1276 -0.1269
11994TIP3    H157397   3.429   3.680  11.831 -0.2467  1.7178  0.1740
11994TIP3    H257398   3.286   3.721  11.859 -0.6020 -0.4070  1.6792
11995TIP3   OH257399   1.992   4.332   0.731 -0.0937 -0.0058 -0.0755
11995TIP3    H157400   1.957   4.298   0.813 -0.9335 -1.4029 -0.9862
11995TIP3    H257401   1.919   4.379   0.690  0.1069  0.0544 -0.3745
11996TIP3   OH257402   3.942   5.443  14.829 -0.3325 -0.0718 -1.0442
11996TIP3    H157403   4.021   5.486  14.794  0.2514 -0.3057 -0.0500
11996TIP3    H257404   3.912   5.501  14.898 -1.1894  0.1363 -1.5840
11997TIP3   OH257405   5.258   3.322  16.707 -0.0228  0.5765 -0.7190
11997TIP3    H157406   5.231   3.328  16.799  1.7461 -0.9326 -0.0377
11997TIP3    H257407   5.353   3.308  16.711 -0.1917 -1.6252 -2.7055
11998TIP3   OH257408   0.479   6.466  13.198  0.3749  0.2207  0.0550
11998TIP3    H157409   0.457   6.393  13.256 -2.4596  0.5154 -0.5361
11998TIP3    H257410   0.434   6.447  13.116  2.0809  1.1714 -1.1574
11999TIP3   OH257411   6.032   3.725   5.255  0.3901 -0.3185 -0.2227
11999TIP3    H157412   5.987   3.781   5.318 -0.0793 -1.6867  0.6915
11999TIP3    H257413   5.982   3.736   5.174 -0.2190 -0.0931  0.1736
12000TIP3   OH257414   1.209   1.253   2.983 -0.0313  0.0563  0.7306
12000TIP3    H157415   1.182   1.320   3.046  0.3791  1.5955 -0.6572
12000TIP3    H257416   1.174   1.284   2.900  0.3028 -1.4122  0.0135
12001TIP3   OH257417   3.353   0.206   0.259 -0.0577  0.0424 -0.2555
12001TIP3    H157418   3.352   0.196   0.164  2.1161  0.2038 -0.3404
12001TIP3    H257419   3.433   0.161   0.287 -1.3351 -1.1561  1.6631
12002TIP3   OH257420   1.533   3.284  11.324 -0.0881 -0.7368  0.0753
12002TIP3    H157421   1.512   3.198  11.288 -0.0335 -0.2672 -1.0986
12002TIP3    H257422   1.546   3.340  11.248  1.7210 -0.1110  0.7911
12003TIP3   OH257423   3.233   1.027  11.167  0.7889  0.6364 -0.2451
12003TIP3    H157424   3.211   1.108  11.214  1.1052  1.1773 -1.0274
12003TIP3    H257425   3.168   0.964  11.199  2.2399  0.3739  2.5305
12004TIP3   OH257426   4.910   3.555  14.353 -0.1231 -0.0481  0.5352
12004TIP3    H157427   4.881   3.615  14.422  0.0883  0.3590  0.2721
12004TIP3    H257428   4.995   3.590  14.325  0.4260 -0.9780  0.9906
12005TIP3   OH257429   5.514   2.125  16.796  0.0639 -0.4305 -0.1634
12005TIP3    H157430   5.596   2.078  16.814 -0.1655 -1.2319 -1.1299
12005TIP3    H257431   5.526   2.161  16.708 -0.5036 -0.3012 -0.1915
12006TIP3   OH257432   1.849   1.357   3.539 -0.0697  0.2333 -0.2186
12006TIP3    H157433   1.917   1.383   3.476 -0.6248 -0.9022 -1.3238
12006TIP3    H257434   1.798   1.290   3.493 -1.4739  0.5126  0.8756
12007TIP3   OH257435   5.777   3.727  14.024 -0.1092 -0.3146  0.3324
12007TIP3    H157436   5.829   3.778  14.086  0.3587 -1.9901  1.3647
12007TIP3    H257437   5.801   3.762  13.938  0.8783  0.5695  0.9466
12008TIP3   OH257438   5.501   0.738   0.593  0.3480 -0.4505 -0.3620
12008TIP3    H157439   5.463   0.823   0.616  0.6963 -0.8727  2.1324
12008TIP3    H257440   5.511   0.740   0.498 -1.7414  1.3929 -0.6148
12009TIP3   OH257441   0.115   5.138  14.726 -0.1307 -0.1114 -0.5727
12009TIP3    H157442   0.181   5.188  14.773 -0.1845 -0.8353  0.3103
12009TIP3    H257443   0.165   5.083  14.665  0.2381 -1.6899  1.0671
12010TIP3   OH257444   4.233   1.474   2.211 -0.2521 -0.4687  0.1085
12010TIP3    H157445   4.219   1.379   2.207 -1.4416 -0.2698 -0.7198
12010TIP3    H257446   4.326   1.483   2.233  0.4513 -1.8335 -2.0680
12011TIP3   OH257447   4.926   6.284  15.203  0.5136 -0.0840  0.4509
12011TIP3    H157448   5.011   6.240  15.198 -0.0011 -1.0094 -0.5454
12011TIP3    H257449   4.896   6.289  15.112 -0.7866 -0.3609  0.8441
12012TIP3   OH257450   0.919   1.418  12.323 -0.0381  0.3540 -0.4312
12012TIP3    H157451   0.927   1.479  12.396 -1.3311  1.6523 -1.3019
12012TIP3    H257452   0.970   1.459  12.252  2.5682 -1.6733  0.1234
12013TIP3   OH257453   3.352   2.030  15.619 -0.0326 -0.4233  0.1970
12013TIP3    H157454   3.333   1.952  15.670  0.9384 -0.5644  0.3702
12013TIP3    H257455   3.392   2.091  15.681  3.5743 -1.5238 -0.7506
12014TIP3   OH257456   6.281   4.894  16.170  0.2793 -0.1084  0.2959
12014TIP3    H157457   6.301   4.936  16.087  0.0848 -0.6585 -0.0328
12014TIP3    H257458   6.298   4.962  16.236 -0.7193  0.7088 -0.2707
12015TIP3   OH257459   5.168   0.359  14.687  0.0567 -0.0092  0.0907
12015TIP3    H157460   5.257   0.329  14.665  0.9223  1.2193  1.6428
12015TIP3    H257461   5.156   0.330  14.777 -0.8933  0.3595  0.0843
12016TIP3   OH257462   4.747   0.982  11.715  0.2257 -0.1436  0.6947
12016TIP3    H157463   4.785   1.058  11.671  1.7358 -0.1073  1.9458
12016TIP3    H257464   4.661   1.011  11.745 -1.1673 -0.3741 -2.6807
12017TIP3   OH257465   3.127   2.183   1.320  0.2341 -0.0905 -0.1538
12017TIP3    H157466   3.218   2.152   1.321  0.3632 -0.0235 -2.8149
12017TIP3    H257467   3.075   2.106   1.341  0.8467 -0.5216 -0.1905
12018TIP3   OH257468   0.313   5.979  12.683  0.1047 -0.1023  0.3487
12018TIP3    H157469   0.290   6.046  12.619  1.0337  1.4631  1.5665
12018TIP3    H257470   0.238   5.976  12.743 -0.2846 -0.7622 -0.1584
12019TIP3   OH257471   0.656   6.230   1.971 -0.5811 -0.0778 -0.2971
12019TIP3    H157472   0.611   6.278   1.901  1.2991  1.3427 -0.6058
12019TIP3    H257473   0.668   6.142   1.935 -1.4108  0.0538 -0.9442
12020TIP3   OH257474   6.721   6.458   2.418 -0.1140  0.6223 -0.1808
12020TIP3    H157475   6.646   6.401   2.400  1.4554 -1.4045 -0.6537
12020TIP3    H257476   6.740   6.500   2.334 -0.0829  0.3142 -0.3305
12021TIP3   OH257477   4.245   1.434  11.788  0.2495 -0.1127 -0.3765
12021TIP3    H157478   4.292   1.372  11.843  1.7278 -2.3338 -3.7523
12021TIP3    H257479   4.303   1.510  11.782  0.7043 -0.4236  0.0559
12022TIP3   OH257480   4.722   4.417   4.536 -0.0964 -0.1075  0.9327
12022TIP3    H157481   4.751   4.418   4.627  1.3676 -0.1989  0.4968
12022TIP3    H257482   4.700   4.509   4.517  0.6700  0.1109  1.0669
12023TIP3   OH257483   4.918   6.690   0.320 -0.1709  0.0811 -0.1451
12023TIP3    H157484   4.910   6.607   0.272 -2.6668 -0.8646  1.6874
12023TIP3    H257485   5.003   6.684   0.364 -0.7251 -2.0596  0.7898
12024TIP3   OH257486   1.992   6.801  12.650  0.0378  0.1734  0.1246
12024TIP3    H157487   1.979   6.890  12.684 -1.2472  0.4109 -0.8968
12024TIP3    H257488   1.909   6.780  12.606 -0.4753 -2.3143  2.0375
12025TIP3   OH257489   1.534   3.754  13.740  0.3245  0.4363  0.2293
12025TIP3    H157490   1.594   3.825  13.762 -1.3775  1.1538  3.0037
12025TIP3    H257491   1.450   3.780  13.779 -0.3911 -2.9917  1.3468
12026TIP3   OH257492   3.111   1.062   2.200  0.1601  0.0776 -0.2923
12026TIP3    H157493   3.041   1.002   2.174 -0.7582  1.1859 -0.4777
12026TIP3    H257494   3.067   1.146   2.213  1.6158  1.0777 -1.4632
12027TIP3   OH257495   1.308   3.472   0.322 -0.0936 -0.5598 -0.2162
12027TIP3    H157496   1.276   3.420   0.396 -0.5506  0.3887  0.2748
12027TIP3    H257497   1.381   3.421   0.287  0.6899 -0.6444  1.4112
12028TIP3   OH257498   3.933   6.772   4.134  1.1473 -0.3662  0.7679
12028TIP3    H157499   3.958   6.681   4.152 -0.3474 -0.6983  1.3430
12028TIP3    H257500   3.849   6.764   4.088  0.7497  0.7373  1.2727
12029TIP3   OH257501   6.513   4.259  14.490  0.0856 -0.4180  0.4682
12029TIP3    H157502   6.564   4.181  14.510 -1.3356 -1.0535  1.8861
12029TIP3    H257503   6.439   4.228  14.439 -1.5622 -0.4173  2.6929
12030TIP3   OH257504   5.636   3.453  15.179  0.4114 -0.6391  1.1065
12030TIP3    H157505   5.665   3.441  15.270 -0.8974  0.1893  1.6612
12030TIP3    H257506   5.625   3.364  15.146  2.6791 -0.9970  1.1095
12031TIP3   OH257507   2.398   2.648   5.247 -0.2015  0.1295 -0.2015
12031TIP3    H157508   2.442   2.598   5.315  0.1206  0.1417 -0.3971
12031TIP3    H257509   2.440   2.620   5.165  0.9325  1.6943 -0.1961
12032TIP3   OH257510   5.314   2.026  15.567 -0.1420 -0.0345 -0.6553
12032TIP3    H157511   5.287   1.963  15.634  0.4441 -0.6343 -0.9655
12032TIP3    H257512   5.314   2.111  15.611 -0.7600 -0.2787 -0.1799
12033TIP3   OH257513   3.069   3.884  17.057  0.2128 -0.1655 -0.7554
12033TIP3    H157514   3.118   3.815  17.101 -0.0936 -0.1644 -0.4090
12033TIP3    H257515   2.988   3.842  17.027 -0.3462  0.2195  0.1635
12034TIP3   OH257516   1.095   3.383  15.665  0.2025 -0.2235  0.5604
12034TIP3    H157517   1.050   3.385  15.750 -0.6477  1.6062  0.1155
12034TIP3    H257518   1.185   3.409  15.685 -0.2033  1.0486  0.8253
12035TIP3   OH257519   5.750   4.482  15.063 -0.5744  0.2061  0.1319
12035TIP3    H157520   5.806   4.407  15.042 -1.6154 -0.6747  0.4271
12035TIP3    H257521   5.711   4.459  15.147  0.6211  1.9932  1.2499
12036TIP3   OH257522   4.415   4.188  14.659  0.5770  0.2987 -0.0757
12036TIP3    H157523   4.483   4.253  14.679 -0.3728  0.6851  2.1833
12036TIP3    H257524   4.334   4.239  14.659  0.1088 -0.4131 -1.2926
12037TIP3   OH257525   1.935   5.725   3.662 -0.1288 -0.0282 -0.0385
12037TIP3    H157526   1.995   5.799   3.669  0.2668 -0.3784  0.2821
12037TIP3    H257527   1.978   5.654   3.709 -1.0705 -0.1029  0.7487
12038TIP3   OH257528   4.472   1.954   3.241 -0.1366 -0.3072 -0.0883
12038TIP3    H157529   4.447   2.025   3.182  0.1987 -1.4713 -1.6705
12038TIP3    H257530   4.568   1.951   3.235 -0.0166  0.1193  1.2159
12039TIP3   OH257531   1.901   0.878  17.118 -0.3077 -0.4344  0.0136
12039TIP3    H157532   1.833   0.831  17.071  0.2844 -0.5145 -0.7831
12039TIP3    H257533   1.856   0.919  17.192 -0.8763 -2.0203  0.5752
12040TIP3   OH257534   3.474   6.358   2.274  0.8054 -0.2552 -0.3915
12040TIP3    H157535   3.399   6.380   2.218  0.8334 -0.1891 -0.4031
12040TIP3    H257536   3.471   6.423   2.343  0.7760 -0.3317 -0.3209
12041TIP3   OH257537   2.893   1.185  11.267 -0.4156  0.0360  0.1583
12041TIP3    H157538   2.889   1.147  11.179 -1.2528  0.0344  0.1916
12041TIP3    H257539   2.983   1.217  11.275 -0.4146  0.3187 -0.8199
12042TIP3   OH257540   0.274   2.658  11.644  0.4965  0.4356  0.2106
12042TIP3    H157541   0.355   2.704  11.622  0.4145  0.4377 -0.0824
12042TIP3    H257542   0.216   2.673  11.570  0.1768  0.5431  0.4778
12043TIP3   OH257543   3.324   0.739  11.413  0.3119  0.2871 -0.1060
12043TIP3    H157544   3.370   0.812  11.454 -2.6991  1.9607  0.5703
12043TIP3    H257545   3.238   0.774  11.389 -1.7804 -3.2876  1.3210
12044TIP3   OH257546   1.327   1.465  16.832 -0.1031 -0.3008  0.4860
12044TIP3    H157547   1.377   1.384  16.826 -0.0864 -0.2571  0.0322
12044TIP3    H257548   1.276   1.468  16.751 -1.3529 -0.6783  1.2352
12045TIP3   OH257549   0.741   4.918  15.061  0.3444 -0.0091 -0.5215
12045TIP3    H157550   0.657   4.946  15.099 -0.3886 -0.6673 -1.5906
12045TIP3    H257551   0.721   4.903  14.968  1.3162 -1.5366 -0.5198
12046TIP3   OH257552   4.127   4.690   0.675  0.1120 -0.3829 -0.0187
12046TIP3    H157553   4.101   4.601   0.652  0.0300 -0.0488 -1.3417
12046TIP3    H257554   4.059   4.721   0.734 -1.1906 -0.3781 -1.4670
12047TIP3   OH257555   4.994   6.099  16.303  0.1700 -0.4503  0.1723
12047TIP3    H157556   4.969   6.190  16.295  1.9034  0.1176  0.6687
12047TIP3    H257557   4.932   6.061  16.365 -0.8257  0.2553 -0.3701
12048TIP3   OH257558   1.430   4.909   4.472 -0.2045  0.0979  0.5927
12048TIP3    H157559   1.507   4.954   4.508  0.0326 -1.9956  2.9941
12048TIP3    H257560   1.464   4.827   4.436 -1.1868 -0.4753  0.9255
12049TIP3   OH257561   2.531   1.472  14.361  0.3937 -0.3822  0.2082
12049TIP3    H157562   2.554   1.557  14.399 -0.2688 -0.8482  1.7119
12049TIP3    H257563   2.603   1.454  14.300  1.1796  0.7004  0.7633
12050TIP3   OH257564   1.492   4.749   0.526  0.2363  0.5556  0.1212
12050TIP3    H157565   1.547   4.828   0.527 -2.2724  2.4519 -1.0136
12050TIP3    H257566   1.441   4.754   0.606  0.2213 -0.0411  0.1495
12051TIP3   OH257567   2.785   2.057  12.178  0.5974 -0.0409  0.2116
12051TIP3    H157568   2.697   2.028  12.154  0.6105  0.4971 -0.5178
12051TIP3    H257569   2.773   2.145  12.212  1.1919  1.4697 -3.1278
12052TIP3   OH257570   2.432   5.404  15.008  0.2067  0.3141  0.0186
12052TIP3    H157571   2.457   5.472  14.945  0.8626  2.3091  2.2927
12052TIP3    H257572   2.504   5.340  15.004  2.4027  2.5396  1.6274
12053TIP3   OH257573   6.199   1.485  17.178  0.3288 -0.7757 -0.0749
12053TIP3    H157574   6.287   1.459  17.151  0.6112 -0.7538  0.8154
12053TIP3    H257575   6.177   1.558  17.120  1.5180  0.2290  0.7145
12054TIP3   OH257576   1.505   4.715   5.486  0.1851 -0.0606 -0.1161
12054TIP3    H157577   1.544   4.803   5.486 -1.8368  0.9244  1.5976
12054TIP3    H257578   1.554   4.668   5.554 -0.4238  0.6278  0.8334
12055TIP3   OH257579   0.657   3.451   5.028  0.1474 -1.3261 -0.6936
12055TIP3    H157580   0.630   3.497   4.949 -2.7507  1.6478  1.7323
12055TIP3    H257581   0.586   3.389   5.045 -0.5849 -0.1582  0.7757
12056TIP3   OH257582   4.379   3.162   5.060 -0.0542  0.4163 -0.4079
12056TIP3    H157583   4.362   3.077   5.100 -0.7655 -0.1926 -1.9669
12056TIP3    H257584   4.455   3.196   5.108  1.7551 -2.1286 -1.3302
12057TIP3   OH257585   5.315   5.259   5.473  0.3896  0.3259 -0.0169
12057TIP3    H157586   5.377   5.193   5.505 -0.0941  0.0958  0.4490
12057TIP3    H257587   5.347   5.280   5.385 -0.0655 -1.3471 -0.6288
12058TIP3   OH257588   1.669   2.806  10.231 -0.6334  0.4510 -0.2688
12058TIP3    H157589   1.716   2.750  10.294  0.7957 -0.6324 -2.1887
12058TIP3    H257590   1.707   2.893  10.244 -0.5979  0.3276  0.5594
12059TIP3   OH257591   0.926   3.513   5.809 -0.6851 -0.0689  0.2758
12059TIP3    H157592   0.980   3.511   5.729  0.5362  1.4875  1.0149
12059TIP3    H257593   0.978   3.562   5.872 -1.7264 -1.0743  1.9925
12060TIP3   OH257594   4.388   5.729  14.586 -0.0620  0.1581  0.2664
12060TIP3    H157595   4.436   5.651  14.558  1.7146  1.1122  0.5104
12060TIP3    H257596   4.450   5.801  14.573 -1.7679  1.5971 -0.2982
12061TIP3   OH257597   2.449   1.216  12.561  0.3861 -0.3194  0.3207
12061TIP3    H157598   2.376   1.161  12.589  0.5887 -0.5310  0.4361
12061TIP3    H257599   2.414   1.266  12.487  0.2847 -0.8056  0.0391
12062TIP3   OH257600   4.906   4.264   1.025  0.4938  0.0135 -0.4000
12062TIP3    H157601   4.876   4.355   1.034  1.8904  0.4578  0.1043
12062TIP3    H257602   4.838   4.221   0.974 -1.0118  0.9213  0.7735
12063TIP3   OH257603   5.645   5.367   5.691 -0.5688  0.2968  0.1350
12063TIP3    H157604   5.555   5.398   5.700 -0.5237  0.8323 -0.9896
12063TIP3    H257605   5.695   5.446   5.668 -0.5127 -0.5738 -3.1927
12064TIP3   OH257606   1.139   6.135  12.069 -0.1062 -0.2543 -0.0156
12064TIP3    H157607   1.148   6.204  12.135  0.0528 -0.0043 -0.2948
12064TIP3    H257608   1.212   6.149  12.009 -1.1104  0.5031 -1.1332
12065TIP3   OH257609   4.098   2.398   3.764  0.2784  0.0782 -0.5946
12065TIP3    H157610   4.049   2.410   3.846  0.1403 -2.8419 -0.1511
12065TIP3    H257611   4.030   2.381   3.698  0.5043  0.0545 -0.8240
12066TIP3   OH257612   5.409   4.640   2.728 -0.3037 -0.6258 -0.1984
12066TIP3    H157613   5.395   4.619   2.635 -0.5744 -1.3023 -0.0085
12066TIP3    H257614   5.478   4.580   2.756  0.9495  0.6842 -0.3670
12067TIP3   OH257615   3.080   0.309   4.681 -0.2660 -0.1686  0.3044
12067TIP3    H157616   3.011   0.270   4.627 -2.0867  0.6091  1.9089
12067TIP3    H257617   3.055   0.286   4.771  0.9476  1.1074  1.0117
12068TIP3   OH257618   5.885   5.763   6.429 -0.6723 -0.0883  0.0246
12068TIP3    H157619   5.970   5.723   6.449  0.1600  1.5214 -0.1383
12068TIP3    H257620   5.830   5.740   6.503 -0.5807 -2.3903 -0.5337
12069TIP3   OH257621   1.869   2.080  15.546 -0.1888  0.3948  0.5692
12069TIP3    H157622   1.816   2.006  15.520  2.3692 -1.8831  1.3649
12069TIP3    H257623   1.834   2.154  15.496 -1.2763 -1.8238 -2.1973
12070TIP3   OH257624   0.042   2.962   2.509  0.2808  0.2732  0.3215
12070TIP3    H157625   0.048   2.953   2.604  3.1722  0.8571  0.2953
12070TIP3    H257626   0.014   3.053   2.496  1.7728  0.8066  0.6636
12071TIP3   OH257627   0.842   1.081  12.475  0.3646  0.6583  0.3567
12071TIP3    H157628   0.747   1.075  12.481  0.2467  0.0309 -1.4919
12071TIP3    H257629   0.866   1.149  12.538 -1.3687  1.3806  0.2831
12072TIP3   OH257630   5.363   1.814   6.224  0.4969 -0.2741 -0.2206
12072TIP3    H157631   5.406   1.889   6.183 -1.0393 -0.1450 -1.6732
12072TIP3    H257632   5.297   1.852   6.281  0.6503 -0.5235  0.1322
12073TIP3   OH257633   4.936   6.363  14.704 -1.0124 -0.9371 -0.6379
12073TIP3    H157634   4.985   6.445  14.710 -2.2652 -0.2237  0.0806
12073TIP3    H257635   4.872   6.379  14.635 -1.1015 -1.4109 -0.6660
12074TIP3   OH257636   0.892   1.589  12.838  0.1872  0.2532 -0.5809
12074TIP3    H157637   0.878   1.682  12.857  2.0252  0.3969  0.2413
12074TIP3    H257638   0.837   1.544  12.901 -1.4468  0.7365 -1.5837
12075TIP3   OH257639   3.269   5.329   4.391  0.7898 -0.2273 -0.4569
12075TIP3    H157640   3.248   5.238   4.371  0.4777 -0.6404  1.4988
12075TIP3    H257641   3.357   5.325   4.428  0.7797  0.2541 -0.3826
12076TIP3   OH257642   5.650   6.007  14.741  0.0566 -0.1265  0.1847
12076TIP3    H157643   5.601   6.041  14.665  2.2147  0.2685 -1.1069
12076TIP3    H257644   5.685   6.085  14.784  1.5266 -0.4527 -0.3485
12077TIP3   OH257645   3.721   0.714  11.738  0.1937  0.3531 -0.3790
12077TIP3    H157646   3.696   0.691  11.827 -0.4556  0.4494 -0.5284
12077TIP3    H257647   3.652   0.676  11.683 -0.3825  1.7958 -0.6961
12078TIP3   OH257648   4.698   4.860   2.925  0.3216  0.2377  0.0626
12078TIP3    H157649   4.606   4.844   2.942 -0.1990  2.1211 -0.7665
12078TIP3    H257650   4.707   4.955   2.925  2.2583  0.0998  0.0789
12079TIP3   OH257651   1.866   1.917   2.526 -0.4860 -0.3260  0.4787
12079TIP3    H157652   1.804   1.876   2.587 -0.1167 -0.3600  0.8306
12079TIP3    H257653   1.897   1.995   2.572 -0.9055  0.1573 -0.0428
12080TIP3   OH257654   3.836   0.214   5.446  0.0342  0.1843 -0.8230
12080TIP3    H157655   3.761   0.272   5.431 -0.3189  0.0010  0.1700
12080TIP3    H257656   3.896   0.266   5.499 -0.7788 -0.7064  1.0372
12081TIP3   OH257657   5.197   0.247   4.254  0.2768  0.1592  0.2899
12081TIP3    H157658   5.104   0.269   4.255  0.4476  0.9401  0.2069
12081TIP3    H257659   5.228   0.269   4.343  0.3730 -0.1277  0.3275
12082TIP3   OH257660   1.086   1.042   1.797  0.6240  0.2127 -0.4099
12082TIP3    H157661   1.046   1.095   1.866 -0.4763 -1.6201  0.4086
12082TIP3    H257662   1.156   1.098   1.762 -0.4749  2.1855  0.3994
12083TIP3   OH257663   4.440   5.967  12.194 -0.0966 -0.3632  0.7272
12083TIP3    H157664   4.369   5.959  12.258 -0.9950  1.3498  0.0225
12083TIP3    H257665   4.448   5.879  12.157 -0.4555 -1.0678  2.2464
12084TIP3   OH257666   4.634   1.608   6.173  0.3393  0.0515 -0.6600
12084TIP3    H157667   4.616   1.527   6.125 -0.6907 -0.7177  0.9458
12084TIP3    H257668   4.548   1.637   6.204  1.0386 -0.0000  1.4852
12085TIP3   OH257669   6.132   2.418   6.433 -0.0800 -0.2050 -0.2400
12085TIP3    H157670   6.226   2.436   6.436 -0.0406 -0.3775 -0.4304
12085TIP3    H257671   6.107   2.408   6.525 -0.1590  1.0696 -0.0988
12086TIP3   OH257672   4.035   5.337   1.024 -0.4231  0.3796  0.3253
12086TIP3    H157673   4.055   5.244   1.016  2.1758  0.8045  0.9810
12086TIP3    H257674   4.008   5.363   0.936 -3.6007 -1.3724  0.6084
12087TIP3   OH257675   4.912   2.455   2.933  0.0611  0.8284  0.0956
12087TIP3    H157676   4.983   2.509   2.966  1.6394 -1.1625  0.1823
12087TIP3    H257677   4.834   2.489   2.976  1.0978  2.4099  0.8372
12088TIP3   OH257678   3.472   4.719  12.602 -0.0207  0.4615 -0.5558
12088TIP3    H157679   3.446   4.632  12.631 -2.5761  0.6762 -1.8701
12088TIP3    H257680   3.470   4.773  12.681 -0.9884 -0.1471 -0.1523
12089TIP3   OH257681   0.793   0.522  10.916  0.2704 -0.0471 -0.3166
12089TIP3    H157682   0.778   0.479  10.999  1.0533  0.4463  0.0967
12089TIP3    H257683   0.858   0.467  10.872  0.4803  0.1357 -0.2398
12090TIP3   OH257684   6.355   1.772   3.633 -0.1712  0.1411  0.2879
12090TIP3    H157685   6.353   1.746   3.540 -0.5549 -0.3463  0.4253
12090TIP3    H257686   6.265   1.796   3.652 -0.4378 -1.2797  0.9421
12091TIP3   OH257687   5.685   0.776  12.194  0.1735  0.4657  0.4807
12091TIP3    H157688   5.689   0.856  12.247  0.4725  0.2524  0.7816
12091TIP3    H257689   5.686   0.808  12.103 -1.0240  0.8725  0.5846
12092TIP3   OH257690   5.149   0.145  13.084  0.0144 -0.1095  0.3608
12092TIP3    H157691   5.122   0.224  13.129 -0.1061 -0.3617  0.7346
12092TIP3    H257692   5.133   0.163  12.991 -1.0101 -0.0829  0.5332
12093TIP3   OH257693   3.998   5.712  15.436 -0.2908 -0.3755  0.1572
12093TIP3    H157694   3.978   5.676  15.350 -0.8836  1.1006 -0.3648
12093TIP3    H257695   3.935   5.672  15.495 -0.0040 -1.2524 -0.1150
12094TIP3   OH257696   4.416   1.896   1.160  0.1468  0.5076 -0.1634
12094TIP3    H157697   4.373   1.925   1.241  1.1091  0.9263  0.2099
12094TIP3    H257698   4.454   1.811   1.183 -2.6597 -1.1861 -1.2517
12095TIP3   OH257699   0.867   0.898   4.024  0.1130  0.3244  0.4403
12095TIP3    H157700   0.773   0.881   4.016  0.1211  0.3549  0.2805
12095TIP3    H257701   0.903   0.815   4.056  0.2412 -0.1760 -0.9547
12096TIP3   OH257702   0.443   4.910   6.282 -0.0703  0.1032  0.0054
12096TIP3    H157703   0.400   4.920   6.197  0.1650 -0.0765 -0.1343
12096TIP3    H257704   0.415   4.825   6.315  0.4885 -0.1893 -0.2645
12097TIP3   OH257705   3.001   2.102  13.554 -0.2609  0.2950 -0.6235
12097TIP3    H157706   3.079   2.130  13.506 -0.4243  0.6900 -0.6644
12097TIP3    H257707   3.016   2.010  13.573  0.0269  0.2620 -1.0027
12098TIP3   OH257708   4.448   5.529   0.731 -0.0317 -0.4038  0.5809
12098TIP3    H157709   4.418   5.578   0.654  0.8027 -2.3099 -1.0756
12098TIP3    H257710   4.539   5.506   0.709  0.0016 -1.5580  1.8553
12099TIP3   OH257711   5.449   2.147  16.243  0.2337  0.1472  0.9001
12099TIP3    H157712   5.395   2.194  16.180  0.3056 -1.0974 -0.1417
12099TIP3    H257713   5.537   2.148  16.204  0.4102 -0.0951  1.2881
12100TIP3   OH257714   4.978   0.909   2.082 -0.1088 -0.2288  0.5881
12100TIP3    H157715   5.057   0.925   2.030 -1.4675  1.5337 -1.0440
12100TIP3    H257716   4.950   0.821   2.057 -0.7133  0.5636 -1.7638
12101TIP3   OH257717   4.310   4.892   3.411 -0.1337  0.0116  0.3808
12101TIP3    H157718   4.314   4.865   3.502  1.1505 -1.6377 -0.1209
12101TIP3    H257719   4.284   4.813   3.364  4.0942 -0.7052 -1.1990
12102TIP3   OH257720   0.443   4.751  13.441  0.4611 -0.4107 -0.2083
12102TIP3    H157721   0.394   4.702  13.375 -0.4298 -0.8458  0.7414
12102TIP3    H257722   0.432   4.843  13.417  1.5504 -0.6089 -1.5997
12103TIP3   OH257723   6.042   4.726  17.066  0.0584  0.6189 -0.1011
12103TIP3    H157724   6.099   4.803  17.065  0.4948  0.3132  0.7535
12103TIP3    H257725   5.990   4.736  17.146 -0.6767  0.5896 -0.5627
12104TIP3   OH257726   0.405   3.800  15.297 -0.1057 -0.7326 -0.0186
12104TIP3    H157727   0.417   3.851  15.378  0.4737  0.1315 -0.6329
12104TIP3    H257728   0.311   3.782  15.294 -0.4868  1.0736 -0.2141
12105TIP3   OH257729   0.595   4.332   4.992  0.1813  0.2562 -0.2618
12105TIP3    H157730   0.549   4.319   5.074  2.3474 -0.9372  0.8576
12105TIP3    H257731   0.677   4.374   5.017  0.8358 -0.0071 -1.8309
12106TIP3   OH257732   0.454   5.694   3.936 -0.0403 -0.3678 -0.2060
12106TIP3    H157733   0.359   5.704   3.944 -0.2944 -1.7332 -0.9768
12106TIP3    H257734   0.487   5.702   4.025 -0.5878  2.3697 -0.1700
12107TIP3   OH257735   4.860   1.869   4.308 -0.0024 -0.3274 -0.0519
12107TIP3    H157736   4.912   1.941   4.271 -0.0025 -0.9203 -1.2433
12107TIP3    H257737   4.832   1.902   4.394  1.6880  0.2932  0.3002
12108TIP3   OH257738   2.939   6.000   2.272  0.1148  0.2342  0.3299
12108TIP3    H157739   2.908   6.015   2.182  0.6918  1.2621  0.2917
12108TIP3    H257740   2.922   5.907   2.287  1.2570 -0.3022 -1.3479
12109TIP3   OH257741   5.124   5.788  10.684 -0.2854  0.4932 -0.5628
12109TIP3    H157742   5.185   5.720  10.657  1.3456  1.9304 -0.7204
12109TIP3    H257743   5.135   5.794  10.779 -0.7119  0.2674 -0.4995
12110TIP3   OH257744   5.824   0.826  10.561  0.5708  0.3206 -0.1352
12110TIP3    H157745   5.880   0.753  10.532  1.2355  1.4800 -1.9487
12110TIP3    H257746   5.847   0.898  10.502 -2.2773  1.0835 -0.4346
12111TIP3   OH257747   4.719   5.615   2.759  0.3948 -0.0850 -0.1331
12111TIP3    H157748   4.716   5.591   2.666 -0.4356  1.1365 -0.4374
12111TIP3    H257749   4.728   5.710   2.759 -0.9691  0.0659  1.0386
12112TIP3   OH257750   6.700   0.816  11.109  0.4299  0.3101  0.1868
12112TIP3    H157751   6.719   0.847  11.020 -0.3821  0.1279 -0.0554
12112TIP3    H257752   6.735   0.884  11.166  1.9502 -0.0804 -0.2329
12113TIP3   OH257753   0.800   5.564  11.213 -0.5912 -0.2876 -0.3312
12113TIP3    H157754   0.777   5.525  11.129  0.0465  0.5398 -0.9108
12113TIP3    H257755   0.852   5.496  11.258  0.2547 -0.2364 -1.1988
12114TIP3   OH257756   3.381   4.828   4.347  0.4826 -0.2490 -0.6967
12114TIP3    H157757   3.437   4.904   4.335  0.1282  0.3635  1.2234
12114TIP3    H257758   3.441   4.757   4.372  0.5041  0.3506  1.1342
12115TIP3   OH257759   5.048   0.043  16.080  0.1483  0.0134 -0.3923
12115TIP3    H157760   5.126   0.014  16.127 -0.2310 -0.6163 -0.1307
12115TIP3    H257761   4.998   0.092  16.144 -0.4668 -1.0203 -0.0618
12116TIP3   OH257762   3.929   0.398  15.158 -0.1353 -0.7649  0.4098
12116TIP3    H157763   3.959   0.482  15.195  0.8751 -1.2573  0.7622
12116TIP3    H257764   3.834   0.403  15.161 -0.0828  0.0757  1.1281
12117TIP3   OH257765   1.091   0.402   4.857  0.4981 -0.0705  0.2212
12117TIP3    H157766   1.136   0.351   4.789  0.4015  0.0873  0.0396
12117TIP3    H257767   1.161   0.432   4.915  0.4233 -1.8073  1.2816
12118TIP3   OH257768   5.861   1.908  15.791 -0.2246  0.5878 -0.4153
12118TIP3    H157769   5.873   1.923  15.697 -0.5685  0.8016 -0.4266
12118TIP3    H257770   5.950   1.910  15.827 -0.1125  0.7722 -0.6968
12119TIP3   OH257771   0.783   4.800   1.570 -0.2729  0.8586  0.3077
12119TIP3    H157772   0.751   4.791   1.660 -1.2047 -1.5459 -0.1714
12119TIP3    H257773   0.707   4.834   1.522 -0.5313 -0.0116  0.0719
12120TIP3   OH257774   0.981   5.080  16.246  0.0084  0.3256 -0.3674
12120TIP3    H157775   0.966   5.107  16.337 -0.6897  0.9021 -0.6424
12120TIP3    H257776   1.075   5.065  16.241  0.3414  2.0342  0.0085
12121TIP3   OH257777   4.726   5.455  14.182  0.4302 -0.9652 -0.1428
12121TIP3    H157778   4.632   5.446  14.198  0.5243  1.0309  2.0144
12121TIP3    H257779   4.732   5.495  14.096 -0.7931  0.3002  0.3300
12122TIP3   OH257780   2.813   1.494  13.074  0.6603 -0.0678  0.0742
12122TIP3    H157781   2.797   1.400  13.081  0.4020 -0.0837 -0.6260
12122TIP3    H257782   2.876   1.513  13.143  2.3533 -1.1410 -1.0930
12123TIP3   OH257783   6.233   2.143   2.878  0.3364  0.0207  0.6326
12123TIP3    H157784   6.293   2.217   2.864  2.2280 -1.7799 -1.5263
12123TIP3    H257785   6.267   2.100   2.956  1.4703 -0.5875 -0.1768
12124TIP3   OH257786   3.201   3.183   4.422  0.2564  0.7652 -0.4316
12124TIP3    H157787   3.150   3.226   4.490 -0.4651 -0.9707  0.1969
12124TIP3    H257788   3.135   3.153   4.359  0.6242 -0.2290 -0.3596
12125TIP3   OH257789   1.637   4.472  16.757 -0.0483 -0.5284 -0.2735
12125TIP3    H157790   1.712   4.519  16.792 -0.7301 -0.6620  1.4936
12125TIP3    H257791   1.674   4.398  16.710  0.9388 -0.0778 -0.2202
12126TIP3   OH257792   5.277   3.688  13.228 -0.1520 -0.2678  0.2168
12126TIP3    H157793   5.333   3.643  13.291 -1.1715 -1.1568  0.5121
12126TIP3    H257794   5.263   3.624  13.158  0.7572  0.6184 -0.8266
12127TIP3   OH257795   5.387   4.308   2.286  0.1789  0.0502 -0.3116
12127TIP3    H157796   5.464   4.357   2.317 -0.3175 -0.2447  1.4986
12127TIP3    H257797   5.336   4.372   2.237  0.3855  0.8960  0.5493
12128TIP3   OH257798   5.662   1.941   6.147 -0.0248 -0.6965 -0.3805
12128TIP3    H157799   5.644   2.030   6.177 -1.3495 -0.8455 -0.6613
12128TIP3    H257800   5.713   1.901   6.218  0.8117  0.3461 -0.3726
12129TIP3   OH257801   5.132   4.097  10.511  0.4406  0.4019  0.4698
12129TIP3    H157802   5.128   4.042  10.589  0.0543  1.3531  1.1452
12129TIP3    H257803   5.046   4.087  10.471  0.0890  1.1015  1.0240
12130TIP3   OH257804   1.656   5.729  15.980 -0.6406 -0.4717  0.4789
12130TIP3    H157805   1.750   5.727  15.999 -0.2421 -0.8336 -1.3765
12130TIP3    H257806   1.644   5.668  15.908 -2.4271 -0.9036  1.0813
12131TIP3   OH257807   4.766   1.296  11.418 -0.0848  0.1722  1.1213
12131TIP3    H157808   4.703   1.231  11.450 -0.3730 -0.5364 -0.7305
12131TIP3    H257809   4.762   1.287  11.323  2.5429  0.3950  0.9193
12132TIP3   OH257810   5.696   4.489   0.820 -0.0858  0.4862  0.0096
12132TIP3    H157811   5.643   4.479   0.741  0.0869 -0.5521  0.0084
12132TIP3    H257812   5.654   4.430   0.883  0.7845  0.0056  0.1506
12133TIP3   OH257813   1.645   5.730   3.434 -0.1468  0.1634  0.5730
12133TIP3    H157814   1.574   5.792   3.447 -1.0275 -0.8400  0.6750
12133TIP3    H257815   1.627   5.691   3.348  0.9402  0.7336  0.0675
12134TIP3   OH257816   5.871   4.723  15.282  0.0162  0.1006  0.4871
12134TIP3    H157817   5.785   4.714  15.241 -0.3075 -0.4114  1.2685
12134TIP3    H257818   5.873   4.813  15.314  0.7248  0.9000 -1.6311
12135TIP3   OH257819   2.828   1.688   2.862  0.1533 -0.2359  0.4185
12135TIP3    H157820   2.865   1.619   2.917  0.7065 -0.5976 -0.4082
12135TIP3    H257821   2.871   1.678   2.777  0.5060  1.3465  0.3798
12136TIP3   OH257822   1.384   3.758   5.022  0.0340 -0.0270  0.2272
12136TIP3    H157823   1.348   3.788   4.939  0.9074 -1.1543 -0.5865
12136TIP3    H257824   1.311   3.713   5.065 -0.7298  1.4647  0.6040
12137TIP3   OH257825   2.410   0.386   5.475 -0.1762 -0.0935 -0.3705
12137TIP3    H157826   2.363   0.303   5.465  0.8518 -0.7473  0.0817
12137TIP3    H257827   2.347   0.444   5.518  0.1406 -1.7097  2.5670
12138TIP3   OH257828   4.346   1.716   3.224 -0.5396 -0.0732 -0.1782
12138TIP3    H157829   4.294   1.695   3.302 -0.1151  1.1005  0.4457
12138TIP3    H257830   4.393   1.796   3.247  1.9099 -1.3079 -0.5437
12139TIP3   OH257831   2.585   6.579   1.202  0.6320  0.3459  0.3658
12139TIP3    H157832   2.604   6.568   1.295 -0.3823 -3.0614  0.2988
12139TIP3    H257833   2.637   6.512   1.158 -0.9583  0.0560 -1.1961
12140TIP3   OH257834   6.603   5.176   0.625  0.1020 -0.3337 -0.4690
12140TIP3    H157835   6.550   5.230   0.567  1.0636  0.6517 -0.4620
12140TIP3    H257836   6.693   5.198   0.603  0.4954 -0.8845  0.5231
12141TIP3   OH257837   6.488   3.928  12.805 -0.1997  0.8181 -0.5641
12141TIP3    H157838   6.406   3.977  12.817  0.2297  1.4060  0.0290
12141TIP3    H257839   6.482   3.893  12.716 -1.7818 -0.4333 -0.0160
12142TIP3   OH257840   2.956   5.847   1.203 -0.1203 -0.7046  0.0850
12142TIP3    H157841   3.032   5.828   1.258 -0.8059  1.8939  2.1507
12142TIP3    H257842   2.989   5.909   1.138 -0.1745 -0.4904  0.2561
12143TIP3   OH257843   4.021   5.055   1.374  0.0271 -0.3244  0.6473
12143TIP3    H157844   4.096   5.022   1.325 -0.5624 -0.0770 -0.4554
12143TIP3    H257845   3.967   4.977   1.389  0.2799 -0.4261  1.0558
12144TIP3   OH257846   2.208   0.580   2.723  0.2961  0.0762  0.7693
12144TIP3    H157847   2.193   0.673   2.702 -0.2247 -0.3374 -0.8608
12144TIP3    H257848   2.273   0.581   2.793  0.3880  1.6720  0.6945
12145TIP3   OH257849   3.137   6.625  13.224 -0.8029 -0.3894  0.3088
12145TIP3    H157850   3.084   6.703  13.238  0.6560  0.4002  1.8709
12145TIP3    H257851   3.075   6.557  13.198 -2.0826  1.3454 -1.4852
12146TIP3   OH257852   2.606   0.579  12.961  0.0949  0.3183 -0.0500
12146TIP3    H157853   2.657   0.593  12.881 -1.0638 -0.5181 -0.9654
12146TIP3    H257854   2.673   0.567  13.029  1.1173  0.4024 -1.0009
12147TIP3   OH257855   5.470   0.008   5.835 -0.2122  0.0420 -0.2696
12147TIP3    H157856   5.457   0.092   5.879  0.6274  0.5956 -1.0162
12147TIP3    H257857   5.447   0.025   5.744 -1.4035 -0.9340 -0.1711
12148TIP3   OH257858   0.243   5.294   4.010  0.4959  0.3002 -0.0515
12148TIP3    H157859   0.263   5.207   3.976 -0.1973 -1.3001  3.1792
12148TIP3    H257860   0.320   5.347   3.988  1.6433 -1.5588 -0.7369
12149TIP3   OH257861   1.954   4.422   3.870  0.5471  0.1605 -0.0057
12149TIP3    H157862   1.947   4.494   3.806  0.2825 -0.2133 -0.4017
12149TIP3    H257863   1.997   4.351   3.822 -0.5614 -0.4800 -0.0848
12150TIP3   OH257864   4.722   3.428   4.135 -0.0264  0.5503  0.3217
12150TIP3    H157865   4.704   3.352   4.190  1.3136 -0.1289 -0.1197
12150TIP3    H257866   4.737   3.499   4.196 -2.1178  0.6983  0.7297
12151TIP3   OH257867   5.132   1.809   0.983 -0.3905 -0.2581  0.2608
12151TIP3    H157868   5.099   1.897   1.002  1.1447  0.5677 -0.6830
12151TIP3    H257869   5.226   1.821   0.969 -0.2181 -1.9925 -0.2932
12152TIP3   OH257870   1.341   2.475   4.156  0.0940 -0.0332 -0.2729
12152TIP3    H157871   1.282   2.526   4.100 -0.1960 -0.3895 -0.2936
12152TIP3    H257872   1.299   2.474   4.241 -0.2156 -0.7743 -0.4329
12153TIP3   OH257873   4.098   3.535  14.904 -0.0750  0.0998  0.0180
12153TIP3    H157874   4.010   3.504  14.926 -0.4620  1.4616  0.5245
12153TIP3    H257875   4.100   3.536  14.809 -1.8639  3.1768 -0.1377
12154TIP3   OH257876   1.874   0.343  15.388  0.7754 -0.2837  0.3094
12154TIP3    H157877   1.850   0.373  15.476 -1.0666 -0.5463 -0.0482
12154TIP3    H257878   1.953   0.391  15.366  1.2980 -0.2407  2.1227
12155TIP3   OH257879   2.624   5.767  10.966  0.0611  0.4087 -0.0265
12155TIP3    H157880   2.596   5.712  11.039 -1.2294 -0.6967 -1.3051
12155TIP3    H257881   2.690   5.825  11.004 -0.9131  0.2115  2.1335
12156TIP3   OH257882   1.682   0.660  11.398 -0.0309 -0.2421  0.5883
12156TIP3    H157883   1.770   0.667  11.436  0.3428 -0.7965 -0.1522
12156TIP3    H257884   1.669   0.566  11.387 -0.2528 -0.1058 -0.3728
12157TIP3   OH257885   0.476   4.291   3.863  0.2681  0.0019 -0.2266
12157TIP3    H157886   0.429   4.366   3.899  1.1963 -0.1563  1.4176
12157TIP3    H257887   0.408   4.238   3.822 -0.3646  1.9059 -1.8294
12158TIP3   OH257888   6.630   4.982  12.445  0.3243 -0.0796  0.0941
12158TIP3    H157889   6.587   4.990  12.530  0.3985  1.3032  0.0182
12158TIP3    H257890   6.584   5.045  12.389  0.7749 -0.4288 -0.6823
12159TIP3   OH257891   5.800   1.519  11.350  0.2604 -0.2797 -0.4746
12159TIP3    H157892   5.718   1.502  11.396  0.3302 -0.8992 -0.5681
12159TIP3    H257893   5.800   1.613  11.333  0.1122 -0.0771  0.5782
12160TIP3   OH257894   6.648   2.360  14.071 -0.3233  0.1500  0.2930
12160TIP3    H157895   6.631   2.333  13.981 -1.6051 -0.4290  0.6728
12160TIP3    H257896   6.737   2.332  14.089 -0.8636 -1.9429 -0.0418
12161TIP3   OH257897   5.624   4.304   1.011  0.7416  0.1492  0.0746
12161TIP3    H157898   5.558   4.332   1.074  2.0694 -0.0231  1.5977
12161TIP3    H257899   5.585   4.227   0.969 -0.5177  0.7752  0.0461
12162TIP3   OH257900   4.468   5.956  17.009 -0.1945  0.7201  0.1147
12162TIP3    H157901   4.428   5.925  16.928 -0.5554  0.8524  0.2365
12162TIP3    H257902   4.393   5.977  17.065  0.0386 -0.4191  0.8858
12163TIP3   OH257903   1.267   4.104   1.033 -0.3103  0.0394 -0.1545
12163TIP3    H157904   1.190   4.152   1.064  0.4532  0.6457  0.8545
12163TIP3    H257905   1.239   4.012   1.033 -0.6917  0.1243  1.3658
12164TIP3   OH257906   2.481   6.420  13.865  0.4793 -0.4871 -0.0287
12164TIP3    H157907   2.570   6.451  13.882  0.2623  0.4845 -0.6246
12164TIP3    H257908   2.429   6.500  13.858 -0.4473 -1.0529  0.3394
12165TIP3   OH257909   3.320   4.245   4.825 -0.9727 -0.0823 -0.0019
12165TIP3    H157910   3.409   4.255   4.860 -1.8605 -1.0890  2.8401
12165TIP3    H257911   3.328   4.266   4.732  2.0142  0.8897  0.3733
12166TIP3   OH257912   4.468   0.233  15.768 -0.9643 -0.1991  0.2958
12166TIP3    H157913   4.453   0.325  15.791  0.3247  0.1684 -0.2192
12166TIP3    H257914   4.486   0.190  15.851 -1.7858 -0.0397  0.5650
12167TIP3   OH257915   2.852   6.778   1.887  0.3320  0.6102 -0.3218
12167TIP3    H157916   2.905   6.735   1.954 -1.0688  0.1634  0.5434
12167TIP3    H257917   2.827   6.862   1.925  0.7531  1.0009 -0.8889
12168TIP3   OH257918   2.778   1.805  11.687  0.1312 -0.2475  0.1946
12168TIP3    H157919   2.782   1.878  11.749 -1.4184  0.0558 -0.0321
12168TIP3    H257920   2.809   1.729  11.737  1.9921  0.5664  0.3591
12169TIP3   OH257921   5.814   0.309  11.163  0.1274  0.0603 -0.5691
12169TIP3    H157922   5.845   0.244  11.226 -0.4162 -1.6151 -1.9784
12169TIP3    H257923   5.724   0.328  11.191 -0.2501 -0.9784 -1.0688
12170TIP3   OH257924   0.422   3.384   4.817 -0.2048  0.0481  0.3367
12170TIP3    H157925   0.475   3.328   4.761 -2.1414 -1.0130 -0.5625
12170TIP3    H257926   0.364   3.430   4.756 -0.9658  0.4236  1.3226
12171TIP3   OH257927   0.967   0.256  10.195  0.0690  0.3801 -0.4137
12171TIP3    H157928   0.939   0.326  10.135 -0.0674  0.9602  0.3215
12171TIP3    H257929   0.968   0.297  10.281  1.4508 -0.1197 -0.1737
12172TIP3   OH257930   4.568   3.483  10.615  0.6321 -0.0987 -0.5676
12172TIP3    H157931   4.515   3.464  10.538 -0.5586  0.3154  0.1168
12172TIP3    H257932   4.630   3.410  10.621 -0.1769 -0.8457 -1.1223
12173TIP3   OH257933   4.669   5.053  15.058  0.1182 -0.1508  0.0850
12173TIP3    H157934   4.611   5.038  14.984  0.4019 -0.9837  0.0237
12173TIP3    H257935   4.617   5.106  15.119  0.4363  2.0456 -1.4176
12174TIP3   OH257936   4.124   2.051  15.276  0.0335 -0.3412 -0.3392
12174TIP3    H157937   4.206   2.005  15.295 -0.2623  0.0501  2.1970
12174TIP3    H257938   4.137   2.139  15.311 -1.8437 -0.6311  1.2558
12175TIP3   OH257939   1.249   6.633  11.586 -0.3912 -0.1253  0.3831
12175TIP3    H157940   1.186   6.705  11.579  1.0369  1.1862  0.3138
12175TIP3    H257941   1.309   6.661  11.656  0.5043 -1.0016 -0.0159
12176TIP3   OH257942   3.635   4.881   5.480  0.3261 -0.0705  0.2747
12176TIP3    H157943   3.662   4.794   5.509  0.2560  0.3792  1.7675
12176TIP3    H257944   3.539   4.880   5.487  0.0829 -0.7063 -2.2395
12177TIP3   OH257945   5.551   3.212  15.056 -0.4606 -0.3099  0.1395
12177TIP3    H157946   5.489   3.176  14.993 -2.2527  0.8053  1.1699
12177TIP3    H257947   5.511   3.192  15.142  0.0075  1.4132  0.7952
12178TIP3   OH257948   6.164   4.840  13.884 -0.7595 -0.9379 -0.0921
12178TIP3    H157949   6.219   4.763  13.898  0.4222  0.0907  1.2061
12178TIP3    H257950   6.173   4.890  13.964 -0.8462  0.9721 -1.2273
12179TIP3   OH257951   4.824   5.874  14.254 -0.0965 -0.3734  0.6214
12179TIP3    H157952   4.900   5.850  14.201  0.2192 -1.4776  1.5484
12179TIP3    H257953   4.802   5.795  14.302 -2.3995 -0.3506 -0.2622
12180TIP3   OH257954   3.987   6.090  11.781 -0.3238 -0.2285  0.2706
12180TIP3    H157955   3.942   6.170  11.754  0.6336 -0.1043 -1.0482
12180TIP3    H257956   3.934   6.019  11.746  0.0110 -0.1028 -0.5167
12181TIP3   OH257957   0.089   3.780   2.221 -0.6776  0.2680 -0.1600
12181TIP3    H157958   0.085   3.685   2.228  0.0797  0.2623  0.3785
12181TIP3    H257959  -0.001   3.809   2.230 -1.0538 -0.4539 -1.3726
12182TIP3   OH257960   6.103   3.624  16.520  0.0733 -0.4823 -0.2993
12182TIP3    H157961   6.123   3.591  16.432  0.1148 -2.6639  0.4743
12182TIP3    H257962   6.144   3.561  16.579 -0.4740  0.6114  1.2960
12183TIP3   OH257963   5.928   2.612  13.703 -0.4168  0.0565 -0.4934
12183TIP3    H157964   5.849   2.659  13.676 -0.4511 -0.3203 -1.0792
12183TIP3    H257965   5.993   2.681  13.717 -0.6813  0.3316 -0.6022
12184TIP3   OH257966   2.106   1.524  16.095  0.2998 -0.6662  0.2791
12184TIP3    H157967   2.185   1.479  16.064 -0.7355 -1.2455 -1.6460
12184TIP3    H257968   2.112   1.519  16.191  3.1203  0.2547  0.2699
12185TIP3   OH257969   6.786   5.645   3.316 -0.1663  0.2703 -0.4112
12185TIP3    H157970   6.826   5.603   3.392  1.7875  0.9892 -1.0042
12185TIP3    H257971   6.820   5.734   3.317 -3.1022  1.4971 -0.0105
12186TIP3   OH257972   3.670   0.945   4.181  0.3503  0.3287 -0.0195
12186TIP3    H157973   3.640   1.016   4.237  0.2934 -0.3408  0.8212
12186TIP3    H257974   3.763   0.963   4.166  0.3022  0.6474  0.0705
12187TIP3   OH257975   3.273   2.157   3.525  0.2702 -0.8429  0.3197
12187TIP3    H157976   3.221   2.227   3.485 -1.4442 -1.9764  0.4775
12187TIP3    H257977   3.329   2.202   3.588  1.1133  0.6723 -1.3998
12188TIP3   OH257978   5.375   5.843  11.790 -0.2473  0.2614 -0.0980
12188TIP3    H157979   5.442   5.860  11.856 -0.4355  1.1774 -0.1326
12188TIP3    H257980   5.293   5.841  11.840 -0.0522 -3.1658  0.3298
12189TIP3   OH257981   4.672   4.992   3.621  1.5983 -0.1504 -0.2437
12189TIP3    H157982   4.658   5.014   3.529 -1.6304  1.6400  0.5244
12189TIP3    H257983   4.725   5.065   3.654 -0.9104  1.6513  0.1357
12190TIP3   OH257984   3.154   6.467   3.421  0.0742 -0.6580 -0.6022
12190TIP3    H157985   3.096   6.528   3.376  0.7282  1.3128  1.1026
12190TIP3    H257986   3.103   6.437   3.497  0.1746 -1.3647 -0.8058
12191TIP3   OH257987   1.825   0.249  13.126 -0.2686 -0.1174  0.1414
12191TIP3    H157988   1.845   0.326  13.180  1.6983  0.4649 -1.2911
12191TIP3    H257989   1.874   0.264  13.044 -1.6027 -1.8598 -1.0483
12192TIP3   OH257990   6.616   5.210   5.913 -0.1818 -0.0192  0.2176
12192TIP3    H157991   6.637   5.215   5.820  1.0216  2.5221  0.5297
12192TIP3    H257992   6.693   5.170   5.954 -0.5527 -0.7849  0.1834
12193TIP3   OH257993   5.858   6.498   3.955  0.0686  0.0008  0.8061
12193TIP3    H157994   5.856   6.590   3.928 -0.4130  0.3796  2.0971
12193TIP3    H257995   5.798   6.455   3.894  2.5099 -0.0690 -1.7826
12194TIP3   OH257996   2.240   3.813   5.074 -0.6604  0.0890 -0.1685
12194TIP3    H157997   2.159   3.848   5.112 -0.7873  0.8282 -1.1036
12194TIP3    H257998   2.213   3.734   5.027 -0.5709 -0.5795  0.8612
12195TIP3   OH257999   5.634   5.985   1.924  0.3564  0.0158 -0.7106
12195TIP3    H158000   5.728   6.001   1.936  0.1393  1.0138 -0.2287
12195TIP3    H258001   5.594   6.021   2.004 -0.4725 -0.0333 -1.0977
12196TIP3   OH258002   4.910   0.431   4.638  0.1656 -0.0782 -0.3670
12196TIP3    H158003   4.859   0.360   4.598 -0.3505  0.0475  0.0529
12196TIP3    H258004   4.863   0.451   4.719  0.2193  0.8466 -0.5546
12197TIP3   OH258005   1.378   0.352   5.776 -0.1170  0.2568 -0.0313
12197TIP3    H158006   1.300   0.331   5.725 -2.6555  2.0566  2.7534
12197TIP3    H258007   1.372   0.296   5.853  2.5628 -1.0238 -0.6264
12198TIP3   OH258008   0.033   3.504  13.140  0.0428 -0.2201 -0.2349
12198TIP3    H158009  -0.053   3.521  13.099  1.0276  1.7759 -1.6714
12198TIP3    H258010   0.025   3.542  13.228 -0.5305  0.0127 -0.3803
12199TIP3   OH258011   0.557   4.048  14.294 -0.2601  0.4056  0.2711
12199TIP3    H158012   0.505   3.970  14.314  0.3965 -0.7926 -2.3405
12199TIP3    H258013   0.496   4.107  14.250 -0.5681  1.1397  1.6032
12200TIP3   OH258014   0.772   4.165  12.753 -0.3146  0.4541 -0.3190
12200TIP3    H158015   0.805   4.229  12.690 -0.5439 -0.9694 -1.9602
12200TIP3    H258016   0.851   4.119  12.784 -0.2602  0.7418 -0.0255
12201TIP3   OH258017   3.053   4.794   2.568  0.3578  0.4413 -0.1767
12201TIP3    H158018   3.000   4.864   2.605  0.4408  0.6697 -0.4846
12201TIP3    H258019   3.098   4.756   2.643 -2.2417 -1.5340  0.5514
12202TIP3   OH258020   6.519   0.206  15.344 -0.0835  0.1111 -0.1013
12202TIP3    H158021   6.504   0.295  15.311 -0.1761 -0.0472 -0.4853
12202TIP3    H258022   6.490   0.210  15.436 -0.0692  0.4803 -0.1097
12203TIP3   OH258023   2.250   6.696   2.479  0.4192 -0.5333  0.1349
12203TIP3    H158024   2.201   6.768   2.441  0.0786 -1.2462 -0.8223
12203TIP3    H258025   2.211   6.617   2.440  0.3515 -1.2843  1.6205
12204TIP3   OH258026   5.651   5.426   0.913 -0.3643  0.2872  0.1979
12204TIP3    H158027   5.607   5.482   0.977 -1.7627 -0.7711  0.2136
12204TIP3    H258028   5.622   5.461   0.828  0.2497  0.7285  0.1664
12205TIP3   OH258029   6.569   0.368  16.726  0.1053  0.1868  0.2187
12205TIP3    H158030   6.561   0.423  16.804  0.5900  0.1106  0.3257
12205TIP3    H258031   6.495   0.394  16.670  0.3347  0.9512  0.2641
12206TIP3   OH258032   3.775   2.586  16.225  0.3384  0.1157 -0.1898
12206TIP3    H158033   3.790   2.679  16.212  0.4648  0.1150 -0.0490
12206TIP3    H258034   3.842   2.543  16.172 -0.3428  0.0905 -1.0548
12207TIP3   OH258035   0.895   3.724   0.930 -0.1337 -0.4211 -0.4466
12207TIP3    H158036   0.800   3.718   0.943 -0.0792  1.3192  1.0417
12207TIP3    H258037   0.932   3.672   1.001  0.0345 -0.0974 -0.2954
12208TIP3   OH258038   4.198   4.934   1.197 -0.1932 -0.1818  0.2038
12208TIP3    H158039   4.250   4.854   1.206  1.1949  0.6520 -0.1816
12208TIP3    H258040   4.258   4.998   1.159 -1.5780  0.7465 -0.5211
12209TIP3   OH258041   6.601   0.994   5.281  0.1531  0.4460 -0.0357
12209TIP3    H158042   6.678   1.011   5.335 -0.4330  0.0034  0.9710
12209TIP3    H258043   6.637   0.968   5.196  1.1067  0.5452  0.3180
12210TIP3   OH258044   4.305   6.177   4.132  0.1154 -1.2426 -0.3172
12210TIP3    H158045   4.272   6.198   4.044 -0.2249  0.0292  0.0923
12210TIP3    H258046   4.388   6.225   4.138 -0.5070 -0.2183  0.5158
12211TIP3   OH258047   6.670   3.132  14.548  0.1615 -0.2301 -0.3317
12211TIP3    H158048   6.731   3.198  14.516 -0.1191  0.9911  1.4676
12211TIP3    H258049   6.627   3.174  14.623 -2.4174 -1.2826 -1.1250
12212TIP3   OH258050   0.794   3.262   3.919 -0.3291  0.2696 -0.0750
12212TIP3    H158051   0.882   3.240   3.950 -0.7796 -1.5353  0.0147
12212TIP3    H258052   0.807   3.286   3.827  0.2099 -0.3777 -0.1772
12213TIP3   OH258053   3.324   3.801   4.572  0.2956 -0.2752  0.4986
12213TIP3    H158054   3.405   3.840   4.605  0.9083 -0.8710 -0.2326
12213TIP3    H258055   3.257   3.827   4.635  1.1887 -0.3658  1.5221
12214TIP3   OH258056   5.247   3.715   0.767  0.0465 -0.3207  0.2250
12214TIP3    H158057   5.251   3.695   0.673  1.9594  2.3843 -0.4088
12214TIP3    H258058   5.338   3.736   0.790 -0.5096 -0.1964  2.5047
12215TIP3   OH258059   4.533   3.067  11.601  0.2477  0.2953  0.5789
12215TIP3    H158060   4.622   3.035  11.588 -0.5270 -1.2451 -1.4102
12215TIP3    H258061   4.487   2.993  11.640 -0.6817  0.3019 -0.4858
12216TIP3   OH258062   0.380   2.263  16.936  0.1580 -0.6276  0.1140
12216TIP3    H158063   0.447   2.257  17.005  1.2333  1.4816 -0.6439
12216TIP3    H258064   0.338   2.348  16.951 -1.1827 -1.1618 -0.4742
12217TIP3   OH258065   1.428   5.638  11.586 -0.2422 -0.5716  0.1536
12217TIP3    H158066   1.501   5.591  11.626 -0.0097  0.5982  1.1567
12217TIP3    H258067   1.393   5.693  11.657  0.6348  2.1282 -1.3520
12218TIP3   OH258068   3.320   5.709  14.472  0.2359  0.2680  0.1204
12218TIP3    H158069   3.345   5.780  14.531  0.0578  0.2339  0.2379
12218TIP3    H258070   3.372   5.634  14.502 -0.5795 -0.0185  0.8751
12219TIP3   OH258071   5.584   0.395  13.719 -0.2265  0.8028  0.0565
12219TIP3    H158072   5.546   0.333  13.781 -0.3500  0.0193 -0.7834
12219TIP3    H258073   5.624   0.463  13.774  0.3582 -0.2849  1.0001
12220TIP3   OH258074   2.976   0.172   5.602  0.2451 -0.3793 -0.3285
12220TIP3    H158075   2.979   0.265   5.581 -0.8365 -0.4732 -1.0133
12220TIP3    H258076   3.018   0.165   5.688  1.5041  0.5476 -0.8265
12221TIP3   OH258077   2.686   4.763  15.846 -0.3124 -0.1104 -0.1153
12221TIP3    H158078   2.602   4.724  15.819 -0.7856  0.3266  0.6808
12221TIP3    H258079   2.664   4.852  15.873  0.6189  0.4265 -1.0538
12222TIP3   OH258080   0.502   1.676  12.152 -0.0153  0.4551  0.0509
12222TIP3    H158081   0.503   1.682  12.247  1.5169 -0.7063  0.1458
12222TIP3    H258082   0.462   1.591  12.134  3.1130 -1.1302 -0.1190
12223TIP3   OH258083   2.176   1.912  12.052 -0.2550 -0.0603 -0.5730
12223TIP3    H158084   2.184   2.005  12.034  0.6080  0.2312  1.1254
12223TIP3    H258085   2.247   1.872  12.003  0.3661  0.3849 -0.0577
12224TIP3   OH258086   1.238   6.607  12.263 -0.0086  0.0360  0.1037
12224TIP3    H158087   1.310   6.620  12.325 -1.0758  2.4357  0.9499
12224TIP3    H258088   1.247   6.678  12.200 -0.0781 -1.2534 -1.4308
12225TIP3   OH258089   3.089   0.201   2.641 -0.0295 -0.9519 -0.7794
12225TIP3    H158090   3.021   0.142   2.671  0.1460 -0.2104  1.1864
12225TIP3    H258091   3.171   0.160   2.668  0.1016  0.0421  0.4126
12226TIP3   OH258092   6.093   2.158  16.174  0.1027  0.0216 -0.3632
12226TIP3    H158093   6.124   2.233  16.225  0.6423 -0.6588  0.3422
12226TIP3    H258094   6.106   2.083  16.232  0.1991 -0.7035 -1.2949
12227TIP3   OH258095   1.123   6.353   1.697  0.1270 -0.0254  0.2751
12227TIP3    H158096   1.064   6.284   1.666  1.7628 -0.6345 -1.7102
12227TIP3    H258097   1.067   6.410   1.749 -1.8295 -1.4952 -0.0736
12228TIP3   OH258098   2.592   5.188   4.658  0.3669  0.8579  0.2265
12228TIP3    H158099   2.618   5.102   4.689 -1.4106  0.4472  0.6911
12228TIP3    H258100   2.651   5.206   4.584  0.6312 -0.8395 -0.0109
12229TIP3   OH258101   1.754   0.340   3.182 -0.3441 -0.5992  0.5510
12229TIP3    H158102   1.830   0.326   3.239 -0.4790 -2.0641  0.4262
12229TIP3    H258103   1.719   0.252   3.167 -1.9263  0.0216  0.3921
12230TIP3   OH258104   5.232   2.325   3.987 -0.2590 -0.5338 -0.8587
12230TIP3    H158105   5.173   2.255   4.014 -0.3393  0.2408  1.1552
12230TIP3    H258106   5.320   2.290   3.999 -0.2315  0.3929  2.4990
12231TIP3   OH258107   0.686   0.090  16.744 -0.8801  0.2017 -0.3687
12231TIP3    H158108   0.596   0.107  16.769 -0.4037  0.5056  1.3204
12231TIP3    H258109   0.684   0.080  16.649 -2.9480 -1.5402 -0.2056
12232TIP3   OH258110   2.587   5.755  17.153 -0.1779 -0.4785 -1.0005
12232TIP3    H158111   2.587   5.788  17.244  1.0773 -0.7059 -0.9137
12232TIP3    H258112   2.631   5.824  17.103  2.4060 -1.9067 -0.8343
12233TIP3   OH258113   1.934   1.191   3.016  0.3562 -0.6062 -0.3994
12233TIP3    H158114   1.895   1.134   2.950 -1.0123  1.4868 -1.5465
12233TIP3    H258115   1.981   1.258   2.966 -3.1392  2.8038  0.2944
12234TIP3   OH258116   6.520   5.899  17.073  0.1972 -0.4722 -0.2353
12234TIP3    H158117   6.463   5.976  17.069 -0.3287 -0.8059  0.3938
12234TIP3    H258118   6.581   5.918  17.144 -0.0809 -0.7153  0.0776
12235TIP3   OH258119   4.776   4.992   0.468  0.5287  0.4050 -0.0639
12235TIP3    H158120   4.855   5.037   0.494  0.6249 -0.1732  0.6773
12235TIP3    H258121   4.728   5.056   0.415  0.8317  1.2328  0.6392
12236TIP3   OH258122   2.703   5.674   4.105  0.1640 -0.7103  0.0231
12236TIP3    H158123   2.735   5.584   4.114  0.9920 -0.3277  1.2247
12236TIP3    H258124   2.778   5.722   4.070  0.1597 -0.2452  0.6401
12237TIP3   OH258125   6.506   3.092   2.312  0.8828 -0.3020  0.4235
12237TIP3    H158126   6.515   3.058   2.401  1.1325 -3.0516 -0.5492
12237TIP3    H258127   6.544   3.023   2.257 -2.9040 -0.6787 -2.1095
12238TIP3   OH258128   4.359   2.046  14.629  0.0755 -0.4267 -0.3368
12238TIP3    H158129   4.410   2.085  14.558 -0.3106  2.0078  0.6203
12238TIP3    H258130   4.425   2.013  14.690  0.4657 -0.1650 -0.6080
12239TIP3   OH258131   0.528   0.285  16.575 -0.0410 -0.0385 -0.3782
12239TIP3    H158132   0.583   0.302  16.498  0.3302  2.1198  0.3035
12239TIP3    H258133   0.567   0.337  16.645 -2.4075  0.8811  0.3660
12240TIP3   OH258134   2.348   2.660   0.656 -0.6549  0.0027 -0.0637
12240TIP3    H158135   2.279   2.634   0.718 -1.5865  1.8589 -0.2560
12240TIP3    H258136   2.317   2.628   0.572 -0.8616  0.0933 -0.0229
12241TIP3   OH258137   4.863   5.585  11.068 -0.6653 -0.0393 -0.4046
12241TIP3    H158138   4.777   5.552  11.096 -1.3958  1.5617 -0.6321
12241TIP3    H258139   4.924   5.514  11.089 -2.0061 -1.1291 -0.0308
12242TIP3   OH258140   0.941   6.623  15.225  0.2570 -0.2670 -0.4126
12242TIP3    H158141   0.885   6.653  15.153  0.8154  0.2559 -0.6365
12242TIP3    H258142   1.026   6.609  15.185  0.5028 -0.2338  0.0938
12243TIP3   OH258143   3.437   6.511  15.460  0.6015  0.2232  0.3550
12243TIP3    H158144   3.474   6.457  15.529 -1.7390 -1.4814  0.4016
12243TIP3    H258145   3.483   6.484  15.381  1.5549  0.3691  0.8523
12244TIP3   OH258146   4.618   0.867   2.078  0.0745 -0.0393 -0.2335
12244TIP3    H158147   4.653   0.782   2.107  0.5986  0.1628 -0.2597
12244TIP3    H258148   4.678   0.895   2.010  0.7247  0.9950  0.7260
12245TIP3   OH258149   4.103   1.065  15.791 -0.3414  0.4178 -0.4471
12245TIP3    H158150   4.020   1.089  15.750  0.2203  0.1388 -1.8239
12245TIP3    H258151   4.167   1.071  15.720  0.5364 -0.9699  0.1753
12246TIP3   OH258152   5.688   1.032   0.793  0.2640 -0.6667 -0.6057
12246TIP3    H158153   5.703   1.099   0.860 -0.3351 -0.7256 -0.4059
12246TIP3    H258154   5.747   0.961   0.817  1.1581 -0.0731 -1.0174
12247TIP3   OH258155   5.531   2.475   4.879  0.1341  0.3103 -0.2278
12247TIP3    H158156   5.600   2.468   4.944 -1.1626 -0.4142  1.1475
12247TIP3    H258157   5.488   2.559   4.898 -1.3790 -0.7058  1.0991
12248TIP3   OH258158   5.347   4.033  10.360  0.0321  0.5486 -0.1605
12248TIP3    H158159   5.276   4.054  10.421 -0.4150 -1.3131  0.0495
12248TIP3    H258160   5.303   3.988  10.287  0.9843 -0.9643  0.1469
12249TIP3   OH258161   6.557   3.798  10.314 -0.1196 -0.0020 -0.5996
12249TIP3    H158162   6.523   3.816  10.402 -0.3048  0.9328 -0.8477
12249TIP3    H258163   6.483   3.815  10.256 -0.6481 -2.6524 -0.8242
12250TIP3   OH258164   2.911   0.040   2.344 -0.6299  0.5418 -0.0479
12250TIP3    H158165   2.877   0.091   2.270 -1.7374 -0.1690 -0.0580
12250TIP3    H258166   3.006   0.041   2.333 -0.7895  0.0902 -1.7241
12251TIP3   OH258167   2.296   5.760   4.845 -0.0287 -0.2195 -0.3113
12251TIP3    H158168   2.216   5.760   4.898 -0.4667  3.0283 -0.7536
12251TIP3    H258169   2.301   5.849   4.810  2.7997 -0.8755 -1.8533
12252TIP3   OH258170   4.957   0.152   3.915  0.0099  0.5536 -0.3516
12252TIP3    H158171   4.907   0.143   3.996  0.4758  1.0804  0.0030
12252TIP3    H258172   4.995   0.065   3.901 -0.2430  0.4032 -0.1221
12253TIP3   OH258173   0.095   2.854  13.212 -0.2562 -0.2721  0.2247
12253TIP3    H158174   0.100   2.917  13.284  1.2384  1.0806 -0.9662
12253TIP3    H258175   0.036   2.786  13.243 -0.8239  1.0080  2.1324
12254TIP3   OH258176   1.147   6.168   5.220  0.0487  0.4536 -0.0896
12254TIP3    H158177   1.224   6.154   5.165  1.9306  0.9026  2.2563
12254TIP3    H258178   1.159   6.255   5.257 -2.3098  1.0783 -0.6409
12255TIP3   OH258179   3.534   3.897   4.277 -0.0615  0.2924 -0.1944
12255TIP3    H158180   3.628   3.918   4.284 -0.0453  0.0153  0.4611
12255TIP3    H258181   3.527   3.809   4.314 -0.0403 -1.1947 -3.3540
12256TIP3   OH258182   6.275   5.058   1.844 -0.3888  0.1278 -0.5061
12256TIP3    H158183   6.294   5.106   1.925 -2.0677 -0.6768  0.4427
12256TIP3    H258184   6.328   4.979   1.850 -1.0805 -0.2950  0.2156
12257TIP3   OH258185   1.036   5.009  14.447 -0.3196 -0.1939 -0.1518
12257TIP3    H158186   1.031   5.077  14.513  1.1007 -0.2178  0.0131
12257TIP3    H258187   1.129   4.986  14.443 -0.3778 -0.3010 -2.0298
12258TIP3   OH258188   6.042   0.952   1.998  0.0593 -0.0247 -0.0810
12258TIP3    H158189   6.086   0.965   1.914  0.1476 -0.1274 -0.0501
12258TIP3    H258190   5.994   1.034   2.013 -0.9775 -0.4660 -0.8464
12259TIP3   OH258191   6.783   0.630  14.519  0.0393  0.1764  1.0010
12259TIP3    H158192   6.757   0.721  14.538  1.2966  0.2452  2.5823
12259TIP3    H258193   6.828   0.636  14.434 -0.6862  0.8654  0.6456
12260TIP3   OH258194   1.886   3.988  12.748  0.7498 -0.0275  0.2732
12260TIP3    H158195   1.857   4.055  12.687  1.7390  1.0277  0.9196
12260TIP3    H258196   1.829   3.998  12.825 -2.1492 -2.9333 -1.2469
12261TIP3   OH258197   5.441   1.682  15.805 -0.4824  0.1834  1.2312
12261TIP3    H158198   5.482   1.679  15.892 -1.1500 -0.2753  1.5377
12261TIP3    H258199   5.468   1.600  15.764  0.6970  0.8636  0.5881
12262TIP3   OH258200   1.576   5.620  13.420  0.0095  0.1407 -0.0039
12262TIP3    H158201   1.487   5.597  13.393 -0.1799  0.2070  0.5688
12262TIP3    H258202   1.576   5.612  13.515  1.1726 -1.9115 -0.0994
12263TIP3   OH258203   6.257   4.355  15.311 -0.5508 -0.2072  0.2948
12263TIP3    H158204   6.197   4.406  15.256 -1.9509  0.2979  2.1659
12263TIP3    H258205   6.343   4.392  15.293 -0.9724 -0.0032 -1.4637
12264TIP3   OH258206   0.777   5.463  16.079  0.1558  0.3221  0.1442
12264TIP3    H158207   0.766   5.429  15.990  0.0650  0.4439  0.1086
12264TIP3    H258208   0.864   5.502  16.079  1.0653 -1.6157  0.7529
12265TIP3   OH258209   0.959   2.044  10.843  0.0825  0.4285  0.6914
12265TIP3    H158210   0.916   2.122  10.877 -0.5078  1.1025 -1.4846
12265TIP3    H258211   0.972   2.062  10.750  1.8198 -1.2344  0.5593
12266TIP3   OH258212   0.898   1.389   4.498 -0.2727 -0.0562  0.2793
12266TIP3    H158213   0.825   1.326   4.495 -2.3648  2.2168  0.3585
12266TIP3    H258214   0.856   1.473   4.517  2.3917  1.4113  0.1011
12267TIP3   OH258215   4.646   4.814   4.121 -0.1702 -0.4392 -0.0324
12267TIP3    H158216   4.650   4.902   4.086 -1.5899 -0.6713 -0.8555
12267TIP3    H258217   4.576   4.817   4.186  0.1356 -0.8311  0.3222
12268TIP3   OH258218   5.243   5.437  15.726  0.0242  0.3310 -0.0441
12268TIP3    H158219   5.322   5.444  15.780  0.0531 -0.1679 -0.0129
12268TIP3    H258220   5.271   5.467  15.639 -0.2426  1.9384  0.4037
12269TIP3   OH258221   0.181   3.949  15.843 -0.0974  0.0761  0.0263
12269TIP3    H158222   0.101   3.905  15.814 -2.2608  3.1545  0.8113
12269TIP3    H258223   0.193   4.020  15.781  2.2101 -0.4114 -0.1591
12270TIP3   OH258224   5.985   1.531   4.958 -0.3232 -0.0703  1.0137
12270TIP3    H158225   5.979   1.483   5.041 -0.9207 -0.4664  0.7444
12270TIP3    H258226   5.906   1.585   4.955 -0.6905 -0.6242  0.3572
12271TIP3   OH258227   1.977   3.623  11.554  0.5983 -0.0181 -0.5547
12271TIP3    H158228   1.884   3.623  11.531  0.2974 -0.0209  0.6141
12271TIP3    H258229   2.002   3.531  11.555  0.5780 -0.0250 -0.7415
12272TIP3   OH258230   2.549   1.722  16.115 -0.3375  0.9294  0.2177
12272TIP3    H158231   2.492   1.795  16.088  0.2047  1.4216  0.3870
12272TIP3    H258232   2.491   1.646  16.115 -0.9485  1.3839  0.1799
12273TIP3   OH258233   4.501   0.939   1.081  0.4950  0.3086  0.5615
12273TIP3    H158234   4.476   0.877   1.150  0.5535 -0.5947 -0.2060
12273TIP3    H258235   4.576   0.987   1.117  0.2848  0.1094  1.2684
12274TIP3   OH258236   3.231   1.867  16.115  0.3264 -0.2102  0.1206
12274TIP3    H158237   3.295   1.799  16.091  0.5817 -0.0858  0.4405
12274TIP3    H258238   3.262   1.945  16.069  1.2814  0.2355  1.4675
12275TIP3   OH258239   6.049   6.323  11.700  0.0430 -0.6264  0.5337
12275TIP3    H158240   6.085   6.311  11.788  0.5841 -0.8711  0.2792
12275TIP3    H258241   6.009   6.239  11.679  0.6251 -0.8330  0.2256
12276TIP3   OH258242   1.810   2.715   2.865 -0.0687 -0.0185 -0.0775
12276TIP3    H158243   1.777   2.776   2.799  0.1357  0.6724  0.4324
12276TIP3    H258244   1.905   2.729   2.864  0.2024 -1.7353 -1.2964
12277TIP3   OH258245   0.472   0.065  14.437 -0.2381 -0.4915  0.3849
12277TIP3    H158246   0.438   0.074  14.348  1.7230 -1.3714 -0.5174
12277TIP3    H258247   0.409   0.007  14.481 -1.6091  0.5306 -0.1768
12278TIP3   OH258248   6.635   0.798   6.332 -0.2833 -0.5087  0.2362
12278TIP3    H158249   6.655   0.708   6.359 -1.7545 -0.3460  2.1082
12278TIP3    H258250   6.552   0.790   6.286  0.2277 -0.2550 -0.7385
12279TIP3   OH258251   2.256   5.977  14.129 -0.0930 -0.3141  0.0856
12279TIP3    H158252   2.349   5.998  14.139 -0.0173 -0.8101  0.4276
12279TIP3    H258253   2.227   6.032  14.056  0.4974 -0.2537 -0.1071
12280TIP3   OH258254   2.609   6.610   9.987  0.5403  0.3096 -0.0605
12280TIP3    H158255   2.576   6.520   9.994 -0.3898  0.6378 -0.0816
12280TIP3    H258256   2.696   6.601   9.948 -0.3999 -0.4485 -2.1418
12281TIP3   OH258257   3.585   2.164   0.774  0.0865 -0.1655 -0.1721
12281TIP3    H158258   3.531   2.146   0.851 -0.1076  0.1134 -0.2418
12281TIP3    H258259   3.635   2.083   0.760  1.6340  0.4415  1.4702
12282TIP3   OH258260   2.723   2.406   5.711  0.0934  0.0824 -0.1202
12282TIP3    H158261   2.681   2.363   5.785 -0.8837  1.5787  0.2425
12282TIP3    H258262   2.816   2.392   5.725 -0.0894  0.1155  1.2555
12283TIP3   OH258263   2.157   3.640   3.527  0.0353 -0.6021 -0.5253
12283TIP3    H158264   2.243   3.610   3.498  0.1493 -1.4528  0.6200
12283TIP3    H258265   2.111   3.560   3.554 -0.3930  0.0394  0.7267
12284TIP3   OH258266   5.989   0.413   2.308  0.1774  0.2821  0.1640
12284TIP3    H158267   6.053   0.437   2.241  1.0425 -1.0331  0.4698
12284TIP3    H258268   6.042   0.396   2.386 -0.6037 -0.2265  0.5984
12285TIP3   OH258269   3.613   4.413  13.467  0.6841 -0.4061  0.3544
12285TIP3    H158270   3.647   4.348  13.528 -1.1909 -0.7654  1.0992
12285TIP3    H258271   3.637   4.497  13.506  0.8670 -0.6428  0.7622
12286TIP3   OH258272   6.261   0.800  14.905  0.6187 -0.3518 -0.1204
12286TIP3    H158273   6.206   0.770  14.978 -1.1891  0.7334 -0.9694
12286TIP3    H258274   6.317   0.725  14.885 -2.2881 -2.4828 -0.8473
12287TIP3   OH258275   1.035   3.579   0.253 -0.0964 -0.0185 -0.0348
12287TIP3    H158276   1.117   3.534   0.270 -0.2610  0.9294  4.4118
12287TIP3    H258277   0.967   3.521   0.287 -0.9278  0.7214 -0.3633
12288TIP3   OH258278   2.821   4.282   1.303 -0.4264 -0.2312 -0.0553
12288TIP3    H158279   2.753   4.304   1.240 -1.5364  1.2642  1.5493
12288TIP3    H258280   2.899   4.265   1.251 -1.3821  0.5865 -1.8134
12289TIP3   OH258281   4.622   3.311  12.133  0.0833  0.2458  0.1009
12289TIP3    H158282   4.717   3.300  12.130  0.1197  0.1045  1.3726
12289TIP3    H258283   4.588   3.242  12.076  0.7048 -0.3817  0.4715
12290TIP3   OH258284   1.339   4.746  15.410 -0.2448 -0.4137 -0.2766
12290TIP3    H158285   1.414   4.765  15.354 -0.3741 -0.5670 -0.5029
12290TIP3    H258286   1.377   4.724  15.495 -0.0795  0.8161 -0.0029
12291TIP3   OH258287   6.130   3.676   0.163  0.6928  0.6418  0.0137
12291TIP3    H158288   6.115   3.589   0.198  2.2673  0.1739 -0.4230
12291TIP3    H258289   6.112   3.668   0.069  0.5825  0.8555  0.0150
12292TIP3   OH258290   2.039   6.260  14.923  0.5954 -0.5109 -0.5034
12292TIP3    H158291   2.034   6.168  14.895 -0.1617 -0.2523 -1.2586
12292TIP3    H258292   2.002   6.260  15.011  1.4924 -1.0784 -0.1157
12293TIP3   OH258293   2.286   5.765   0.411 -0.1573 -0.0481 -0.3432
12293TIP3    H158294   2.350   5.816   0.461 -1.6161  1.1034  0.4136
12293TIP3    H258295   2.339   5.715   0.349  1.4515  1.1335  0.0073
12294TIP3   OH258296   6.155   0.963  13.228 -0.2253 -0.4473 -0.1192
12294TIP3    H158297   6.124   0.985  13.140 -1.9789 -1.0873  0.2970
12294TIP3    H258298   6.125   1.037  13.282  0.6549 -0.1625 -0.0136
12295TIP3   OH258299   2.351   0.928  14.169 -0.0091 -1.1573  0.4041
12295TIP3    H158300   2.292   0.971  14.231 -0.2199 -2.1435  0.9207
12295TIP3    H258301   2.365   0.841  14.206 -0.1723 -1.7944 -0.9608
12296TIP3   OH258302   6.664   1.759  14.939 -0.1056  0.0567  0.0260
12296TIP3    H158303   6.647   1.697  14.867  1.9551 -0.3982 -0.1295
12296TIP3    H258304   6.701   1.706  15.008 -2.0808  0.4976  1.5135
12297TIP3   OH258305   2.647   4.030   1.136  0.4495 -0.9854  0.2401
12297TIP3    H158306   2.731   4.046   1.092  1.1201 -1.3169  1.3548
12297TIP3    H258307   2.605   4.116   1.140  0.3680 -0.9554 -1.0360
12298TIP3   OH258308   1.149   4.296  15.853 -0.2460  0.1352 -0.5655
12298TIP3    H158309   1.151   4.391  15.856  0.2345  0.1110  1.1506
12298TIP3    H258310   1.231   4.268  15.893 -0.6192 -0.9902 -0.5266
12299TIP3   OH258311   4.381   0.393  13.066 -0.2649  0.3738  0.0345
12299TIP3    H158312   4.331   0.471  13.091 -0.3283  0.1373  0.6367
12299TIP3    H258313   4.323   0.320  13.084  0.0378  0.1416  0.0662
12300TIP3   OH258314   1.695   0.729  12.739 -0.9161  0.4209 -0.4969
12300TIP3    H158315   1.626   0.763  12.683 -1.6728 -0.9195 -0.4189
12300TIP3    H258316   1.690   0.781  12.819 -1.4765  0.6869 -0.7037
12301TIP3   OH258317   0.822   6.109  11.272  0.2238  0.2533 -0.1148
12301TIP3    H158318   0.898   6.105  11.215  1.6185  1.8800  1.5043
12301TIP3    H258319   0.769   6.181  11.237  2.0186  2.5445  1.5806
12302TIP3   OH258320   6.219   3.853  17.047  0.4011 -0.3026  0.1862
12302TIP3    H158321   6.200   3.932  16.998 -0.2451  0.7967  2.1142
12302TIP3    H258322   6.314   3.853  17.058  0.5635 -0.5885 -1.0208
12303TIP3   OH258323   3.129   0.466   1.453 -0.1121 -0.0175  0.1082
12303TIP3    H158324   3.072   0.495   1.381 -1.4324 -0.3340  0.9834
12303TIP3    H258325   3.148   0.545   1.503 -0.3847 -0.0227  0.2212
12304TIP3   OH258326   2.764   3.665   6.026  1.1474  0.0962  0.1127
12304TIP3    H158327   2.674   3.652   6.054  1.1324  1.5736  0.8133
12304TIP3    H258328   2.818   3.638   6.100  1.3202 -0.9973 -0.3827
12305TIP3   OH258329   4.306   2.627  13.616 -0.0158 -0.2411 -0.7756
12305TIP3    H158330   4.222   2.655  13.652  0.4811  2.0098 -1.2021
12305TIP3    H258331   4.372   2.662  13.676  0.6702 -1.7919 -0.5570
12306TIP3   OH258332   1.896   5.499  12.275 -1.0883 -0.3080  0.3402
12306TIP3    H158333   1.915   5.525  12.365  1.0589  0.9017 -0.3838
12306TIP3    H258334   1.902   5.581  12.224  0.4615 -1.3301 -1.2540
12307TIP3   OH258335   2.145   4.887   1.561 -0.1142 -0.1920 -0.3524
12307TIP3    H158336   2.155   4.792   1.557  1.4850 -0.0172 -1.5208
12307TIP3    H258337   2.217   4.917   1.616 -0.9158  0.3395  0.4511
12308TIP3   OH258338   4.838   2.733  14.211 -0.0151  0.1752 -0.1665
12308TIP3    H158339   4.929   2.745  14.238 -0.2534 -0.3287  0.9344
12308TIP3    H258340   4.808   2.821  14.187  0.5024  0.5039  0.3568
12309TIP3   OH258341   4.559   0.254  10.976  0.0841 -0.2697 -0.2380
12309TIP3    H158342   4.622   0.191  10.941 -0.5366 -0.4316 -1.0865
12309TIP3    H258343   4.614   0.323  11.014  0.7646 -1.1845  0.4801
12310TIP3   OH258344   3.870   6.046   0.540 -0.2981 -0.5429  0.7814
12310TIP3    H158345   3.847   6.118   0.481  0.2521  0.0051  1.2224
12310TIP3    H258346   3.813   5.974   0.513  1.0750 -0.8582 -1.5144
12311TIP3   OH258347   3.715   5.557  10.798 -0.9547 -0.6602 -0.0309
12311TIP3    H158348   3.651   5.526  10.733 -0.9978 -2.2176  0.6897
12311TIP3    H258349   3.665   5.615  10.855 -1.0413  0.3116 -1.0700
12312TIP3   OH258350   2.783   1.241   3.149 -0.1957 -0.0711 -0.1833
12312TIP3    H158351   2.809   1.329   3.175 -1.3114 -0.0105  0.7995
12312TIP3    H258352   2.866   1.194   3.139  0.3854  0.8784  0.0048
12313TIP3   OH258353   4.465   5.593  11.379 -0.0365 -0.5567  0.4801
12313TIP3    H158354   4.409   5.547  11.441  0.9516 -0.4665  1.4646
12313TIP3    H258355   4.551   5.551  11.388  1.0065  1.7003  1.6911
12314TIP3   OH258356   1.846   3.719  13.417  0.1001  0.3181 -0.0800
12314TIP3    H158357   1.812   3.669  13.491  0.5227  0.0265 -0.0796
12314TIP3    H258358   1.897   3.789  13.457  0.1095  0.3162 -0.0887
12315TIP3   OH258359   3.092   6.123   0.765  0.0280  0.1808  0.1571
12315TIP3    H158360   3.155   6.166   0.822 -0.2826 -0.5431  1.0631
12315TIP3    H258361   3.104   6.165   0.679  0.9321  0.8360  0.5982
12316TIP3   OH258362   0.409   0.669  11.590  0.0761  0.2643 -0.1430
12316TIP3    H158363   0.320   0.653  11.621  0.0729 -0.4477 -0.5039
12316TIP3    H258364   0.453   0.585  11.599  0.5708  0.4883 -0.4312
12317TIP3   OH258365   4.890   4.285  10.774 -0.2390 -0.2712  0.1525
12317TIP3    H158366   4.822   4.349  10.796 -1.1329 -0.6408 -1.3758
12317TIP3    H258367   4.846   4.223  10.715  1.3066 -0.7830 -0.5130
12318TIP3   OH258368   1.680   3.854  11.519  0.1020  0.1707 -0.5947
12318TIP3    H158369   1.651   3.905  11.595  1.0132  0.5342 -0.4708
12318TIP3    H258370   1.764   3.894  11.495 -0.0775 -0.0685 -1.6701
12319TIP3   OH258371   5.776   6.267   0.822 -0.1495 -0.1016  0.6597
12319TIP3    H158372   5.820   6.181   0.827  0.1003  0.0020  0.2563
12319TIP3    H258373   5.843   6.329   0.849  0.1701  0.1256 -0.6114
12320TIP3   OH258374   3.087   1.746  15.908 -0.1877 -0.1835 -0.3196
12320TIP3    H158375   3.118   1.785  15.989 -0.1199 -0.3171 -0.2813
12320TIP3    H258376   3.116   1.806  15.839 -1.3337  0.6007 -0.1532
12321TIP3   OH258377   3.790   5.682   4.366  0.6492 -0.4070  0.4174
12321TIP3    H158378   3.724   5.620   4.398  0.9336 -1.1758 -0.4570
12321TIP3    H258379   3.764   5.702   4.277  1.8165 -1.0564 -0.0954
12322TIP3   OH258380   2.988   5.265   0.379  0.1889  0.1019  0.4882
12322TIP3    H158381   2.948   5.205   0.442  2.1068 -0.7080  0.9851
12322TIP3    H258382   3.015   5.209   0.306 -0.7191  0.8299 -0.4445
12323TIP3   OH258383   0.758   4.861   2.112  0.8920 -0.0988 -0.5789
12323TIP3    H158384   0.760   4.814   2.195  1.3798 -0.9884 -1.0828
12323TIP3    H258385   0.734   4.951   2.136 -1.4551 -0.8681  0.2643
12324TIP3   OH258386   5.585   0.854   3.243  0.1605  0.2941  0.1642
12324TIP3    H158387   5.576   0.817   3.155  1.0269 -0.1458  0.2534
12324TIP3    H258388   5.580   0.949   3.230  0.3132  0.2330 -0.3620
12325TIP3   OH258389   0.071   0.399  16.427  0.0400  0.2426  0.0010
12325TIP3    H158390   0.063   0.493  16.444 -0.6193  0.3605 -0.9211
12325TIP3    H258391   0.165   0.385  16.418  0.1008  0.9589 -0.6001
12326TIP3   OH258392   3.996   2.462   1.454  0.1507  0.0777  0.0021
12326TIP3    H158393   3.970   2.519   1.527  0.3774  0.1772  0.0046
12326TIP3    H258394   3.922   2.403   1.443  0.6613 -0.8345  1.1990
12327TIP3   OH258395   0.778   2.055   2.926 -0.1208  0.3392  0.0178
12327TIP3    H158396   0.758   2.146   2.902 -4.6851 -0.0536  1.4808
12327TIP3    H258397   0.759   2.049   3.019  0.3174 -2.0835  0.0283
12328TIP3   OH258398   0.357   6.608   0.442 -0.5908 -0.1376  0.1465
12328TIP3    H158399   0.444   6.605   0.404  0.3221 -1.0287  2.1819
12328TIP3    H258400   0.321   6.692   0.412  2.4372  2.1390  2.2509
12329TIP3   OH258401   3.005   2.970   3.562 -0.1192  0.3084 -0.1284
12329TIP3    H158402   3.038   3.008   3.644 -0.3491  0.4770 -0.1138
12329TIP3    H258403   3.025   3.036   3.496 -1.4541  0.9228  0.0593
12330TIP3   OH258404   0.457   3.834  15.588 -0.3121  0.3885 -0.4814
12330TIP3    H158405   0.481   3.741  15.579 -2.5661 -0.4087  0.9416
12330TIP3    H258406   0.517   3.867  15.655 -0.2935 -0.3836 -0.0977
12331TIP3   OH258407   6.038   2.759   1.389  0.5168  0.5850 -0.3306
12331TIP3    H158408   5.985   2.691   1.348  0.5301  0.6427 -0.4430
12331TIP3    H258409   6.065   2.721   1.473 -1.3673  1.2696  0.6691
12332TIP3   OH258410   5.080   4.304   0.473  0.1442  0.6225 -0.6561
12332TIP3    H158411   5.100   4.342   0.387  1.1317 -1.7416 -1.5401
12332TIP3    H258412   5.011   4.241   0.456 -0.5802  1.0523  0.5549
12333TIP3   OH258413   4.321   3.042   5.836  0.3970  0.2472  0.6126
12333TIP3    H158414   4.353   3.025   5.925  0.9825 -1.2795  0.1469
12333TIP3    H258415   4.284   3.130   5.840  0.0579  0.0587  2.4613
12334TIP3   OH258416   0.252   3.379   5.490 -0.2038 -0.8537 -0.6583
12334TIP3    H158417   0.228   3.288   5.506 -0.5217 -0.9493 -1.6143
12334TIP3    H258418   0.209   3.401   5.407 -0.0834  0.1462 -0.4711
12335TIP3   OH258419   6.790   6.156   5.293  0.9070 -0.1135 -0.2146
12335TIP3    H158420   6.846   6.193   5.361 -0.4680  0.8084  0.4602
12335TIP3    H258421   6.827   6.189   5.211  2.2357 -0.7669  0.0912
12336TIP3   OH258422   0.130   6.644  15.347 -0.0476  0.1851 -0.2446
12336TIP3    H158423   0.175   6.706  15.404  0.8227 -1.4361  0.9019
12336TIP3    H258424   0.038   6.650  15.373 -0.1398  1.7208 -0.8699
12337TIP3   OH258425   0.880   3.640   4.205  0.2163  0.2945  0.3323
12337TIP3    H158426   0.884   3.731   4.176 -0.3935 -0.1163 -1.1290
12337TIP3    H258427   0.965   3.624   4.247  0.5363  1.3686  0.1193
12338TIP3   OH258428   1.080   2.277  16.611  0.0490  0.6523 -0.1549
12338TIP3    H158429   1.032   2.254  16.532  0.2122  1.3843 -0.4774
12338TIP3    H258430   1.015   2.320  16.667  0.5114  2.5489 -1.0012
12339TIP3   OH258431   6.387   2.224  16.354  0.2646 -0.5599 -0.1592
12339TIP3    H158432   6.479   2.253  16.353  0.3332 -0.7646  0.1017
12339TIP3    H258433   6.392   2.129  16.347 -0.0051 -0.4520 -2.4795
12340TIP3   OH258434   2.588   4.451  11.870 -0.5424 -0.5018  0.6095
12340TIP3    H158435   2.643   4.528  11.879 -0.8657  0.3426 -3.0376
12340TIP3    H258436   2.499   4.483  11.886 -0.5775 -0.3591  0.1312
12341TIP3   OH258437   4.316   6.802  12.657 -0.6149  0.4086 -0.4490
12341TIP3    H158438   4.319   6.741  12.582 -0.9895  0.7483 -0.7435
12341TIP3    H258439   4.406   6.832  12.667 -0.3859 -0.3424 -0.1749
12342TIP3   OH258440   4.575   4.611  14.114  0.5342 -0.0031 -0.1051
12342TIP3    H158441   4.598   4.703  14.128  0.6862 -0.1177  0.4102
12342TIP3    H258442   4.539   4.582  14.197 -0.3560 -0.1680 -0.5352
12343TIP3   OH258443   4.967   5.741   1.302 -0.6149  0.3695  0.0296
12343TIP3    H158444   4.890   5.741   1.244  0.5539 -0.3998 -1.6100
12343TIP3    H258445   4.993   5.833   1.307 -1.7891  0.6806  0.8512
12344TIP3   OH258446   6.259   4.898  16.610  0.4505  0.6624  0.4429
12344TIP3    H158447   6.310   4.856  16.678  0.7641  1.3597  0.6437
12344TIP3    H258448   6.171   4.860  16.619 -0.0492  2.1583  2.5338
12345TIP3   OH258449   4.828   5.483   4.553 -0.3396  0.3392  0.2609
12345TIP3    H158450   4.893   5.483   4.624  0.3731  0.0315 -0.3689
12345TIP3    H258451   4.816   5.576   4.532 -1.7455  0.5419  1.8153
12346TIP3   OH258452   3.489   4.496  15.365  0.0642 -0.3199 -0.0275
12346TIP3    H158453   3.435   4.568  15.397 -0.8677 -0.5970 -0.9403
12346TIP3    H258454   3.447   4.468  15.284  0.4135 -1.8936  0.2991
12347TIP3   OH258455   2.245   3.526   5.634 -0.1308  0.3659 -0.1635
12347TIP3    H158456   2.290   3.449   5.598 -0.0937  1.0928 -1.7884
12347TIP3    H258457   2.285   3.540   5.719  0.0968 -1.2047  0.0234
12348TIP3   OH258458   4.908   3.697   0.001  0.0977  0.3452  0.2506
12348TIP3    H158459   4.815   3.678   0.006  0.1302  0.3874  1.3233
12348TIP3    H258460   4.946   3.620  -0.040 -0.5603  0.9359 -1.5786
12349TIP3   OH258461   2.626   2.408   1.190 -0.0825  0.2200  0.6528
12349TIP3    H158462   2.713   2.367   1.196  0.3987  0.9665 -0.6815
12349TIP3    H258463   2.645   2.501   1.179 -1.0897  0.4770  1.0340
12350TIP3   OH258464   2.673   1.944  13.661 -0.0172 -0.1740  0.4306
12350TIP3    H158465   2.682   2.034  13.631  1.0067 -0.0489  1.0372
12350TIP3    H258466   2.672   1.891  13.581 -1.2095  0.3988  0.0474
12351TIP3   OH258467   3.410   2.482   4.690  0.2218 -0.3403  0.0635
12351TIP3    H158468   3.325   2.463   4.651  1.0657 -0.3437 -1.8541
12351TIP3    H258469   3.392   2.551   4.754 -1.0320  0.5134 -1.1709
12352TIP3   OH258470   1.636   3.526   3.414  0.3387 -0.3587 -0.2892
12352TIP3    H158471   1.611   3.436   3.434  3.1343 -0.8897  1.2323
12352TIP3    H258472   1.553   3.570   3.397 -1.0667 -3.3652 -1.9596
12353TIP3   OH258473   2.167   2.206  15.833 -0.0220 -0.1709 -0.4069
12353TIP3    H158474   2.145   2.288  15.788  0.3459  0.3739  0.3765
12353TIP3    H258475   2.086   2.180  15.876  0.2387  0.6408  0.6346
12354TIP3   OH258476   2.185   3.261   6.221 -0.0163  0.7948  0.3788
12354TIP3    H158477   2.228   3.347   6.213 -1.3322  1.4665  0.2323
12354TIP3    H258478   2.247   3.208   6.269  0.3787  2.1650  1.4515
12355TIP3   OH258479   4.124   4.835   0.083  0.0833  0.2744 -0.5274
12355TIP3    H158480   4.084   4.822   0.169  0.0478  0.6824 -0.4810
12355TIP3    H258481   4.062   4.795   0.022 -1.0172  1.9477 -0.5701
12356TIP3   OH258482   0.314   3.193  14.993 -0.0698  0.6710  0.0085
12356TIP3    H158483   0.263   3.185  14.913  0.9181  1.7003 -0.7639
12356TIP3    H258484   0.392   3.242  14.967  0.2058  1.1739  1.6312
12357TIP3   OH258485   0.609   6.357   5.175  0.0827  0.2915 -0.4005
12357TIP3    H158486   0.532   6.321   5.131 -1.3905  0.7776  1.6237
12357TIP3    H258487   0.641   6.284   5.228 -0.4149  0.7213  0.5220
12358TIP3   OH258488   0.881   6.205   5.359  0.1886  0.6216 -0.4666
12358TIP3    H158489   0.810   6.199   5.422  0.1195  0.8717 -0.5189
12358TIP3    H258490   0.934   6.127   5.374  0.5383  1.0076  0.3407
12359TIP3   OH258491   2.735   3.792   2.712 -0.2293 -0.0362  0.1779
12359TIP3    H158492   2.674   3.830   2.775 -0.7818 -0.7795  0.1024
12359TIP3    H258493   2.776   3.719   2.759 -2.5693 -2.3105 -1.0838
12360TIP3   OH258494   2.820   1.401  13.712 -0.0470 -0.9094 -0.3564
12360TIP3    H158495   2.764   1.395  13.789 -0.5674 -0.8750 -0.7231
12360TIP3    H258496   2.858   1.314  13.702 -0.3970 -1.0599 -0.3694
12361TIP3   OH258497   3.362   3.464   5.120  0.4757 -0.1322  0.4188
12361TIP3    H158498   3.303   3.515   5.063  0.1273 -0.3820  0.5494
12361TIP3    H258499   3.326   3.375   5.117  1.1860 -0.4171  0.0468
12362TIP3   OH258500   0.995   3.579   3.361 -0.1365 -0.0186  0.1086
12362TIP3    H158501   1.054   3.619   3.425  0.0205 -1.9502  1.2469
12362TIP3    H258502   1.042   3.586   3.278  1.2500 -0.5768  0.8120
12363TIP3   OH258503   0.440   5.051   3.985 -0.8472  0.1032 -0.2537
12363TIP3    H158504   0.421   4.995   4.061 -0.6661  0.1347 -0.1830
12363TIP3    H258505   0.502   5.116   4.019 -1.4278  0.6396 -0.2142
12364TIP3   OH258506   1.586   1.384   3.004 -0.5086  0.3961 -0.1880
12364TIP3    H158507   1.663   1.431   2.972 -0.0026 -0.4131 -0.1733
12364TIP3    H258508   1.512   1.432   2.966  0.0318 -1.2271 -3.7697
12365TIP3   OH258509   6.229   3.314  12.348 -0.1948  0.2163  0.2078
12365TIP3    H158510   6.244   3.245  12.283  0.5354  0.1344  0.4521
12365TIP3    H258511   6.210   3.392  12.296  2.7221  0.7312 -0.2343
12366TIP3   OH258512   1.524   6.261  12.877 -0.0287  0.3514  0.2536
12366TIP3    H158513   1.448   6.251  12.819  0.6754 -1.6684 -0.3984
12366TIP3    H258514   1.519   6.185  12.935  1.7708 -0.0909 -0.1351
12367TIP3   OH258515   4.943   6.107  17.058  0.0419 -0.8761  0.0458
12367TIP3    H158516   4.902   6.041  17.115 -0.8984 -1.2319 -1.0015
12367TIP3    H258517   4.975   6.057  16.983 -1.2496 -0.0955 -1.0671
12368TIP3   OH258518   1.413   6.024  13.208  0.2952 -0.3929 -0.0219
12368TIP3    H158519   1.471   5.951  13.232 -0.6512 -1.1354  0.0563
12368TIP3    H258520   1.331   5.983  13.184 -0.2656  0.6617  0.0246
12369TIP3   OH258521   6.275   4.086  16.216 -0.1990 -0.3790  0.4034
12369TIP3    H158522   6.228   4.081  16.299 -0.4425 -3.3417  0.2089
12369TIP3    H258523   6.352   4.031  16.229  0.9374  0.9049 -0.6616
12370TIP3   OH258524   1.266   2.377  15.803  0.1102  0.0310  0.5091
12370TIP3    H158525   1.309   2.323  15.869 -0.1624  0.5877  1.1492
12370TIP3    H258526   1.254   2.462  15.845 -2.2586 -0.2825  0.6509
12371TIP3   OH258527   6.164   6.761  15.547  0.1761 -0.4616  0.3535
12371TIP3    H158528   6.088   6.741  15.492  0.0149  1.6451 -0.3118
12371TIP3    H258529   6.135   6.743  15.636 -0.5901 -1.1123 -0.0192
12372TIP3   OH258530   5.566   3.998   4.183  0.0449  0.6307 -0.5997
12372TIP3    H158531   5.498   4.041   4.235  0.4398  0.4030  0.1161
12372TIP3    H258532   5.568   3.908   4.215  0.3631  0.5118 -0.9396
12373TIP3   OH258533   4.784   1.665   3.176 -0.2206 -0.1176 -0.2045
12373TIP3    H158534   4.731   1.708   3.243 -1.0009 -0.4543 -0.5776
12373TIP3    H258535   4.731   1.673   3.096  0.4204 -0.2423 -0.6423
12374TIP3   OH258536   3.330   6.061  15.135  0.6017 -0.0271 -0.0700
12374TIP3    H158537   3.392   6.054  15.207 -0.8856 -1.5307  1.1577
12374TIP3    H258538   3.357   6.139  15.087  2.6308  0.0892  1.1356
12375TIP3   OH258539   0.073   4.842   3.859  0.3098 -0.0998  0.2472
12375TIP3    H158540   0.156   4.829   3.812  0.2977 -0.0874  0.2224
12375TIP3    H258541   0.013   4.875   3.792  0.0692 -0.8439  0.0783
12376TIP3   OH258542   6.177   0.828  16.962 -0.9197  0.1197  0.6917
12376TIP3    H158543   6.100   0.831  16.906 -0.5505 -0.1368  0.1647
12376TIP3    H258544   6.219   0.914  16.949 -0.3095 -0.2948 -0.1897
12377TIP3   OH258545   0.696   3.188   0.478 -0.3361 -0.3480  0.2259
12377TIP3    H158546   0.629   3.249   0.445 -0.9659 -2.0478 -1.8870
12377TIP3    H258547   0.732   3.147   0.399  3.5470  0.7187  1.2089
12378TIP3   OH258548   0.718   3.962  17.051 -0.2174 -0.0776  0.0918
12378TIP3    H158549   0.730   3.996  16.963  0.3972 -1.1650 -0.2643
12378TIP3    H258550   0.776   4.015  17.106 -0.9644  0.9217 -0.0561
12379TIP3   OH258551   2.384   1.183  15.347  0.6213 -0.5854  0.5566
12379TIP3    H158552   2.378   1.089  15.327  0.6269 -0.3109 -0.8628
12379TIP3    H258553   2.457   1.214  15.292  0.7694  0.2038  1.1895
12380TIP3   OH258554   3.592   2.120   3.415 -0.2317  0.0951 -0.1725
12380TIP3    H158555   3.679   2.092   3.387  0.2592  1.4071 -0.0321
12380TIP3    H258556   3.589   2.099   3.508 -0.9846 -2.1261 -0.6566
12381TIP3   OH258557   3.328   3.776  11.540 -0.1727 -0.1973  0.0241
12381TIP3    H158558   3.362   3.751  11.626 -1.0931 -0.6487  0.2736
12381TIP3    H258559   3.262   3.843  11.558  0.9895  1.1319 -0.5010
12382TIP3   OH258560   2.513   6.719  10.900  0.0586  0.6665 -0.0595
12382TIP3    H158561   2.451   6.766  10.845 -1.2221 -0.7361  0.1446
12382TIP3    H258562   2.582   6.691  10.840  1.0963  3.1147 -0.1137
12383TIP3   OH258563   2.654   1.965   0.222  0.4919 -0.4611  0.1858
12383TIP3    H158564   2.640   2.051   0.261  1.0826 -0.6585  0.8620
12383TIP3    H258565   2.567   1.937   0.194  0.6048  1.4159 -2.3861
12384TIP3   OH258566   1.103   0.087   6.094 -0.1416 -0.8642  0.4957
12384TIP3    H158567   1.175   0.136   6.054  0.0616 -1.3611  0.2385
12384TIP3    H258568   1.030   0.099   6.032 -0.1972 -0.5983  0.6114
12385TIP3   OH258569   5.302   5.565  11.205 -0.0468  0.0081  0.1537
12385TIP3    H158570   5.348   5.571  11.122  0.9485 -1.1594  0.5997
12385TIP3    H258571   5.257   5.649  11.214  0.5119  0.4614 -1.1581
12386TIP3   OH258572   4.542   4.604  13.033 -0.4934  0.1478  0.3896
12386TIP3    H158573   4.476   4.577  13.097 -0.6911  1.3377  0.7132
12386TIP3    H258574   4.528   4.546  12.958 -1.2894 -0.2345  0.8199
12387TIP3   OH258575   5.946   3.550  12.843  0.1519  0.1494  0.1147
12387TIP3    H158576   5.979   3.462  12.861 -2.3145 -0.8426  0.1652
12387TIP3    H258577   6.021   3.607  12.860  2.0716 -1.9615 -0.6926
12388TIP3   OH258578   3.484   3.524  15.749 -0.2423  0.0889 -0.2479
12388TIP3    H158579   3.472   3.441  15.795 -2.1344 -0.7496 -2.0743
12388TIP3    H258580   3.555   3.508  15.688 -0.7960 -0.3220 -0.8000
12389TIP3   OH258581   1.790   6.472  15.414 -0.0833 -0.2787 -0.4051
12389TIP3    H158582   1.865   6.525  15.388 -0.5233  0.3127 -0.4893
12389TIP3    H258583   1.804   6.456  15.507 -0.5499  1.0299 -0.0785
12390TIP3   OH258584   6.305   0.649  12.599 -0.2010  0.1474  0.5121
12390TIP3    H158585   6.354   0.731  12.589 -2.0540  1.3148  0.6328
12390TIP3    H258586   6.357   0.598  12.661  1.6408  0.6856 -0.5214
12391TIP3   OH258587   3.372   5.081   0.681  0.3222 -0.2101 -0.1452
12391TIP3    H158588   3.329   5.045   0.759 -1.6977  0.4935 -0.8829
12391TIP3    H258589   3.338   5.028   0.609 -0.5389  1.3292 -0.9183
12392TIP3   OH258590   1.989   1.951   1.956  0.1170  0.4517  0.1552
12392TIP3    H158591   2.073   1.940   2.001  0.3065 -0.9304 -0.4747
12392TIP3    H258592   1.930   1.891   2.001  0.1975 -0.6287 -1.1281
12393TIP3   OH258593   2.703   3.723  16.636  0.1862  0.4508  0.3783
12393TIP3    H158594   2.677   3.739  16.727  2.1117  0.3891  0.9762
12393TIP3    H258595   2.640   3.658  16.604 -0.4043  0.3320  1.7157
12394TIP3   OH258596   3.057   4.117   4.563 -0.1180  0.2284 -0.0128
12394TIP3    H158597   2.994   4.188   4.556  0.8662  0.9807 -2.5694
12394TIP3    H258598   3.142   4.161   4.561  0.5074 -0.9346  0.1768
12395TIP3   OH258599   3.074   5.260  14.720  0.2267  0.1952 -0.0394
12395TIP3    H158600   3.147   5.251  14.657  0.5728 -0.9541  0.5007
12395TIP3    H258601   3.000   5.219  14.676  0.5441 -0.8852  0.3919
12396TIP3   OH258602   6.557   0.801  15.054 -0.3461  0.5055 -0.4409
12396TIP3    H158603   6.550   0.767  14.964 -0.0308  1.0390 -0.6719
12396TIP3    H258604   6.478   0.853  15.066 -0.6530 -0.0104 -0.2144
12397TIP3   OH258605   4.512   1.751  15.668  0.1340  0.3552 -0.1284
12397TIP3    H158606   4.560   1.772  15.587  0.2700  1.1141  0.1430
12397TIP3    H258607   4.545   1.813  15.732 -0.3302  0.0724  0.3891
12398TIP3   OH258608   1.234   0.183  11.544  0.1546 -0.3696 -0.1170
12398TIP3    H158609   1.178   0.152  11.473  0.5005 -0.9648 -0.1379
12398TIP3    H258610   1.213   0.276  11.552 -0.7896 -0.5593 -0.1656
12399TIP3   OH258611   3.044   3.737  14.491 -0.1786  0.4134 -0.0702
12399TIP3    H158612   3.050   3.648  14.527 -0.7517  0.6005  0.5001
12399TIP3    H258613   2.964   3.773  14.529  0.4411  1.4448  0.3019
12400TIP3   OH258614   6.366   2.917  13.557  0.0465  0.4004 -0.8218
12400TIP3    H158615   6.350   2.848  13.492  0.1741  1.9945 -2.6388
12400TIP3    H258616   6.288   2.917  13.612 -0.0065 -1.0890 -0.8648
12401TIP3   OH258617   0.491   0.309  11.766  0.5783  0.3455  0.4310
12401TIP3    H158618   0.563   0.253  11.796  0.0090  0.2405  1.6466
12401TIP3    H258619   0.535   0.387  11.732  1.2633  0.6028  1.8367
12402TIP3   OH258620   6.628   4.305   2.240 -0.3319  0.3222 -0.0890
12402TIP3    H158621   6.674   4.368   2.296 -1.5351  0.4159  0.8320
12402TIP3    H258622   6.618   4.351   2.156  0.4171  0.6434 -0.0091
12403TIP3   OH258623   6.315   3.680   3.595 -0.4812  0.0820  0.0439
12403TIP3    H158624   6.238   3.736   3.582 -0.2247 -0.0105 -2.1882
12403TIP3    H258625   6.280   3.591   3.594 -0.3773  0.0454 -0.8375
12404TIP3   OH258626   3.708   6.761   3.960 -0.3404 -0.0179 -0.6048
12404TIP3    H158627   3.619   6.727   3.975 -0.4966 -0.9572 -3.1528
12404TIP3    H258628   3.742   6.707   3.889  1.4493  1.7833 -1.1963
12405TIP3   OH258629   1.127   2.857  11.123  0.1766 -0.2442 -0.0398
12405TIP3    H158630   1.084   2.799  11.059  1.1814 -0.7785 -0.2396
12405TIP3    H258631   1.062   2.925  11.140  0.3024  0.5837 -2.5320
12406TIP3   OH258632   6.650   4.432  16.483 -0.0058 -0.0236  0.4798
12406TIP3    H158633   6.662   4.345  16.521 -0.7550 -0.5232 -0.3765
12406TIP3    H258634   6.659   4.492  16.557  2.0826 -0.6878  0.8314
12407TIP3   OH258635   0.103   4.332  17.164 -0.0344  0.1110  0.5302
12407TIP3    H158636   0.060   4.247  17.160  0.8122 -0.2726 -2.2979
12407TIP3    H258637   0.179   4.317  17.221 -1.3002 -0.2541  2.2145
12408TIP3   OH258638   2.291   1.314   0.641 -0.1711 -0.8395 -0.2573
12408TIP3    H158639   2.298   1.306   0.736  0.4635 -1.7987 -0.3704
12408TIP3    H258640   2.375   1.351   0.613 -0.6599  0.2034 -0.3766
12409TIP3   OH258641   1.870   4.880   1.616 -0.2697  0.3866  0.0136
12409TIP3    H158642   1.965   4.880   1.602 -0.6685 -1.1455 -4.4258
12409TIP3    H258643   1.843   4.971   1.602  0.4691  0.7949  1.1292
12410TIP3   OH258644   0.129   1.340   6.102  0.9202 -0.1174 -0.0952
12410TIP3    H158645   0.057   1.369   6.046  1.6345  0.8262 -0.5532
12410TIP3    H258646   0.182   1.285   6.046 -0.3369 -2.2903  0.7254
12411TIP3   OH258647   3.164   0.323  14.720 -0.6708 -0.5919  0.3628
12411TIP3    H158648   3.206   0.244  14.755 -0.1232 -0.6044 -0.2904
12411TIP3    H258649   3.188   0.323  14.627 -0.7939  0.2654  0.3256
12412TIP3   OH258650   3.437   1.402   1.311  0.2547  0.1636 -0.1460
12412TIP3    H158651   3.496   1.382   1.384  0.2242  0.7612  0.0563
12412TIP3    H258652   3.470   1.351   1.238  0.5571 -0.1021  0.1707
12413TIP3   OH258653   4.728   1.088   1.375  0.1190 -0.4864 -0.1659
12413TIP3    H158654   4.702   1.143   1.302 -0.1215 -0.1688  0.1553
12413TIP3    H258655   4.787   1.143   1.427 -0.8405 -0.1953  0.6490
12414TIP3   OH258656   2.392   3.810  14.047 -0.5791 -0.0308  0.0810
12414TIP3    H158657   2.469   3.788  13.995 -0.8607  0.9432 -0.7852
12414TIP3    H258658   2.425   3.824  14.136  0.1609 -0.1258 -0.1760
12415TIP3   OH258659   3.027   5.929   3.053 -0.1168 -0.4552  0.2801
12415TIP3    H158660   3.019   5.836   3.070 -1.4730 -0.4933 -0.4010
12415TIP3    H258661   2.983   5.942   2.969  2.7996  0.3271 -1.2580
12416TIP3   OH258662   3.085   6.254   6.290 -0.3479  0.3681 -0.1575
12416TIP3    H158663   3.061   6.335   6.245  1.2960 -0.1208 -2.0733
12416TIP3    H258664   3.023   6.189   6.258 -1.8464  0.8349  1.5910
12417TIP3   OH258665   6.564   2.003   4.575  0.7936  0.6916  0.0938
12417TIP3    H158666   6.615   1.966   4.502  0.5504 -2.1887  1.2416
12417TIP3    H258667   6.492   2.049   4.534  0.4958 -1.1160 -1.5310
12418TIP3   OH258668   4.766   0.368  12.140 -0.0950  0.2756 -0.2599
12418TIP3    H158669   4.861   0.360  12.125  0.0637 -0.7752  1.0626
12418TIP3    H258670   4.757   0.364  12.235 -1.7238 -3.7409 -0.3953
12419TIP3   OH258671   2.595   2.453  10.935  0.2488 -0.3554  0.0978
12419TIP3    H158672   2.532   2.511  10.892  0.7828  0.9104  0.9393
12419TIP3    H258673   2.587   2.474  11.028  2.5283  0.5726  0.1606
12420TIP3   OH258674   3.046   1.234  13.271  0.1523 -0.1972  0.5739
12420TIP3    H158675   2.997   1.161  13.309  1.5921 -2.6584 -1.8553
12420TIP3    H258676   3.137   1.204  13.272  0.6723  1.1580 -1.3722
12421TIP3   OH258677   3.141   2.961  16.398 -0.4448  0.0846  0.6814
12421TIP3    H158678   3.180   2.982  16.483  0.7643 -0.2005  0.2219
12421TIP3    H258679   3.136   2.865  16.397 -0.0756  0.0638  0.2887
12422TIP3   OH258680   0.541   3.254   1.009  0.0043  0.2632 -0.2570
12422TIP3    H158681   0.526   3.337   0.964 -1.0573  1.6047  2.3887
12422TIP3    H258682   0.463   3.202   0.989 -0.1759  0.6086 -0.4607
12423TIP3   OH258683   4.917   2.178  12.273  0.5802  0.6188 -0.1050
12423TIP3    H158684   4.865   2.255  12.295  0.6851  1.1366 -1.5808
12423TIP3    H258685   4.988   2.177  12.338 -1.0781  0.0244  1.8130
12424TIP3   OH258686   4.916   5.381  16.672 -0.5624  0.2225  0.1963
12424TIP3    H158687   4.995   5.327  16.668  0.0533  0.9678  1.6998
12424TIP3    H258688   4.846   5.319  16.692 -0.0605 -0.1845  0.7079
12425TIP3   OH258689   4.449   4.015   0.629  0.1248  0.4009  0.2626
12425TIP3    H158690   4.385   4.068   0.583  1.8861  0.6268 -2.1368
12425TIP3    H258691   4.467   4.063   0.710 -1.1957  1.3658  0.0064
12426TIP3   OH258692   1.406   4.254  15.951 -0.1577 -0.2036  0.0150
12426TIP3    H158693   1.457   4.181  15.986 -0.9539 -0.7340  0.0935
12426TIP3    H258694   1.393   4.312  16.027  0.5073  0.0414 -0.0572
12427TIP3   OH258695   4.335   0.136   2.504  0.2570 -0.0407  0.0109
12427TIP3    H158696   4.425   0.165   2.491  0.0486  0.7980  0.2956
12427TIP3    H258697   4.304   0.113   2.417  0.5065  0.4347 -0.2115
12428TIP3   OH258698   1.175   4.657   4.157  0.2448 -0.0886  0.3715
12428TIP3    H158699   1.080   4.647   4.145 -0.3461  1.9914  2.6364
12428TIP3    H258700   1.193   4.749   4.138  1.6528 -0.2301  0.8857
12429TIP3   OH258701   5.314   4.911  14.734 -0.0069 -0.3591  0.2821
12429TIP3    H158702   5.222   4.932  14.720 -0.4592 -1.8360  0.8618
12429TIP3    H258703   5.344   4.877  14.650 -0.3093 -0.9272  0.3972
12430TIP3   OH258704   0.769   1.782  15.000  0.6688  0.1131 -0.7070
12430TIP3    H158705   0.795   1.874  14.995  1.7603 -0.2416 -2.1020
12430TIP3    H258706   0.755   1.766  15.094 -1.3342  2.1393 -0.5773
12431TIP3   OH258707   3.301   5.829  16.095  0.1067  0.4740 -0.0322
12431TIP3    H158708   3.366   5.775  16.139  0.5675  0.5111 -0.6487
12431TIP3    H258709   3.221   5.776  16.093  0.5565 -0.1957 -0.6396
12432TIP3   OH258710   1.871   4.175   4.452  0.1200 -0.5355 -0.2803
12432TIP3    H158711   1.860   4.166   4.547  0.0853 -0.8882 -0.3174
12432TIP3    H258712   1.836   4.262   4.432  0.4464 -0.3152  0.0804
12433TIP3   OH258713   1.810   1.666  12.809 -0.1199 -0.2300 -0.2303
12433TIP3    H158714   1.897   1.706  12.814  0.0998 -0.4481 -1.8401
12433TIP3    H258715   1.792   1.659  12.715 -1.3437 -1.3609  0.0590
12434TIP3   OH258716   3.484   1.244  14.087 -0.0725 -0.6937 -1.2239
12434TIP3    H158717   3.541   1.200  14.024 -0.0081 -0.0408 -1.6375
12434TIP3    H258718   3.438   1.173  14.132  1.6557 -1.2925 -0.2865
12435TIP3   OH258719   2.440   6.390  10.453  0.3196  0.2332 -0.4707
12435TIP3    H158720   2.398   6.306  10.433 -1.5471  0.7166  1.0613
12435TIP3    H258721   2.527   6.367  10.486 -0.2465 -1.1453  0.1283
12436TIP3   OH258722   2.208   2.748   1.797 -0.2435 -0.6602  0.0194
12436TIP3    H158723   2.273   2.818   1.799 -0.7002 -0.1481 -1.7445
12436TIP3    H258724   2.169   2.749   1.885 -0.5069  1.5589 -0.0788
12437TIP3   OH258725   1.352   0.229   2.264  0.1700  0.1246  0.0503
12437TIP3    H158726   1.357   0.298   2.197  1.9508 -0.7338 -0.7743
12437TIP3    H258727   1.323   0.151   2.216 -0.8973  0.0530  0.7850
12438TIP3   OH258728   4.766   0.601  16.141  0.5826 -0.0659 -0.2527
12438TIP3    H158729   4.728   0.524  16.099  2.7681 -0.5985 -1.3623
12438TIP3    H258730   4.797   0.655  16.068  2.7829 -0.1187  0.5807
12439TIP3   OH258731   5.477   2.882  15.682  0.3796  0.2963 -0.1753
12439TIP3    H158732   5.451   2.969  15.652 -0.3723  0.6127  1.2934
12439TIP3    H258733   5.532   2.899  15.759  0.5340 -0.5263 -0.0976
12440TIP3   OH258734   3.784   6.353  16.395 -0.3559 -0.3312  0.8933
12440TIP3    H158735   3.795   6.368  16.301 -2.5162  0.7981  0.7673
12440TIP3    H258736   3.753   6.263  16.402 -1.2084 -0.0854  0.4112
12441TIP3   OH258737   4.552   6.273  14.256  0.4036  0.6813  0.0052
12441TIP3    H158738   4.474   6.242  14.302 -1.4994  0.2152 -3.2364
12441TIP3    H258739   4.597   6.194  14.228  0.5271  0.9208 -0.4832
12442TIP3   OH258740   3.511   4.497   4.542  0.8159  0.0579  0.0019
12442TIP3    H158741   3.581   4.444   4.578 -0.8051 -0.4844  2.6420
12442TIP3    H258742   3.527   4.585   4.577 -0.2063 -0.2568  1.3857
12443TIP3   OH258743   4.521   3.098  11.983  0.3188  0.4009 -0.2309
12443TIP3    H158744   4.457   3.118  11.915  0.3307  0.0366 -0.3518
12443TIP3    H258745   4.596   3.061  11.936 -0.1784 -1.0614  0.0946
12444TIP3   OH258746   5.369   5.767  15.609 -0.7671 -0.1172  0.0110
12444TIP3    H158747   5.325   5.785  15.692  0.2798 -1.2626  0.8464
12444TIP3    H258748   5.298   5.750  15.547 -1.7432  3.5921 -0.1598
12445TIP3   OH258749   5.730   5.599   5.609  0.0387 -0.4766 -0.2875
12445TIP3    H158750   5.686   5.684   5.610 -1.1540 -1.0687 -0.8594
12445TIP3    H258751   5.816   5.616   5.649  0.1202  1.1500 -1.0847
12446TIP3   OH258752   4.874   5.759  14.663  0.3936  0.0764  0.0141
12446TIP3    H158753   4.888   5.808  14.744 -0.9839 -1.2610  1.1283
12446TIP3    H258754   4.956   5.714  14.647  1.1415  1.4547 -0.1375
12447TIP3   OH258755   2.794   4.816  13.281  0.2669 -0.1315 -0.7664
12447TIP3    H158756   2.873   4.867  13.301 -0.4653 -0.0720  2.5873
12447TIP3    H258757   2.725   4.881  13.269  0.3476 -0.2416 -1.9862
12448TIP3   OH258758   5.594   6.034   1.358 -0.0482 -0.0090  0.3681
12448TIP3    H158759   5.559   5.975   1.424 -0.8021  0.1732  0.1395
12448TIP3    H258760   5.686   6.007   1.348  0.0668 -0.0711  1.4419
12449TIP3   OH258761   1.613   2.533  12.682 -0.1247 -0.4604 -0.4747
12449TIP3    H158762   1.689   2.478  12.702  0.7153  1.0486  0.7115
12449TIP3    H258763   1.542   2.497  12.736 -0.3799 -2.0387 -1.7862
12450TIP3   OH258764   0.421   1.724   0.601  0.1727 -0.1061 -0.2739
12450TIP3    H158765   0.504   1.689   0.632 -0.3395 -0.9660  0.1815
12450TIP3    H258766   0.375   1.648   0.564 -0.6492  0.2351  0.0152
12451TIP3   OH258767   4.568   6.280   5.947 -0.2401 -0.3730 -0.1501
12451TIP3    H158768   4.513   6.248   6.019  2.1110 -1.0383  1.4742
12451TIP3    H258769   4.547   6.373   5.942  0.4921  0.0177  2.4070
12452TIP3   OH258770   3.952   1.804  11.169 -0.1992  0.0970 -0.4299
12452TIP3    H158771   3.953   1.887  11.123  0.1143  0.4214  0.1509
12452TIP3    H258772   3.929   1.826  11.259  1.5380 -0.1959  0.1398
12453TIP3   OH258773   1.675   5.989   0.315 -0.0388  0.1790  0.4387
12453TIP3    H158774   1.760   6.019   0.347  0.6936 -2.4791  1.1682
12453TIP3    H258775   1.695   5.935   0.239 -1.0523 -0.5144  0.6426
12454TIP3   OH258776   4.144   0.717   3.097 -0.3331 -0.7487 -0.7722
12454TIP3    H158777   4.107   0.629   3.083 -1.5722 -0.3576 -0.1630
12454TIP3    H258778   4.084   0.757   3.161  0.1324  0.5914 -1.1595
12455TIP3   OH258779   0.609   4.771  11.257 -0.2687  0.1807 -0.1020
12455TIP3    H158780   0.657   4.712  11.199  0.6329  0.4823  0.3149
12455TIP3    H258781   0.667   4.847  11.267 -0.7118  0.4282  0.6431
12456TIP3   OH258782   6.798   1.272  10.297 -0.0911 -0.0622 -0.1244
12456TIP3    H158783   6.726   1.334  10.287 -1.1183 -1.1815  0.0953
12456TIP3    H258784   6.770   1.214  10.367  0.4113 -1.3617 -0.9737
12457TIP3   OH258785   0.541   0.823  11.156 -0.7526 -0.2979  0.2461
12457TIP3    H158786   0.622   0.848  11.200 -1.1173  0.0442  0.7374
12457TIP3    H258787   0.540   0.875  11.076 -0.0779 -0.9332 -0.1913
12458TIP3   OH258788   3.017   4.318  12.671 -0.3389 -0.5593 -0.5571
12458TIP3    H158789   3.007   4.235  12.624 -0.3441 -1.2432  0.6048
12458TIP3    H258790   3.042   4.292  12.760 -0.6418  0.6770 -0.0909
12459TIP3   OH258791   0.480   1.534  15.111 -0.0160 -0.1817  0.8260
12459TIP3    H158792   0.551   1.471  15.096  0.9058  1.0137 -0.0937
12459TIP3    H258793   0.432   1.536  15.028 -1.3535 -1.2001  1.5344
12460TIP3   OH258794   5.863   5.162   2.006  0.4882  0.3254  0.1342
12460TIP3    H158795   5.946   5.210   2.004 -0.3732  1.8964 -0.6250
12460TIP3    H258796   5.884   5.075   1.971  1.4061  1.4734 -2.4396
12461TIP3   OH258797   3.983   1.451  11.671 -0.1750  0.0034  0.4044
12461TIP3    H158798   3.972   1.525  11.730 -0.6049 -0.0438  0.3863
12461TIP3    H258799   4.075   1.426  11.681  0.4646  1.6552 -0.9275
12462TIP3   OH258800   6.677   4.039   4.967 -0.2116  0.1832  0.5872
12462TIP3    H158801   6.733   4.111   4.997  0.3496  1.1122 -2.4027
12462TIP3    H258802   6.639   4.070   4.885  0.4931 -3.1166 -1.1660
12463TIP3   OH258803   3.797   1.445   1.115 -0.2360  0.4367 -0.3618
12463TIP3    H158804   3.878   1.396   1.104  0.2372  1.0081  0.4312
12463TIP3    H258805   3.731   1.379   1.131  0.2714  0.0181  0.0237
12464TIP3   OH258806   5.137   3.371  14.992  0.0391 -0.1951 -0.4457
12464TIP3    H158807   5.113   3.345  15.081 -0.8634  0.5986 -0.4461
12464TIP3    H258808   5.173   3.291  14.953  0.5474 -0.5274  0.6545
12465TIP3   OH258809   4.329   4.691  15.135 -0.2616 -0.2053  0.1998
12465TIP3    H158810   4.378   4.762  15.176  0.2667 -0.9078  0.8183
12465TIP3    H258811   4.283   4.648  15.208 -0.2521 -0.7396 -0.1034
12466TIP3   OH258812   2.388   3.835   1.452 -0.2939  0.0986  0.4315
12466TIP3    H158813   2.333   3.796   1.520  1.2129  1.1264  2.3288
12466TIP3    H258814   2.467   3.780   1.451 -0.1099  0.3688 -0.1829
12467TIP3   OH258815   2.974   4.360  16.093 -0.6686  0.0390  0.7014
12467TIP3    H158816   3.040   4.344  16.026 -1.2308  1.6675 -0.2755
12467TIP3    H258817   2.890   4.354  16.047 -1.2611 -1.9546  1.9148
12468TIP3   OH258818   3.680   1.831   5.108 -0.1851  0.8319  0.0785
12468TIP3    H158819   3.620   1.758   5.095  0.3782  0.3348  0.2572
12468TIP3    H258820   3.699   1.830   5.201  0.4260  0.7280 -0.0436
12469TIP3   OH258821   1.913   5.955   0.457  0.1811  1.2142  0.1371
12469TIP3    H158822   1.938   5.867   0.429 -1.3443  0.9502 -0.4570
12469TIP3    H258823   1.991   6.008   0.439  1.1780 -0.0238  0.6727
12470TIP3   OH258824   1.207   4.472   3.307 -0.4350 -0.0001 -0.1226
12470TIP3    H158825   1.222   4.546   3.248 -2.5788  1.0901  0.6041
12470TIP3    H258826   1.239   4.502   3.392  0.3288 -0.6068 -0.1868
12471TIP3   OH258827   0.779   4.410   4.198 -0.2685  0.2157  0.3728
12471TIP3    H158828   0.752   4.339   4.139  1.4290 -0.7845  0.7442
12471TIP3    H258829   0.733   4.393   4.280  0.9120 -1.1021  0.7951
12472TIP3   OH258830   0.782   6.203  13.978  0.0360 -0.2578  0.0070
12472TIP3    H158831   0.739   6.230  14.059 -0.7512 -1.4406  0.0063
12472TIP3    H258832   0.713   6.162  13.926 -0.0585  2.5419 -2.3192
12473TIP3   OH258833   3.405   4.230  12.477 -0.0837  0.4883  0.1692
12473TIP3    H158834   3.467   4.244  12.405  1.2927  0.5548  1.3093
12473TIP3    H258835   3.341   4.168  12.443  2.4461 -2.1613 -0.1162
12474TIP3   OH258836   2.280   5.995   4.725  0.1707  0.1720  0.4679
12474TIP3    H158837   2.316   6.069   4.676 -0.8103  0.7656  0.6091
12474TIP3    H258838   2.189   5.990   4.696 -0.4581  0.5865  2.2459
12475TIP3   OH258839   2.361   5.313   3.366 -0.3166 -0.0171 -0.6660
12475TIP3    H158840   2.400   5.292   3.451 -0.3485 -0.7060 -0.8156
12475TIP3    H258841   2.429   5.362   3.320  0.1041 -0.5768 -0.6486
12476TIP3   OH258842   1.719   2.692  16.408 -0.4386 -0.0567  0.1251
12476TIP3    H158843   1.677   2.607  16.403 -0.6976  0.1178 -0.8032
12476TIP3    H258844   1.800   2.676  16.457  0.4015 -1.2192 -1.5233
12477TIP3   OH258845   3.638   4.307   0.192  0.2425 -0.0038 -0.2441
12477TIP3    H158846   3.584   4.366   0.244  0.8386  1.1919 -0.9425
12477TIP3    H258847   3.582   4.231   0.178 -0.6606  0.5052  0.4161
12478TIP3   OH258848   3.508   2.429  15.213  0.6375  0.4433  0.0134
12478TIP3    H158849   3.544   2.426  15.302 -0.3666  2.6854  0.5722
12478TIP3    H258850   3.415   2.450  15.225  0.4840  0.8230 -1.5719
12479TIP3   OH258851   2.111   5.972   4.267  0.0782  0.4390  0.0492
12479TIP3    H158852   2.086   5.903   4.328 -0.2712  1.1157  0.6865
12479TIP3    H258853   2.093   5.935   4.181 -0.4054 -0.1492  0.3936
12480TIP3   OH258854   3.599   6.320  11.559 -0.2135  0.1051  0.8191
12480TIP3    H158855   3.595   6.400  11.611  0.3709  1.1406 -0.6768
12480TIP3    H258856   3.617   6.251  11.623 -2.2214  0.8881  2.3681
12481TIP3   OH258857   3.338   4.552   2.426 -0.4978 -0.0255  0.1382
12481TIP3    H158858   3.326   4.491   2.353  0.5334  0.2173 -0.2464
12481TIP3    H258859   3.290   4.630   2.400 -2.0666 -0.7377  0.7567
12482TIP3   OH258860   0.263   3.154  14.232 -0.1197 -0.5935  0.1630
12482TIP3    H158861   0.306   3.114  14.157  0.9153 -0.2117  0.5447
12482TIP3    H258862   0.170   3.136  14.218  0.1295 -1.1996 -0.8041
12483TIP3   OH258863   4.403   5.571   6.243 -0.1783 -0.0729 -0.7553
12483TIP3    H158864   4.369   5.488   6.212  0.2270 -0.0359 -1.3195
12483TIP3    H258865   4.498   5.557   6.251 -0.1868  0.1367 -0.2255
12484TIP3   OH258866   0.305   4.470  10.363 -0.0141 -0.1944 -0.1965
12484TIP3    H158867   0.243   4.432  10.425 -0.7285  3.1197  1.3659
12484TIP3    H258868   0.301   4.413  10.287 -2.4193 -2.0098  1.1407
12485TIP3   OH258869   0.436   6.269   0.532 -0.6386  0.2236 -0.0007
12485TIP3    H158870   0.464   6.359   0.550 -0.4301 -0.0441  1.1107
12485TIP3    H258871   0.443   6.260   0.437 -1.5891  1.6736 -0.2405
12486TIP3   OH258872   2.288   5.232  16.584  0.2395 -0.5408  0.1529
12486TIP3    H158873   2.362   5.196  16.634 -0.7241 -0.0546  2.0500
12486TIP3    H258874   2.216   5.233  16.647 -1.4988 -1.3211 -1.7255
12487TIP3   OH258875   6.453   0.941   4.899 -0.4211  0.0690  0.4462
12487TIP3    H158876   6.430   0.981   4.983  0.4116 -0.1469  0.7916
12487TIP3    H258877   6.371   0.939   4.849 -0.8637  0.4514  1.1490
12488TIP3   OH258878   0.102   2.383  12.930  0.4342 -0.8446  0.2114
12488TIP3    H158879   0.018   2.338  12.917 -0.1655 -0.0168  1.1050
12488TIP3    H258880   0.088   2.438  13.007  1.2636  0.6147 -0.6426
12489TIP3   OH258881   1.170   4.436   4.525 -0.1932  0.0197  0.5110
12489TIP3    H158882   1.246   4.440   4.467 -1.5410 -0.1524 -1.3600
12489TIP3    H258883   1.164   4.344   4.550  1.4550  0.3962  2.4761
12490TIP3   OH258884   1.858   3.145   5.349 -0.3128 -0.6391  0.0724
12490TIP3    H158885   1.844   3.207   5.278 -3.7291 -1.0866  0.1926
12490TIP3    H258886   1.822   3.188   5.426 -0.4911 -1.7770  0.6545
12491TIP3   OH258887   4.150   6.621  11.646  0.1105  0.2461 -0.1411
12491TIP3    H158888   4.130   6.587  11.734  0.1695  0.7192  0.0576
12491TIP3    H258889   4.080   6.683  11.628 -0.6171 -0.7741 -0.9685
12492TIP3   OH258890   0.150   6.619  14.095 -0.1104 -0.0582 -0.5882
12492TIP3    H158891   0.074   6.594  14.147  1.2439 -1.2350  0.9030
12492TIP3    H258892   0.154   6.554  14.025  0.2516 -0.7780  0.0889
12493TIP3   OH258893   3.672   4.294  10.837 -0.2547 -0.4388  0.1530
12493TIP3    H158894   3.731   4.284  10.763 -0.0253  0.0485  0.2635
12493TIP3    H258895   3.637   4.206  10.853  0.2551 -0.6826 -0.0653
12494TIP3   OH258896   5.017   3.196  13.461 -0.6103  0.0520  0.3769
12494TIP3    H158897   5.089   3.251  13.429 -0.7800  0.9662  1.5027
12494TIP3    H258898   4.997   3.138  13.388  0.4127  0.6519 -0.4083
12495TIP3   OH258899   5.006   1.887   0.100 -0.3659  0.0717 -0.2677
12495TIP3    H158900   5.071   1.859   0.036 -0.4197 -0.2161 -0.1965
12495TIP3    H258901   5.056   1.932   0.167 -0.0306 -1.5711  0.6178
12496TIP3   OH258902   2.750   5.344  12.596 -0.1348 -0.3173 -0.4721
12496TIP3    H158903   2.779   5.391  12.675 -0.8453  0.3907 -0.6169
12496TIP3    H258904   2.804   5.265  12.594 -0.3270 -0.5088  0.9039
12497TIP3   OH258905   6.515   2.337   2.009 -0.0717 -0.1508 -0.3587
12497TIP3    H158906   6.535   2.355   1.917 -0.1787  0.2050 -0.3132
12497TIP3    H258907   6.441   2.394   2.029 -0.7911 -1.0605 -0.3734
12498TIP3   OH258908   1.816   6.468  16.597 -0.9228 -0.1712 -0.2359
12498TIP3    H158909   1.768   6.455  16.515  2.2896 -0.4778 -2.2543
12498TIP3    H258910   1.842   6.560  16.596 -0.2041 -0.3624  0.0152
12499TIP3   OH258911   6.440   1.959   0.167 -0.0536  0.0617 -0.0022
12499TIP3    H158912   6.466   2.028   0.228  1.1363 -0.7757  0.4788
12499TIP3    H258913   6.406   1.890   0.223 -1.0400  0.1578 -0.4679
12500TIP3   OH258914   0.484   4.726   5.513  0.2443  0.0764 -0.2592
12500TIP3    H158915   0.511   4.713   5.422  0.6310  3.0647 -0.6743
12500TIP3    H258916   0.552   4.682   5.565  0.2543 -1.2958 -1.3733
12501TIP3   OH258917   4.772   4.872   3.236 -0.1960  0.3586 -0.5352
12501TIP3    H158918   4.725   4.792   3.213 -1.7708  1.5338 -1.6077
12501TIP3    H258919   4.841   4.879   3.171  1.0723 -0.9901  0.6023
12502TIP3   OH258920   1.328   2.781  16.394  0.6572 -0.0613 -0.3603
12502TIP3    H158921   1.268   2.709  16.412  0.2355  0.1823 -0.7825
12502TIP3    H258922   1.277   2.860  16.411  0.9385  0.1482 -0.4687
12503TIP3   OH258923   1.143   3.932   3.038 -0.3396 -0.1895  0.3804
12503TIP3    H158924   1.198   3.931   2.960 -0.2464 -0.0665  0.4434
12503TIP3    H258925   1.056   3.907   3.006 -0.2298 -0.4691  0.2957
12504TIP3   OH258926   2.239   3.520   2.003 -0.7459  0.0609  0.5525
12504TIP3    H158927   2.269   3.611   2.004  1.0370 -0.4843  0.1540
12504TIP3    H258928   2.224   3.499   2.095 -2.4404  1.1032  0.5715
12505TIP3   OH258929   1.971   4.234  10.488 -0.0453 -0.2315  0.1336
12505TIP3    H158930   2.034   4.217  10.418  1.5659  2.4389  0.8056
12505TIP3    H258931   1.885   4.224  10.445  0.8599 -0.5298 -1.7159
12506TIP3   OH258932   3.182   3.054   2.798 -0.0064  0.6975  0.1236
12506TIP3    H158933   3.191   2.974   2.851  1.9991  1.6806  1.3720
12506TIP3    H258934   3.175   3.022   2.708 -0.8631 -0.9298  0.7229
12507TIP3   OH258935   2.532   3.482  14.802 -0.4485  0.5259 -0.6225
12507TIP3    H158936   2.571   3.423  14.866  1.2012  0.8810 -1.2453
12507TIP3    H258937   2.515   3.426  14.726 -1.1130  0.3826 -0.3721
12508TIP3   OH258938   2.648   0.740   0.692  0.2466  0.3344  0.4142
12508TIP3    H158939   2.617   0.830   0.685  1.4577  0.7986  0.6963
12508TIP3    H258940   2.628   0.700   0.608 -1.3554  0.5097  0.6917
12509TIP3   OH258941   5.029   4.769  16.820  1.0834 -0.0910 -0.3015
12509TIP3    H158942   5.097   4.833  16.840  1.4926 -1.3950  3.3130
12509TIP3    H258943   4.947   4.810  16.849  0.7668  0.1846 -1.5238
12510TIP3   OH258944   6.047   0.859   2.787  0.0511 -0.5454  0.1630
12510TIP3    H158945   6.143   0.862   2.783  0.1038  2.1026  1.1244
12510TIP3    H258946   6.019   0.910   2.711 -0.5830 -0.7889  0.2322
12511TIP3   OH258947   2.498   5.048   3.644 -0.1486  0.1997  0.4126
12511TIP3    H158948   2.432   5.019   3.581 -0.5780 -0.3211  1.0835
12511TIP3    H258949   2.570   4.986   3.633 -0.8493 -0.8515  1.4754
12512TIP3   OH258950   5.335   4.902   2.955 -0.4573  0.2937  0.2364
12512TIP3    H158951   5.314   4.817   2.917 -2.5819  0.5298  0.7964
12512TIP3    H258952   5.431   4.903   2.958 -0.1980 -0.5747 -3.1500
12513TIP3   OH258953   2.427   2.045  11.988 -0.7172 -0.4825  0.0128
12513TIP3    H158954   2.464   1.982  12.050 -0.3181 -1.3406 -1.0719
12513TIP3    H258955   2.393   1.992  11.916 -2.6206  0.3975  0.2003
12514TIP3   OH258956   0.606   0.807   4.092 -0.1058  0.5923  0.0404
12514TIP3    H158957   0.537   0.762   4.044 -0.4594 -0.1895  1.2280
12514TIP3    H258958   0.560   0.858   4.159  0.3158  2.3999 -0.9799
12515TIP3   OH258959   5.087   5.851   0.863  0.7516 -0.2682  0.1662
12515TIP3    H158960   5.130   5.768   0.883  0.7575 -0.7123 -1.4927
12515TIP3    H258961   5.025   5.865   0.934  1.0169 -1.5064  0.6575
12516TIP3   OH258962   2.104   3.346  16.772 -0.3992  0.4031  0.1378
12516TIP3    H158963   2.042   3.393  16.717 -0.5104  0.0347 -0.0552
12516TIP3    H258964   2.056   3.327  16.852 -0.4134  0.4539  0.1415
12517TIP3   OH258965   4.378   6.137  15.877 -0.1568  0.2523  0.1300
12517TIP3    H158966   4.358   6.100  15.963 -0.7968 -0.9107 -0.4892
12517TIP3    H258967   4.325   6.085  15.816  1.5377 -0.0652 -1.1495
12518TIP3   OH258968   1.390   6.084  14.291  0.4644  0.1786  0.2575
12518TIP3    H158969   1.325   6.122  14.350  1.5462 -1.3413  2.5558
12518TIP3    H258970   1.448   6.156  14.269  0.6649  0.5744  1.9790
12519TIP3   OH258971   2.565   1.649  12.257 -0.2692  0.2466  0.0038
12519TIP3    H158972   2.500   1.676  12.322  0.1489 -0.2395  0.6350
12519TIP3    H258973   2.513   1.619  12.182 -0.7544  1.2249 -0.0735
12520TIP3   OH258974   0.669   1.971  11.643 -0.4629 -0.1097  0.1904
12520TIP3    H158975   0.638   1.903  11.703  0.1386 -0.3894  0.1891
12520TIP3    H258976   0.742   1.931  11.596  0.3234  0.7429  0.6413
12521TIP3   OH258977   1.340   4.040   5.274  0.5112 -0.4072  0.3938
12521TIP3    H158978   1.427   4.066   5.304  1.1588 -1.0421 -0.8351
12521TIP3    H258979   1.353   4.015   5.183 -0.7482 -1.5893  0.5063
12522TIP3   OH258980   0.143   4.649  16.669  0.4916 -0.2177  0.1629
12522TIP3    H158981   0.176   4.714  16.607  0.6600  2.4772  2.8456
12522TIP3    H258982   0.199   4.659  16.746 -2.1560 -0.4415  2.2671
12523TIP3   OH258983   5.397   0.199  14.694  0.6544 -0.2529 -0.3936
12523TIP3    H158984   5.438   0.261  14.754 -0.1039  1.0298 -1.1471
12523TIP3    H258985   5.378   0.122  14.747  2.5090 -0.2519  0.3455
12524TIP3   OH258986   0.930   0.584   3.287 -0.2109 -0.1947 -0.3187
12524TIP3    H158987   0.967   0.542   3.210  1.9737  0.4438  0.3121
12524TIP3    H258988   0.984   0.553   3.360  1.2176  3.1811  0.2396
12525TIP3   OH258989   6.546   3.862   3.630 -0.2326 -0.2371 -0.1390
12525TIP3    H158990   6.598   3.855   3.710 -0.3988  1.7656  0.2073
12525TIP3    H258991   6.472   3.803   3.644  0.7889 -1.4474  0.2981
12526TIP3   OH258992   1.886   2.051  12.351 -0.6742  1.1083 -0.5743
12526TIP3    H158993   1.936   1.970  12.338  0.1953  1.7757 -1.5416
12526TIP3    H258994   1.812   2.044  12.291 -0.1058  1.4151 -1.3203
12527TIP3   OH258995   2.064   2.365   3.748 -0.0598 -0.4162  0.2648
12527TIP3    H158996   2.160   2.356   3.745  0.0625  1.0434 -1.5702
12527TIP3    H258997   2.049   2.458   3.765 -1.1732 -0.7021  0.9131
12528TIP3   OH258998   3.204   4.825  12.508 -0.0731  0.3876  0.0723
12528TIP3    H158999   3.222   4.919  12.496 -1.3979  0.4679 -1.9041
12528TIP3    H259000   3.256   4.782  12.440  0.1768 -0.2867  0.6788
12529TIP3   OH259001   3.809   4.352  14.194 -0.3456 -0.4084 -0.6207
12529TIP3    H159002   3.812   4.444  14.220 -0.4455 -0.9579  1.5315
12529TIP3    H259003   3.898   4.332  14.166 -0.4440  0.4497 -1.6271
12530TIP3   OH259004   0.134   0.597  17.174 -0.9580 -0.1141  0.1493
12530TIP3    H159005   0.206   0.584  17.235 -0.5283 -0.2606 -0.3837
12530TIP3    H259006   0.123   0.512  17.132 -0.4409  0.2936 -0.8518
12531TIP3   OH259007   2.949   6.580  11.522  0.0898  0.0342 -0.0402
12531TIP3    H159008   2.872   6.631  11.547 -0.7819 -1.0265 -0.4870
12531TIP3    H259009   3.003   6.578  11.601 -0.4051  0.6654  0.3224
12532TIP3   OH259010   3.149   6.735  13.870 -0.0720 -0.0583  0.7615
12532TIP3    H159011   3.176   6.792  13.798 -0.9286  1.1269  1.3409
12532TIP3    H259012   3.112   6.795  13.935  3.7432 -0.5548  3.8095
12533TIP3   OH259013   4.082   4.243  12.429 -0.1523 -0.8373  0.7466
12533TIP3    H159014   4.176   4.254  12.439  0.2802 -0.8002 -2.3992
12533TIP3    H259015   4.065   4.152  12.454  0.6329 -0.7820  1.5362
12534TIP3   OH259016   6.688   5.147   5.631  0.2084  0.1625 -0.0462
12534TIP3    H159017   6.699   5.239   5.603 -1.0955  0.4396  0.2952
12534TIP3    H259018   6.726   5.096   5.559  1.4082  0.9730 -0.0119
12535TIP3   OH259019   2.629   0.856  16.388 -0.8176  0.3887  0.6949
12535TIP3    H159020   2.535   0.860  16.376 -0.7929  0.8968  0.6395
12535TIP3    H259021   2.660   0.797  16.320 -1.2117 -0.6873  1.4297
12536TIP3   OH259022   0.891   2.178  13.583  0.2271  0.3787  0.3629
12536TIP3    H159023   0.854   2.160  13.497  1.0376 -1.2423  0.3144
12536TIP3    H259024   0.821   2.222  13.631  0.1133  2.3160 -1.4309
12537TIP3   OH259025   1.923   4.134  14.777  0.3108  0.7240  0.1729
12537TIP3    H159026   1.849   4.192  14.763  0.3680  1.0995  1.3247
12537TIP3    H259027   2.000   4.190  14.768  0.5543  0.1404 -2.0522
12538TIP3   OH259028   3.963   4.428   3.485  0.3372 -0.0353  0.6429
12538TIP3    H159029   4.016   4.354   3.454  2.1709  1.1801  0.7602
12538TIP3    H259030   3.982   4.435   3.578 -0.0563  0.4222  0.6951
12539TIP3   OH259031   0.379   5.999   5.515 -0.0750 -0.7254  0.3156
12539TIP3    H159032   0.464   5.955   5.518 -0.3688 -1.3749 -0.3858
12539TIP3    H259033   0.353   5.995   5.423 -1.4552 -1.7081  0.7078
12540TIP3   OH259034   4.331   6.230  14.392 -0.6530 -0.0130  0.1631
12540TIP3    H159035   4.236   6.244  14.394 -1.1350 -2.7299  0.2678
12540TIP3    H259036   4.352   6.199  14.481  0.1159 -0.4841 -0.1712
12541TIP3   OH259037   1.293   6.413   4.158  0.0008  0.4363 -0.3268
12541TIP3    H159038   1.274   6.460   4.077 -2.3031  2.3511  1.1783
12541TIP3    H259039   1.346   6.474   4.209 -2.4137  1.2727  1.3572
12542TIP3   OH259040   3.628   6.196  11.825  0.1141 -0.1356 -0.3937
12542TIP3    H159041   3.673   6.132  11.881 -0.3309  0.8480  1.1516
12542TIP3    H259042   3.536   6.188  11.849 -0.1599 -0.0550 -1.3861
12543TIP3   OH259043   2.801   4.225   3.743  0.1502 -0.4279  0.3288
12543TIP3    H159044   2.710   4.227   3.712  0.2579  1.5075  0.0557
12543TIP3    H259045   2.794   4.235   3.838  0.1055  0.8430  0.2029
12544TIP3   OH259046   3.903   0.642   2.820 -0.2766 -0.0005  0.0642
12544TIP3    H159047   3.836   0.577   2.800  0.8268 -0.3606 -2.9584
12544TIP3    H259048   3.961   0.599   2.883 -1.6762 -0.4466  1.0839
12545TIP3   OH259049   2.507   2.542   1.944 -0.0729 -0.1469  0.0163
12545TIP3    H159050   2.446   2.592   1.998 -2.5920 -1.5727 -1.3164
12545TIP3    H259051   2.523   2.598   1.868  0.1198  0.1469  0.2713
12546TIP3   OH259052   1.448   5.079  13.785 -0.2948  0.1623 -0.4600
12546TIP3    H159053   1.539   5.083  13.756 -0.4500 -1.4624 -1.2721
12546TIP3    H259054   1.450   5.024  13.864 -0.6927 -0.7693 -1.0874
12547TIP3   OH259055   2.028   1.048   0.931 -0.2029  0.2695 -0.1928
12547TIP3    H159056   2.020   0.975   0.993 -0.6041  0.8130  0.4041
12547TIP3    H259057   2.059   1.121   0.984 -3.5301  1.6379  0.0918
12548TIP3   OH259058   4.979   3.929  14.259  0.1244  0.4951  0.0382
12548TIP3    H159059   4.913   3.971  14.313 -0.0475  0.6888 -0.3192
12548TIP3    H259060   4.968   3.968  14.172 -0.9315 -1.2328 -0.6507
12549TIP3   OH259061   2.827   3.407   1.445  0.3236  0.5867 -0.2735
12549TIP3    H159062   2.781   3.386   1.364  0.7596  0.0638 -0.3893
12549TIP3    H259063   2.779   3.358   1.513  0.0453  0.9127 -0.2302
12550TIP3   OH259064   1.156   5.921  12.495  0.1258  0.0650  0.2958
12550TIP3    H159065   1.103   5.852  12.536 -0.1971  0.7041  0.9792
12550TIP3    H259066   1.245   5.903  12.524 -0.0104  0.1444  0.7719
12551TIP3   OH259067   1.652   6.538   2.766 -0.1364 -0.0715 -0.7717
12551TIP3    H159068   1.717   6.605   2.747  1.2040 -0.3090  2.3806
12551TIP3    H259069   1.582   6.584   2.813  0.3677 -0.6616  0.6100
12552TIP3   OH259070   4.265   1.247   2.512  0.4497  0.1506 -0.2297
12552TIP3    H159071   4.207   1.312   2.552 -0.0481  0.0781 -0.8264
12552TIP3    H259072   4.333   1.299   2.470 -0.4338  0.3487 -1.4728
12553TIP3   OH259073   4.374   3.908   2.247  0.8617 -0.1312  0.2121
12553TIP3    H159074   4.331   3.918   2.162  1.7143  1.0595 -0.1050
12553TIP3    H259075   4.359   3.817   2.270 -1.7788  0.1993  0.1127
12554TIP3   OH259076   4.041   4.448   0.636 -0.3997  0.5493 -0.7035
12554TIP3    H159077   4.118   4.394   0.657  0.1822  1.8449  0.6407
12554TIP3    H259078   4.025   4.431   0.543 -0.2088 -1.8673 -0.3630
12555TIP3   OH259079   1.839   1.111  13.196  0.1689  0.2156  0.3509
12555TIP3    H159080   1.851   1.166  13.118  0.7442 -0.2959  0.0713
12555TIP3    H259081   1.747   1.122  13.219 -0.0092  0.3790 -0.3974
12556TIP3   OH259082   3.910   0.284   5.766  0.5186 -0.2045 -0.3360
12556TIP3    H159083   3.876   0.362   5.721  0.5723 -0.5339 -0.9496
12556TIP3    H259084   3.834   0.226   5.773  1.2472 -1.7018 -3.3007
12557TIP3   OH259085   0.472   6.413   0.867 -0.0624  0.0613 -0.0716
12557TIP3    H159086   0.514   6.336   0.905 -0.7725 -0.4443 -0.2855
12557TIP3    H259087   0.459   6.472   0.941  2.6500  1.0412 -0.2716
12558TIP3   OH259088   4.657   5.373  14.760 -0.2383 -0.5316 -0.1158
12558TIP3    H159089   4.750   5.357  14.742 -0.5441 -1.6167 -0.8262
12558TIP3    H259090   4.636   5.314  14.832 -0.2857  0.0248  0.3344
12559TIP3   OH259091   0.713   5.168  14.175  0.0228 -0.3115 -0.1959
12559TIP3    H159092   0.706   5.238  14.109  3.5569  0.6938  0.3118
12559TIP3    H259093   0.764   5.100  14.133  1.7078  0.0344  1.1926
12560TIP3   OH259094   1.589   4.699  15.680  0.4265 -0.0192  1.0310
12560TIP3    H159095   1.500   4.674  15.707  1.2044 -2.1869  1.7898
12560TIP3    H259096   1.642   4.687  15.759  1.4461  1.1678  0.5690
12561TIP3   OH259097   6.185   2.471   0.389  0.3813 -0.1379  0.5342
12561TIP3    H159098   6.129   2.451   0.464  0.4520  0.6592  0.8080
12561TIP3    H259099   6.274   2.460   0.422  0.7619  5.0581  2.2365
12562TIP3   OH259100   6.664   1.992  12.658 -0.1521  0.1528 -0.2067
12562TIP3    H159101   6.706   1.987  12.744 -0.2990  0.3072 -0.1234
12562TIP3    H259102   6.730   1.962  12.596 -0.3392 -0.8225  0.0503
12563TIP3   OH259103   0.497   6.712  13.501  0.6733  0.4001  0.1402
12563TIP3    H159104   0.584   6.691  13.466 -0.2082  1.9851 -3.5073
12563TIP3    H259105   0.437   6.661  13.447 -0.7371  0.6030  1.4687
12564TIP3   OH259106   6.123   0.134  14.047 -0.2345 -0.3984 -0.1486
12564TIP3    H159107   6.172   0.163  14.125 -1.7603 -0.6564  0.9486
12564TIP3    H259108   6.145   0.041  14.039 -0.7439 -0.5780  0.4974
12565TIP3   OH259109   4.499   5.160  14.616  0.3449 -0.4562 -0.5503
12565TIP3    H159110   4.509   5.183  14.524  0.0335  2.8170  0.1195
12565TIP3    H259111   4.589   5.152  14.648  0.4544 -1.7766 -1.1229
12566TIP3   OH259112   2.460   6.141   3.438  0.1713 -0.3244 -0.4581
12566TIP3    H159113   2.553   6.158   3.452 -0.4220  2.6533  0.7865
12566TIP3    H259114   2.457   6.057   3.393  3.4799 -0.1703 -1.2290
12567TIP3   OH259115   6.187   3.399  16.674 -0.3981 -0.5207 -0.2102
12567TIP3    H159116   6.210   3.444  16.755 -0.0962 -0.3651 -0.3792
12567TIP3    H259117   6.204   3.307  16.691 -1.6523 -0.6791  0.3607
12568TIP3   OH259118   4.365   3.095  13.996  0.3315 -0.5183  0.0469
12568TIP3    H159119   4.275   3.110  14.025 -0.3642 -0.7923 -1.8013
12568TIP3    H259120   4.393   3.178  13.959  0.3975 -0.7609 -0.4572
12569TIP3   OH259121   1.464   0.111   3.408  0.3452 -0.4690  0.2154
12569TIP3    H159122   1.466   0.117   3.504  0.3885 -0.3890  0.2097
12569TIP3    H259123   1.462   0.202   3.378  0.4110 -0.4930  0.1384
12570TIP3   OH259124   3.106   0.488   1.086  0.0421  0.5976  0.5531
12570TIP3    H159125   3.133   0.574   1.118 -0.5166  0.7845  0.5173
12570TIP3    H259126   3.158   0.426   1.137 -0.6343  0.8949  1.6263
12571TIP3   OH259127   2.989   6.219  13.350  0.6967 -0.2059 -0.7698
12571TIP3    H159128   3.081   6.243  13.358  0.2413  1.4961 -0.2848
12571TIP3    H259129   2.990   6.124  13.340  2.4393 -0.3467  0.3451
12572TIP3   OH259130   3.455   4.458  14.856  0.9053 -0.4505  0.0927
12572TIP3    H159131   3.384   4.504  14.811 -1.0295 -1.9843  1.4289
12572TIP3    H259132   3.497   4.406  14.788 -0.9306 -1.4854 -0.3262
12573TIP3   OH259133   4.194   6.597   2.729  0.0526  0.1136 -0.6259
12573TIP3    H159134   4.192   6.502   2.743  1.7377  0.3957  2.5808
12573TIP3    H259135   4.105   6.620   2.703 -0.2651 -2.3670 -2.0007
12574TIP3   OH259136   1.042   5.941   6.328 -0.0229  0.7533 -0.1769
12574TIP3    H159137   0.953   5.931   6.361  0.9053 -1.1894  1.9919
12574TIP3    H259138   1.087   5.860   6.353  1.7370  0.5241 -3.4559
12575TIP3   OH259139   2.932   1.594   4.847  0.6167 -0.1588  0.4333
12575TIP3    H159140   2.888   1.534   4.909 -1.6049 -0.2447 -1.0863
12575TIP3    H259141   2.909   1.559   4.761  3.8146 -0.1731 -0.5091
12576TIP3   OH259142   0.865   0.441   5.607 -0.1257  0.2899  0.6840
12576TIP3    H159143   0.941   0.477   5.561 -3.1375  2.7724 -3.0263
12576TIP3    H259144   0.848   0.358   5.563 -0.4286  0.5037  0.3906
12577TIP3   OH259145   2.062   2.638   3.834  0.1576  0.2284  0.3082
12577TIP3    H159146   2.158   2.634   3.840  0.2522  1.2708 -0.1558
12577TIP3    H259147   2.045   2.723   3.792 -0.9031 -0.6490 -1.1365
12578TIP3   OH259148   5.230   1.775  16.566 -0.0915 -0.0763  0.7426
12578TIP3    H159149   5.226   1.838  16.638 -1.0975 -0.2433  0.8476
12578TIP3    H259150   5.312   1.795  16.521  1.0121 -0.5544  2.4563
12579TIP3   OH259151   4.573   3.845   4.789 -0.1536 -0.3655  0.5979
12579TIP3    H159152   4.490   3.893   4.786  0.1134  0.2240  1.8658
12579TIP3    H259153   4.551   3.756   4.760 -1.0852 -0.0396  0.2730
12580TIP3   OH259154   5.670   4.023  13.444  0.1679 -0.3331  0.2029
12580TIP3    H159155   5.726   3.955  13.481 -0.1747 -0.6458  0.1542
12580TIP3    H259156   5.629   3.981  13.368 -0.5903 -0.3072  0.5848
12581TIP3   OH259157   1.571   4.688   3.902  0.2168  0.4503  0.1288
12581TIP3    H159158   1.619   4.700   3.820  1.9879 -1.6081  0.7734
12581TIP3    H259159   1.487   4.650   3.876  0.4104  0.6371 -0.7906
12582TIP3   OH259160   2.638   5.248  12.340 -0.1255 -0.6144 -0.0822
12582TIP3    H159161   2.654   5.312  12.410  0.1863 -0.1621 -0.5633
12582TIP3    H259162   2.546   5.225  12.350 -0.5693  0.7898 -0.6171
12583TIP3   OH259163   0.717   4.381  11.815 -0.5205  0.3121  0.0416
12583TIP3    H159164   0.677   4.463  11.783  0.7192  1.1378  0.5389
12583TIP3    H259165   0.801   4.377  11.770 -0.8748 -1.0942 -0.5298
12584TIP3   OH259166   5.794   1.994   3.654 -0.0281  0.1136 -0.5479
12584TIP3    H159167   5.861   1.991   3.722  0.2400  3.5841 -0.5130
12584TIP3    H259168   5.722   1.942   3.690  1.0113 -0.1555  1.2919
12585TIP3   OH259169   2.170   5.548   2.607  0.1093 -0.6187 -0.2250
12585TIP3    H159170   2.127   5.503   2.534  1.1530  0.0345 -1.2796
12585TIP3    H259171   2.153   5.493   2.683 -0.3368 -1.7349 -1.1102
12586TIP3   OH259172   1.994   4.441   3.039 -0.3568  0.1186 -0.1722
12586TIP3    H159173   1.916   4.457   3.092 -0.0815  2.8942 -0.4274
12586TIP3    H259174   1.991   4.509   2.972  1.5783 -0.5634 -1.0097
12587TIP3   OH259175   4.879   5.266   4.927 -0.2095  0.2384 -0.0369
12587TIP3    H159176   4.952   5.282   4.866  1.3061 -0.0767  1.6098
12587TIP3    H259177   4.814   5.333   4.904  0.1059 -0.1178 -2.2284
12588TIP3   OH259178   0.714   3.186   4.390 -0.2980  0.5707  0.1891
12588TIP3    H159179   0.764   3.257   4.350  0.9133 -0.2526  0.2034
12588TIP3    H259180   0.683   3.134   4.316  0.5100  0.0038  0.2361
12589TIP3   OH259181   3.125   3.617  10.946  0.1088  0.0878 -0.1145
12589TIP3    H159182   3.078   3.664  10.877 -0.3332 -0.9257 -0.5231
12589TIP3    H259183   3.075   3.636  11.025  0.7107  1.3896 -0.0299
12590TIP3   OH259184   0.750   5.723   4.093 -0.0860  0.4415 -0.4647
12590TIP3    H159185   0.817   5.699   4.030  2.1878 -0.6997  2.1815
12590TIP3    H259186   0.785   5.801   4.138 -0.2546 -0.4040  1.2276
12591TIP3   OH259187   1.286   5.550  15.271  0.1864 -0.0314  0.5346
12591TIP3    H159188   1.266   5.457  15.285 -0.3323 -0.0463 -0.2237
12591TIP3    H259189   1.338   5.551  15.190  1.8899  0.1714  1.5775
12592TIP3   OH259190   5.393   5.487  14.630  0.4458 -0.5539  0.2301
12592TIP3    H159191   5.486   5.506  14.619  0.8404 -1.2178  2.0258
12592TIP3    H259192   5.389   5.392  14.644 -0.0575 -0.1850  3.3956
12593TIP3   OH259193   1.139   3.475   5.401  0.3167  0.2484 -0.3384
12593TIP3    H159194   1.153   3.419   5.324  3.7423  0.3907 -0.0066
12593TIP3    H259195   1.154   3.417   5.475  0.0274  0.7730  0.1360
12594TIP3   OH259196   2.429   6.050  12.681  0.0370  0.1799 -0.2772
12594TIP3    H159197   2.477   6.074  12.760 -0.6108  0.6419 -0.0229
12594TIP3    H259198   2.477   5.975  12.646  0.8617  0.5456  0.0507
12595TIP3   OH259199   6.242   1.152  15.645  0.5527 -0.0351  0.1880
12595TIP3    H159200   6.191   1.077  15.613  1.0183  0.2714 -1.3340
12595TIP3    H259201   6.322   1.112  15.680 -0.9120 -0.6005  3.3141
12596TIP3   OH259202   3.269   3.257  12.556  0.1713 -0.9685 -0.0930
12596TIP3    H159203   3.243   3.255  12.464 -0.8778  0.6091  0.1240
12596TIP3    H259204   3.337   3.190  12.564  1.1119 -0.3414 -2.2581
12597TIP3   OH259205   4.580   4.161   1.598 -0.3000 -0.0762  0.1741
12597TIP3    H159206   4.506   4.171   1.658 -0.1696 -0.5387  0.4124
12597TIP3    H259207   4.657   4.176   1.653 -0.0999 -2.0466  0.4863
12598TIP3   OH259208   3.788   0.351   4.480 -0.1873 -0.8293 -0.1120
12598TIP3    H159209   3.723   0.280   4.473  0.0497 -1.0474 -0.1248
12598TIP3    H259210   3.744   0.419   4.530 -1.6838  0.4489 -2.9247
12599TIP3   OH259211   2.604   2.427  15.747 -0.5035  0.0285  0.1230
12599TIP3    H159212   2.519   2.429  15.703 -0.5680  0.5433  0.2676
12599TIP3    H259213   2.650   2.354  15.705 -0.4457  0.6933 -1.0104
12600TIP3   OH259214   1.489   0.281  10.938 -0.5770  0.1436  0.0298
12600TIP3    H159215   1.542   0.233  10.875  0.7836 -1.2449  2.0977
12600TIP3    H259216   1.488   0.371  10.906  1.6823 -0.1260 -0.9610
12601TIP3   OH259217   2.134   4.506   4.287 -0.0297 -0.2342 -0.4717
12601TIP3    H159218   2.065   4.445   4.261 -0.2218  1.0146 -3.2287
12601TIP3    H259219   2.156   4.553   4.207  1.6284  1.8242  1.0745
12602TIP3   OH259220   6.411   1.647   2.137  0.0247 -0.4120 -0.5707
12602TIP3    H159221   6.407   1.740   2.159  1.0458 -0.2922 -0.8409
12602TIP3    H259222   6.324   1.614   2.158 -0.6749  0.8068 -1.4129
12603TIP3   OH259223   6.418   3.235   5.185 -0.1590 -0.2146 -1.0906
12603TIP3    H159224   6.348   3.210   5.125 -0.4137 -0.9357 -0.5029
12603TIP3    H259225   6.438   3.326   5.161 -0.4973 -0.3735 -2.0208
12604TIP3   OH259226   5.150   1.168   0.424  0.1975  0.1293 -0.0967
12604TIP3    H159227   5.157   1.072   0.425  1.0627  0.1712 -0.8500
12604TIP3    H259228   5.060   1.186   0.450 -0.3944 -0.9463 -1.2980
12605TIP3   OH259229   4.133   6.626  12.166 -0.1639 -0.1978  0.6920
12605TIP3    H159230   4.052   6.654  12.209  0.3652 -0.2454  1.7606
12605TIP3    H259231   4.179   6.707  12.145 -0.5750 -0.1639 -0.1082
12606TIP3   OH259232   3.014   3.142  15.795 -0.4365  0.0477 -0.2884
12606TIP3    H159233   2.970   3.097  15.723 -1.8548 -0.0462  0.5861
12606TIP3    H259234   2.945   3.194  15.837  0.4602  0.5061  0.6833
12607TIP3   OH259235   3.454   5.930  11.380 -1.0476 -0.1204  0.1392
12607TIP3    H159236   3.364   5.902  11.396 -0.5773 -2.0343 -0.2893
12607TIP3    H259237   3.492   5.860  11.327  0.3796  1.1955 -0.6574
12608TIP3   OH259238   3.767   0.224   0.642 -0.0904  0.2300  0.9238
12608TIP3    H159239   3.789   0.131   0.638  1.7521  0.6668 -1.7792
12608TIP3    H259240   3.680   0.226   0.682 -0.9220 -2.8184 -0.3855
12609TIP3   OH259241   1.284   4.045   4.483 -0.1504 -0.4205 -0.5110
12609TIP3    H159242   1.345   4.090   4.541 -1.8652  1.2184  0.1130
12609TIP3    H259243   1.227   3.995   4.542 -0.6971 -0.2814 -0.9154
12610TIP3   OH259244   1.471   4.324  11.561  0.3640 -0.1836  0.0012
12610TIP3    H159245   1.560   4.306  11.591  0.2602  0.8832  1.0411
12610TIP3    H259246   1.415   4.293  11.632 -0.0328  0.1482 -0.1592
12611TIP3   OH259247   2.903   6.481   2.564 -0.1315  0.0018  0.0952
12611TIP3    H159248   2.908   6.417   2.493  1.1023  2.7734 -2.5286
12611TIP3    H259249   2.974   6.456   2.624  0.0292 -1.3395 -0.6263
12612TIP3   OH259250   0.053   5.510  15.760 -0.0174  0.2091  0.0124
12612TIP3    H159251   0.054   5.472  15.848  1.0064  2.0537  0.8640
12612TIP3    H259252   0.130   5.474  15.716  0.1701  0.2362  0.3186
12613TIP3   OH259253   2.623   3.234  11.782 -0.0463  0.4935 -0.3986
12613TIP3    H159254   2.623   3.321  11.742  0.0837  1.2939  1.2657
12613TIP3    H259255   2.706   3.196  11.754  0.9820  1.8276  0.6751
12614TIP3   OH259256   1.487   2.230  15.457 -0.6475  0.6151 -0.6968
12614TIP3    H159257   1.422   2.297  15.478 -0.3945  0.6898 -0.1146
12614TIP3    H259258   1.439   2.164  15.407 -0.6183  1.8286 -2.4073
12615TIP3   OH259259   5.535   3.201   2.321 -0.2519 -0.2964  0.0450
12615TIP3    H159260   5.450   3.219   2.361 -0.0876  0.9761 -0.1184
12615TIP3    H259261   5.597   3.248   2.376  0.1932 -0.1538 -0.5729
12616TIP3   OH259262   6.595   4.503  15.178  0.4595  0.0651  0.0398
12616TIP3    H159263   6.522   4.564  15.165  0.2833 -0.3322 -0.9276
12616TIP3    H259264   6.656   4.523  15.107  0.3076 -1.0077 -0.4068
12617TIP3   OH259265   1.781   2.491  13.361 -0.1924  0.5610 -0.0238
12617TIP3    H159266   1.769   2.422  13.427  1.2861  1.0029  0.7575
12617TIP3    H259267   1.790   2.571  13.412  0.9406  0.9204 -0.7517
12618TIP3   OH259268   1.745   6.691   2.552 -0.1220  0.2530  0.4030
12618TIP3    H159269   1.758   6.738   2.470  1.0985  1.3256  1.1683
12618TIP3    H259270   1.652   6.666   2.551 -0.0156 -0.2155 -1.4980
12619TIP3   OH259271   6.367   6.492  15.295 -0.4364  0.2275  0.5087
12619TIP3    H159272   6.311   6.422  15.328  0.9481 -1.8837 -1.2838
12619TIP3    H259273   6.373   6.554  15.366 -2.5129 -1.0004  1.8641
12620TIP3   OH259274   2.814   3.016   4.610 -0.1644  0.0852 -0.2469
12620TIP3    H159275   2.721   3.022   4.628 -0.5744  1.7713 -2.4476
12620TIP3    H259276   2.822   2.947   4.544 -0.3446  1.8784 -2.2671
12621TIP3   OH259277   1.087   4.509  13.128  0.2631 -0.5036  0.2889
12621TIP3    H159278   1.034   4.450  13.182  0.5172 -0.1581  0.9360
12621TIP3    H259279   1.166   4.459  13.108 -0.3217 -1.0347 -0.7155
12622TIP3   OH259280   2.930   0.112  15.466  0.2197 -0.2157  0.5423
12622TIP3    H159281   2.952   0.026  15.429 -0.3405  0.0392 -0.4121
12622TIP3    H259282   2.952   0.174  15.397  0.6775  0.4279  1.2475
12623TIP3   OH259283   1.584   2.172   4.616  0.5617  0.3833 -0.1246
12623TIP3    H159284   1.617   2.190   4.704 -0.7930  0.9292  0.3089
12623TIP3    H259285   1.501   2.220   4.612  0.4710  0.1429 -1.6083
12624TIP3   OH259286   0.542   2.878  14.787  0.0475 -0.4131  0.4725
12624TIP3    H159287   0.489   2.935  14.731  2.1070 -0.4906 -1.7122
12624TIP3    H259288   0.530   2.913  14.875  0.1425  2.5791 -0.5866
12625TIP3   OH259289   5.622   2.548  10.827 -0.3161 -0.4407 -0.0741
12625TIP3    H159290   5.577   2.621  10.869 -1.9477 -1.4374 -0.0095
12625TIP3    H259291   5.568   2.527  10.751 -0.0929 -1.8207  0.1263
12626TIP3   OH259292   5.616   1.178  14.200 -0.4066 -0.2959  0.1090
12626TIP3    H159293   5.536   1.160  14.250 -0.5808  0.9616  0.3188
12626TIP3    H259294   5.593   1.252  14.144  0.1812 -0.8738 -0.9177
12627TIP3   OH259295   4.084   3.742  16.415 -0.1884  0.0296  0.2499
12627TIP3    H159296   4.151   3.809  16.403  1.0332 -1.1278  0.4293
12627TIP3    H259297   4.122   3.681  16.478 -2.2138  0.3837  1.9466
12628TIP3   OH259298   4.585   2.570   2.169  0.2575  0.5472 -0.7290
12628TIP3    H159299   4.494   2.558   2.140 -0.0368  1.5896 -0.2942
12628TIP3    H259300   4.635   2.577   2.087  0.5767 -3.6613 -1.1116
12629TIP3   OH259301   5.402   2.842   4.850 -0.1618  0.4069 -0.2063
12629TIP3    H159302   5.393   2.918   4.793  0.8358 -0.4224 -1.5193
12629TIP3    H259303   5.496   2.825   4.853 -0.3668 -0.8184 -0.0053
12630TIP3   OH259304   2.673   2.457  11.955 -0.2488 -0.4223  0.0227
12630TIP3    H159305   2.761   2.444  11.990 -0.9061 -1.2962  1.4621
12630TIP3    H259306   2.634   2.524  12.012 -0.0683  1.0563 -1.5074
12631TIP3   OH259307   2.698   5.858   5.950  0.1689  0.4748 -0.0255
12631TIP3    H159308   2.619   5.912   5.952  0.3736  0.7707  0.9171
12631TIP3    H259309   2.768   5.919   5.927  0.2677  0.4354  0.1613
12632TIP3   OH259310   3.549   0.072   2.008  0.1616 -0.0057 -0.3228
12632TIP3    H159311   3.539   0.150   2.064 -1.9040 -0.8252  0.5532
12632TIP3    H259312   3.497   0.092   1.930 -1.4091 -0.9324  0.4413
12633TIP3   OH259313   6.128   0.771  10.333  0.2127  0.1824  0.5214
12633TIP3    H159314   6.217   0.780  10.299 -1.0722  3.2949 -2.6194
12633TIP3    H259315   6.103   0.682  10.309  2.2450 -0.6166  1.0909
12634TIP3   OH259316   5.527   0.567  16.983  0.7084 -0.4743  0.0817
12634TIP3    H159317   5.461   0.606  17.040  0.6439 -0.6912  0.1556
12634TIP3    H259318   5.556   0.488  17.029 -1.2683 -2.1478 -1.3657
12635TIP3   OH259319   1.458   4.966   5.198 -0.0857  0.0692  0.0187
12635TIP3    H159320   1.471   5.040   5.257  0.0167 -0.8718  1.2306
12635TIP3    H259321   1.547   4.938   5.175 -0.0646 -0.9369  1.2366
12636TIP3   OH259322   0.125   5.650   0.389  0.0917 -0.1554 -0.1083
12636TIP3    H159323   0.189   5.578   0.398  0.2270 -0.1550 -0.9689
12636TIP3    H259324   0.176   5.729   0.405 -0.3771 -0.2711  2.4709
12637TIP3   OH259325   6.504   2.592   1.096 -0.4610  0.3243 -0.0474
12637TIP3    H159326   6.499   2.643   1.177 -2.7049  0.6184 -0.2950
12637TIP3    H259327   6.413   2.587   1.066 -0.2108 -2.8362 -0.6671
12638TIP3   OH259328   1.699   0.082  17.148  0.1475 -0.0704  0.2284
12638TIP3    H159329   1.660   0.002  17.113  2.0578 -0.9641  0.0222
12638TIP3    H259330   1.625   0.134  17.179 -1.2392 -1.2655 -0.9786
12639TIP3   OH259331   4.391   3.983  15.766  0.5337 -0.5205  0.8745
12639TIP3    H159332   4.370   3.970  15.674 -1.5660  0.0027  1.2178
12639TIP3    H259333   4.386   3.895  15.804  2.8704 -0.9709  0.2870
12640TIP3   OH259334   1.483   4.941  14.702  0.4876 -0.2451  0.0705
12640TIP3    H159335   1.539   4.899  14.767  0.7308 -0.0368 -0.0025
12640TIP3    H259336   1.543   4.992  14.648  0.2891 -0.4302 -0.3287
12641TIP3   OH259337   1.813   4.229   1.772  0.2958 -0.5551 -0.3679
12641TIP3    H159338   1.822   4.144   1.728  2.3498  0.0248 -1.1859
12641TIP3    H259339   1.840   4.212   1.863 -0.6628 -1.0501 -0.1660
12642TIP3   OH259340   1.992   0.048   0.957 -1.0785 -0.6441  0.3286
12642TIP3    H159341   2.052   0.015   1.024 -0.5455  0.1491  0.2522
12642TIP3    H259342   1.932   0.105   1.005 -0.1083  0.6892  0.0146
12643TIP3   OH259343   0.234   4.630  14.565  0.5489  0.5849  0.5544
12643TIP3    H159344   0.191   4.651  14.648 -0.4567  0.8830 -0.0177
12643TIP3    H259345   0.318   4.676  14.569 -0.5265  2.7047  0.4048
12644TIP3   OH259346   2.470   3.686  10.764  0.2908 -0.3401 -0.0335
12644TIP3    H159347   2.477   3.768  10.716  0.4454 -0.2300  0.1801
12644TIP3    H259348   2.436   3.624  10.699 -1.0965  0.1910  0.1430
12645TIP3   OH259349   3.650   3.642  16.696  0.0045  0.2546 -0.0944
12645TIP3    H159350   3.622   3.551  16.696  1.4707 -0.2512  1.9569
12645TIP3    H259351   3.745   3.638  16.689  0.0054  1.7224 -1.5916
12646TIP3   OH259352   4.480   0.836  16.523 -0.0746  0.1514  0.3222
12646TIP3    H159353   4.552   0.845  16.585 -1.3575 -0.5603  2.0162
12646TIP3    H259354   4.476   0.743  16.503 -0.8222  0.0974  0.6683
12647TIP3   OH259355   1.181   4.434   2.713  0.4793 -0.0024 -0.0579
12647TIP3    H159356   1.227   4.518   2.716  2.2137 -0.8455 -1.0984
12647TIP3    H259357   1.148   4.427   2.623 -3.0883  1.2050  1.0181
12648TIP3   OH259358   3.040   0.210  16.892 -0.1446 -0.3410  0.3298
12648TIP3    H159359   2.949   0.185  16.881  0.1696 -2.3047  1.6506
12648TIP3    H259360   3.065   0.175  16.978  1.5924  0.9406  0.4091
12649TIP3   OH259361   4.168   1.265   4.064 -0.1988 -0.7104  0.2124
12649TIP3    H159362   4.183   1.253   4.158  0.8035 -1.3577 -0.0162
12649TIP3    H259363   4.125   1.350   4.058  0.2639 -0.3821  1.2106
12650TIP3   OH259364   3.603   0.350  16.734 -0.4125  0.0634 -0.5688
12650TIP3    H159365   3.694   0.336  16.708 -0.2165  0.7734 -0.3047
12650TIP3    H259366   3.581   0.435  16.697 -0.5530  0.4745  0.4255
12651TIP3   OH259367   5.624   3.667  11.126  0.4288 -0.0058 -0.0107
12651TIP3    H159368   5.674   3.623  11.195 -1.1138 -1.3112  0.3516
12651TIP3    H259369   5.572   3.597  11.086  0.1785  0.9888 -1.5237
12652TIP3   OH259370   0.118   5.192   4.511 -0.1058 -0.3604 -0.2132
12652TIP3    H159371   0.064   5.200   4.590 -1.3205 -1.2325 -0.9091
12652TIP3    H259372   0.165   5.109   4.522  0.9487  0.2942  0.2940
12653TIP3   OH259373   3.827   4.272   0.984 -0.0894  0.2573  0.4596
12653TIP3    H159374   3.754   4.269   1.045  0.0042 -2.0663  0.5516
12653TIP3    H259375   3.856   4.181   0.977  2.4615  1.0087  0.0281
12654TIP3   OH259376   6.166   3.988   2.486 -0.2916 -0.5839  0.3093
12654TIP3    H159377   6.097   4.022   2.429  0.7589 -0.0897 -0.7000
12654TIP3    H259378   6.156   3.893   2.483 -1.0907 -0.5075  0.3905
12655TIP3   OH259379   4.169   2.619  15.557  0.6545  0.3609 -0.1322
12655TIP3    H159380   4.171   2.561  15.634 -0.1242 -0.0839 -0.4380
12655TIP3    H259381   4.231   2.689  15.578  1.0541 -0.1912  0.5585
12656TIP3   OH259382   1.299   1.167  11.272  0.1182  0.2900 -0.6616
12656TIP3    H159383   1.271   1.131  11.188 -1.1440  0.3314 -0.2744
12656TIP3    H259384   1.248   1.119  11.337  1.7155 -0.3876  0.1794
12657TIP3   OH259385   0.319   1.303  14.507  0.3689 -0.8383  0.4388
12657TIP3    H159386   0.266   1.240  14.459 -2.8020  1.7451  0.2071
12657TIP3    H259387   0.278   1.306  14.594  0.3673  0.9081  0.4030
12658TIP3   OH259388   1.216   2.811   2.287 -0.5611 -0.2145  0.1614
12658TIP3    H159389   1.266   2.774   2.214  0.7682  0.9042  0.4678
12658TIP3    H259390   1.178   2.891   2.252  1.2497  1.0772  1.0566
12659TIP3   OH259391   3.569   0.047  13.368 -0.4339  0.5792 -0.4173
12659TIP3    H159392   3.506   0.119  13.363 -2.7730 -1.1939  0.8252
12659TIP3    H259393   3.548  -0.008  13.293  0.0100  0.2470 -0.3003
12660TIP3   OH259394   2.821   3.105  14.457  0.1123 -0.6615 -0.1291
12660TIP3    H159395   2.789   3.163  14.388  1.2887  1.3442  0.9082
12660TIP3    H259396   2.764   3.123  14.532  0.7880 -0.4458  0.3442
12661TIP3   OH259397   2.443   3.537   4.219  0.4696 -0.2211  0.1449
12661TIP3    H159398   2.423   3.629   4.200 -1.1051 -0.8032 -1.2776
12661TIP3    H259399   2.494   3.539   4.300 -0.4710  1.8253  0.7403
12662TIP3   OH259400   1.837   3.536  15.685  0.5256  0.0714  0.3313
12662TIP3    H159401   1.757   3.566  15.642  1.7807  1.4961 -1.1456
12662TIP3    H259402   1.872   3.614  15.728  1.1505 -0.5289  0.9349
12663TIP3   OH259403   3.033   0.106  15.732 -0.3516  0.1160  0.6532
12663TIP3    H159404   2.991   0.110  15.646  1.0948  0.4487 -0.0682
12663TIP3    H259405   2.971   0.057  15.786 -1.5438  0.3861 -0.4182
12664TIP3   OH259406   3.506   3.605  13.492  0.0228  0.0375 -0.5386
12664TIP3    H159407   3.599   3.600  13.472 -0.1634  0.9491 -1.7138
12664TIP3    H259408   3.497   3.557  13.575  1.3357 -1.0929 -1.0084
12665TIP3   OH259409   6.256   0.299   3.732 -0.1058 -0.7068  0.2787
12665TIP3    H159410   6.230   0.211   3.703 -1.9527  0.1168 -0.7311
12665TIP3    H259411   6.173   0.345   3.747  0.8152  0.7031  1.3931
12666TIP3   OH259412   1.544   0.488  16.148 -0.3152  0.2021  0.7239
12666TIP3    H159413   1.551   0.499  16.243  0.2700  0.3229  0.6692
12666TIP3    H259414   1.635   0.475  16.119 -0.6484 -1.9171  0.4367
12667TIP3   OH259415   0.680   3.763  10.960  0.4979  0.4980  0.3879
12667TIP3    H159416   0.602   3.711  10.978  0.3816  0.8505  0.9245
12667TIP3    H259417   0.704   3.801  11.044 -0.1608  2.3547 -0.2157
12668TIP3   OH259418   2.622   5.386   2.952 -0.3838 -0.4564  0.0057
12668TIP3    H159419   2.537   5.430   2.952 -0.2611 -0.2029  0.3564
12668TIP3    H259420   2.673   5.435   3.017  0.4033  0.1238 -1.0273
12669TIP3   OH259421   0.299   3.858  14.289 -0.4195  0.1213  0.0315
12669TIP3    H159422   0.208   3.884  14.277 -0.4706 -0.2887 -0.4413
12669TIP3    H259423   0.299   3.809  14.371 -0.4279  1.0623  0.6162
12670TIP3   OH259424   2.625   4.827  10.520 -0.8380  0.6158 -0.2593
12670TIP3    H159425   2.616   4.890  10.591 -2.0660  1.0879 -0.8013
12670TIP3    H259426   2.700   4.859  10.469 -0.7246  0.9764  0.1291
12671TIP3   OH259427   1.523   5.638  13.687  0.0475 -0.1471 -0.6579
12671TIP3    H159428   1.429   5.623  13.677  0.1588 -0.3047 -1.5887
12671TIP3    H259429   1.549   5.579  13.757 -0.2631 -1.3775 -1.5314
12672TIP3   OH259430   1.049   3.384   4.593 -0.0446  0.3141 -0.4722
12672TIP3    H159431   0.969   3.435   4.578 -2.2790 -2.9398 -0.4565
12672TIP3    H259432   1.090   3.378   4.507 -0.0056  1.5809 -0.5723
12673TIP3   OH259433   5.125   1.357  15.157  0.3442 -0.0065  0.2692
12673TIP3    H159434   5.113   1.262  15.159 -1.1084  0.1595  1.1638
12673TIP3    H259435   5.039   1.391  15.130  0.4556  1.1154  1.2534
12674TIP3   OH259436   4.908   4.787   1.053  0.3015 -0.5177 -0.0773
12674TIP3    H159437   4.968   4.809   0.981 -1.3735 -0.2201 -1.4633
12674TIP3    H259438   4.915   4.860   1.114  1.8066 -0.8023  0.1268
12675TIP3   OH259439   6.729   5.496  12.868  0.0878  0.5658 -0.2563
12675TIP3    H159440   6.713   5.439  12.793 -1.3894  0.9528 -0.2777
12675TIP3    H259441   6.657   5.559  12.866 -0.9048 -0.3444  2.3498
12676TIP3   OH259442   3.982   0.425   2.633 -0.2648  0.5681  0.1712
12676TIP3    H159443   3.951   0.484   2.702 -0.8365 -0.1274  0.5173
12676TIP3    H259444   3.982   0.338   2.673  0.4131  0.3004 -0.3850
12677TIP3   OH259445   0.692   4.118  11.643  0.1632 -0.0536 -0.0811
12677TIP3    H159446   0.725   4.041  11.597 -0.2780 -0.0823 -0.3536
12677TIP3    H259447   0.752   4.189  11.618 -1.0238  0.3304 -2.0810
12678TIP3   OH259448   1.873   5.751   5.224  0.0496 -0.7727  0.1336
12678TIP3    H159449   1.958   5.738   5.266  0.5942 -1.7246 -1.1707
12678TIP3    H259450   1.817   5.683   5.262  0.0791 -0.6045  0.4780
12679TIP3   OH259451   4.491   4.441   2.147  0.0648 -0.0297  0.3806
12679TIP3    H159452   4.425   4.377   2.173 -0.3546  0.4140  0.4208
12679TIP3    H259453   4.535   4.466   2.228  0.0404 -0.0569  0.4022
12680TIP3   OH259454   5.354   2.350  15.536 -0.7548  0.6444  0.0569
12680TIP3    H159455   5.417   2.328  15.467 -0.5256  0.7791  0.2223
12680TIP3    H259456   5.408   2.373  15.611 -1.0055  0.1292  0.4009
12681TIP3   OH259457   4.894   3.848  16.559  0.4027 -0.6625 -0.0017
12681TIP3    H159458   4.807   3.814  16.540  0.1577 -0.2735  0.4096
12681TIP3    H259459   4.945   3.830  16.480 -0.4984  0.6029 -0.9064
12682TIP3   OH259460   1.845   0.956  14.930  0.7379 -0.7905 -0.1099
12682TIP3    H159461   1.846   1.025  14.996 -0.8396 -2.4238  1.7442
12682TIP3    H259462   1.767   0.904  14.950  2.0351 -3.3340 -1.1734
12683TIP3   OH259463   6.699   1.302  14.289 -0.0418  0.0487 -0.1787
12683TIP3    H159464   6.745   1.371  14.336 -1.0288  0.9790 -0.5452
12683TIP3    H259465   6.609   1.305  14.324 -0.0901 -1.0895 -0.1578
12684TIP3   OH259466   5.521   3.197   0.471  0.4587  0.3389 -0.7077
12684TIP3    H159467   5.480   3.284   0.473 -2.2117 -0.7969  1.5256
12684TIP3    H259468   5.577   3.196   0.548 -1.3676 -0.6121  0.6813
12685TIP3   OH259469   4.507   2.037  16.510  0.1825 -0.4361  0.2958
12685TIP3    H159470   4.587   2.019  16.560 -0.2213 -1.6869  0.5195
12685TIP3    H259471   4.532   2.021  16.419  0.7385  1.2111  0.1252
12686TIP3   OH259472   4.870   1.350  13.749 -0.6667  0.3844 -0.0082
12686TIP3    H159473   4.927   1.420  13.717 -3.4202  2.0395 -1.6314
12686TIP3    H259474   4.893   1.274  13.695  0.2444  0.8910 -0.3561
12687TIP3   OH259475   0.661   3.253  13.376  0.5941 -0.2882 -0.0551
12687TIP3    H159476   0.729   3.308  13.337  2.3308 -0.4881  2.4332
12687TIP3    H259477   0.706   3.171  13.398 -0.6422 -0.7326  0.9624
12688TIP3   OH259478   0.674   2.765   4.550  0.1850  0.2853 -0.2062
12688TIP3    H159479   0.729   2.782   4.473 -0.7728 -0.2278 -1.0352
12688TIP3    H259480   0.696   2.675   4.575 -1.6398 -0.6737 -1.7721
12689TIP3   OH259481   1.025   2.303   2.855 -0.4294  0.6401 -0.2216
12689TIP3    H159482   1.043   2.256   2.936  2.1865 -1.1703 -1.7165
12689TIP3    H259483   0.929   2.307   2.851 -0.6530 -0.1985  2.3620
12690TIP3   OH259484   0.958   0.470  16.697  0.7257 -0.4171 -0.0744
12690TIP3    H159485   0.945   0.564  16.713 -0.9190 -0.7617  0.8201
12690TIP3    H259486   1.018   0.467  16.623  0.6123  1.3467 -0.2947
12691TIP3   OH259487   1.602   2.216  13.964 -0.1726 -0.1686 -0.2547
12691TIP3    H159488   1.695   2.227  13.945 -0.2127 -0.6427 -0.7327
12691TIP3    H259489   1.568   2.305  13.965  0.6684  0.1953  1.9902
12692TIP3   OH259490   0.679   4.390   0.485  0.0417 -0.1099  0.2129
12692TIP3    H159491   0.635   4.475   0.496 -2.2121 -0.5780 -3.4920
12692TIP3    H259492   0.646   4.337   0.557 -1.3515  1.1109  0.5275
12693TIP3   OH259493   0.564   2.803  15.590  0.5900 -0.1273 -0.9195
12693TIP3    H159494   0.618   2.856  15.649  0.2674 -0.4165 -0.3631
12693TIP3    H259495   0.571   2.714  15.625 -4.0842  0.4148  2.1930
12694TIP3   OH259496   4.855   6.427   0.574 -0.0871 -0.4173 -0.3203
12694TIP3    H159497   4.775   6.438   0.523  0.1670 -0.9628 -0.8492
12694TIP3    H259498   4.923   6.409   0.509  0.2578 -1.0122  0.1897
12695TIP3   OH259499   0.455   2.175  16.668 -0.3003 -0.5240  0.0857
12695TIP3    H159500   0.372   2.170  16.621  0.0681 -1.9363 -0.4764
12695TIP3    H259501   0.441   2.242  16.735 -1.0190  1.1259 -1.6378
12696TIP3   OH259502   2.549   2.319  11.552  0.3376  0.5091  0.1792
12696TIP3    H159503   2.552   2.402  11.601  1.5831 -0.0709  1.1472
12696TIP3    H259504   2.574   2.253  11.617 -0.7379 -0.6576 -0.5536
12697TIP3   OH259505   6.280   3.139  15.339 -0.6100  0.2630  0.2267
12697TIP3    H159506   6.269   3.116  15.432  0.6724 -1.7574 -0.0492
12697TIP3    H259507   6.375   3.132  15.324 -0.5504  2.5752 -0.7892
12698TIP3   OH259508   0.766   2.469  16.255  0.2433 -0.0579  0.7173
12698TIP3    H159509   0.775   2.530  16.327 -1.6687  1.7308 -0.4345
12698TIP3    H259510   0.674   2.476  16.229  0.5011 -1.7904 -0.8941
12699TIP3   OH259511   5.810   0.834  13.198  0.1280 -0.0753 -0.1729
12699TIP3    H159512   5.852   0.913  13.233 -0.1843  0.2017 -0.4184
12699TIP3    H259513   5.881   0.771  13.189  0.1660 -0.3010  1.3557
12700TIP3   OH259514   0.321   6.178   0.275  0.0512 -0.0691 -0.0983
12700TIP3    H159515   0.369   6.258   0.250  0.3290 -0.7148 -1.7460
12700TIP3    H259516   0.373   6.107   0.238 -0.7674 -0.9604  0.4421
12701TIP3   OH259517   4.093   2.924  13.345 -0.0997  0.0625 -0.3548
12701TIP3    H159518   4.180   2.901  13.311 -0.4902 -0.2186 -1.1767
12701TIP3    H259519   4.112   2.979  13.421  0.8235 -1.0413  0.2613
12702TIP3   OH259520   6.330   0.988  16.610 -0.0059  0.4871  0.3675
12702TIP3    H159521   6.274   0.994  16.687 -1.6456 -0.8455 -0.6456
12702TIP3    H259522   6.270   0.972  16.537  1.4756  1.7373 -1.2280
12703TIP3   OH259523   5.285   6.382  11.841 -0.5913  0.1197 -0.1012
12703TIP3    H159524   5.226   6.435  11.788  0.2797 -0.0499 -1.2861
12703TIP3    H259525   5.357   6.441  11.864 -0.4824 -0.0708  0.0523
12704TIP3   OH259526   0.802   4.302   3.198 -0.0204  0.1278 -0.5600
12704TIP3    H159527   0.741   4.369   3.227 -1.7585 -2.0657  1.2779
12704TIP3    H259528   0.877   4.311   3.257  0.3958  1.3112 -1.2518
12705TIP3   OH259529   3.530   6.347   3.695  0.1416  0.2329  0.1710
12705TIP3    H159530   3.542   6.334   3.601 -0.6712 -0.3990  0.1448
12705TIP3    H259531   3.618   6.339   3.732  0.1267 -2.9156 -0.1591
12706TIP3   OH259532   3.839   6.747  13.307 -0.5176  0.2053  0.1204
12706TIP3    H159533   3.847   6.800  13.228  1.1314 -0.3691 -0.1402
12706TIP3    H259534   3.824   6.810  13.378 -0.0582  0.8968 -0.3871
12707TIP3   OH259535   4.623   1.979  14.701  0.3417  0.4471 -0.2031
12707TIP3    H159536   4.706   2.025  14.714  0.5829 -0.1372  0.3768
12707TIP3    H259537   4.633   1.897  14.749 -0.3497  0.1039 -0.6336
12708TIP3   OH259538   4.070   3.044   4.494  0.1997 -0.2503  0.4027
12708TIP3    H159539   4.026   3.129   4.494 -0.7082 -0.6979 -0.9189
12708TIP3    H259540   4.034   2.998   4.570 -1.2018 -0.4014 -0.3392
12709TIP3   OH259541   0.314   2.533   2.373  0.1589  0.1116  0.5288
12709TIP3    H159542   0.381   2.592   2.409 -0.2126  0.7606  0.1497
12709TIP3    H259543   0.232   2.580   2.382  0.2268  1.1477 -2.8961
12710TIP3   OH259544   6.760   1.731  14.197 -0.5389 -0.0521 -0.2417
12710TIP3    H159545   6.694   1.676  14.153 -1.6192 -1.1944  2.5396
12710TIP3    H259546   6.834   1.672  14.210 -1.8257 -1.1952  3.0523
12711TIP3   OH259547   3.901   6.687  13.911 -0.5494 -0.0945  0.4972
12711TIP3    H159548   3.933   6.773  13.883 -0.0080 -0.1802  0.8270
12711TIP3    H259549   3.863   6.648  13.832 -0.7398  0.4219  0.3323
12712TIP3   OH259550   3.801   6.052  16.483  0.0543 -0.0756 -0.6324
12712TIP3    H159551   3.892   6.082  16.475  0.0918 -0.1592 -0.5231
12712TIP3    H259552   3.770   6.094  16.564 -0.0936  0.1824 -0.8233
12713TIP3   OH259553   4.405   1.649  11.830 -0.2313 -0.1469 -0.5521
12713TIP3    H159554   4.375   1.734  11.861 -1.0523 -0.3541 -0.7559
12713TIP3    H259555   4.494   1.665  11.798  0.3167  0.2536  1.0692
12714TIP3   OH259556   1.583   1.328  14.319 -0.7780 -0.7936  0.2768
12714TIP3    H159557   1.618   1.375  14.243  0.4517  0.2777  1.4536
12714TIP3    H259558   1.490   1.348  14.318 -0.7543 -0.6672 -0.8601
12715TIP3   OH259559   2.695   3.214   3.855 -0.4508  0.1811  0.0121
12715TIP3    H159560   2.666   3.246   3.941 -0.8340 -0.3444  0.0903
12715TIP3    H259561   2.732   3.290   3.811 -2.2442  0.9670 -0.2077
12716TIP3   OH259562   1.707   5.062   1.149 -0.1654  0.2275  0.0910
12716TIP3    H159563   1.617   5.094   1.144 -1.2415 -1.9679  2.8565
12716TIP3    H259564   1.698   4.967   1.154  2.3920 -0.0984 -0.3053
12717TIP3   OH259565   1.391   5.762  12.417  0.7746 -0.3108  0.1218
12717TIP3    H159566   1.317   5.714  12.382 -0.0726  0.5759  0.6541
12717TIP3    H259567   1.434   5.800  12.339 -0.0916  0.2390 -0.1036
12718TIP3   OH259568   1.346   5.281   2.384 -0.1099 -0.6014 -0.3046
12718TIP3    H159569   1.406   5.289   2.310  1.2864 -2.0839  0.5914
12718TIP3    H259570   1.286   5.210   2.360  1.1508 -1.9762  0.4397
12719TIP3   OH259571   0.577   1.846   2.377  0.4179 -0.1767 -0.3060
12719TIP3    H159572   0.575   1.853   2.282 -2.2485 -1.8272 -0.4865
12719TIP3    H259573   0.579   1.751   2.393 -6.4253 -0.6376  0.9454
12720TIP3   OH259574   5.226   6.765  11.951 -0.3176  0.1875  0.4877
12720TIP3    H159575   5.165   6.708  11.997 -1.2220  1.3772  0.8125
12720TIP3    H259576   5.170   6.819  11.895  0.5394  0.5676 -0.0119
12721TIP3   OH259577   6.020   2.623   3.423  0.5890 -0.1430 -0.8256
12721TIP3    H159578   5.986   2.702   3.381  0.1884  0.2599  0.2038
12721TIP3    H259579   6.083   2.588   3.361 -1.5335 -0.8053 -2.7636
12722TIP3   OH259580   5.719   5.473   4.958  0.0052  0.4174 -0.1756
12722TIP3    H159581   5.635   5.519   4.965  0.4670  1.1119  1.3897
12722TIP3    H259582   5.784   5.543   4.954  0.5800 -0.1054 -0.1216
12723TIP3   OH259583   6.380   0.573   0.065 -0.1506  0.4182 -0.3595
12723TIP3    H159584   6.439   0.628   0.013 -0.4655  0.0700 -1.1103
12723TIP3    H259585   6.307   0.555   0.005  0.5499 -1.8981 -0.6050
12724TIP3   OH259586   6.189   5.725  11.306  0.0617 -0.4737  0.2676
12724TIP3    H159587   6.181   5.674  11.226 -3.9877  0.7141 -0.2990
12724TIP3    H259588   6.220   5.810  11.277 -0.0961 -0.4496  0.1700
12725TIP3   OH259589   4.740   3.048  11.816  0.1341  0.0544  0.2911
12725TIP3    H159590   4.742   2.994  11.737 -0.6888 -0.2145  0.4489
12725TIP3    H259591   4.829   3.083  11.823  0.0621  0.5672 -1.0904
12726TIP3   OH259592   6.039   5.360  15.327 -0.1466 -0.0971  0.2128
12726TIP3    H159593   6.063   5.292  15.264  3.1636 -1.5262  2.7226
12726TIP3    H259594   6.062   5.442  15.284 -0.1513 -0.8503 -1.2936
12727TIP3   OH259595   3.423   2.133   4.578  0.5117  0.1482 -0.2705
12727TIP3    H159596   3.499   2.180   4.544  0.5896  0.5777  0.4581
12727TIP3    H259597   3.365   2.121   4.503  0.9828  0.4605 -0.6845
12728TIP3   OH259598   3.591   1.658   4.680  0.5037 -0.3601 -0.5720
12728TIP3    H159599   3.629   1.646   4.767  0.4306 -1.6893 -0.6902
12728TIP3    H259600   3.586   1.569   4.644  0.8771  0.1901 -2.0871
12729TIP3   OH259601   2.444   6.507  17.078 -0.2314  0.2193  0.2834
12729TIP3    H159602   2.400   6.438  17.029 -1.7312  0.2615  1.4838
12729TIP3    H259603   2.389   6.520  17.155  0.5575  2.0754  0.5792
12730TIP3   OH259604   4.480   0.177  13.746 -0.3649  0.3741  0.5114
12730TIP3    H159605   4.421   0.174  13.821  0.6872  1.1002  1.3995
12730TIP3    H259606   4.548   0.239  13.771  0.5074 -0.0545 -0.6839
12731TIP3   OH259607   3.463   5.391  13.672  0.2266 -0.3254 -0.1546
12731TIP3    H159608   3.553   5.423  13.681  0.5849 -1.1547 -0.6405
12731TIP3    H259609   3.450   5.334  13.748 -0.5155  1.1449  0.8784
12732TIP3   OH259610   2.414   5.023   5.037 -0.2157 -0.3319 -0.2911
12732TIP3    H159611   2.327   5.015   5.075 -1.2212  1.5335 -2.0186
12732TIP3    H259612   2.416   4.956   4.969  0.8785 -2.3775  1.6345
12733TIP3   OH259613   1.035   3.481  16.965  0.5227  0.3636 -0.5271
12733TIP3    H159614   0.983   3.418  16.915  1.4230 -0.8757  0.0676
12733TIP3    H259615   1.126   3.455  16.949  0.8513  0.4713  1.0775
12734TIP3   OH259616   3.959   4.213  14.701 -0.2070 -0.0484 -0.3846
12734TIP3    H159617   3.938   4.282  14.638 -0.2236  2.1465  1.8833
12734TIP3    H259618   3.887   4.151  14.693 -1.0381  1.0030 -1.3840
12735TIP3   OH259619   1.639   1.244   3.351  0.0725  0.0911  0.1385
12735TIP3    H159620   1.575   1.213   3.287  0.4579 -0.8320  0.1939
12735TIP3    H259621   1.722   1.245   3.304  0.2746 -0.1332  0.4906
12736TIP3   OH259622   5.518   2.551  12.853 -0.1231  0.2844  0.2280
12736TIP3    H159623   5.423   2.538  12.849 -0.1076  0.4482 -1.5683
12736TIP3    H259624   5.548   2.529  12.765  1.6397 -0.6816  1.0327
12737TIP3   OH259625   0.139   2.843  12.136  0.0136  0.3827 -0.3374
12737TIP3    H159626   0.179   2.914  12.087  0.0502 -0.1300 -1.0588
12737TIP3    H259627   0.113   2.779  12.070  0.9624 -0.7840  0.3638
12738TIP3   OH259628   3.372   5.664  11.224  0.4510 -0.0897 -0.3330
12738TIP3    H159629   3.452   5.610  11.220  0.8719  0.5540 -0.9003
12738TIP3    H259630   3.301   5.600  11.232  1.0127 -0.6803  0.1213
12739TIP3   OH259631   5.864   4.493  16.363  0.7080  0.6589 -0.5313
12739TIP3    H159632   5.845   4.587  16.361  2.5803  1.1313  0.5976
12739TIP3    H259633   5.951   4.488  16.404  0.5149 -1.5949 -0.2983
12740TIP3   OH259634   2.710   2.111   5.764 -0.3498 -0.0018  0.0050
12740TIP3    H159635   2.792   2.072   5.793  0.5825  0.7812 -1.4619
12740TIP3    H259636   2.733   2.160   5.686 -1.8828  1.6695  0.5230
12741TIP3   OH259637   1.959   6.802   5.006  0.5713 -0.2964  0.0935
12741TIP3    H159638   2.015   6.727   5.022  1.4866 -0.2665 -2.5317
12741TIP3    H259639   2.014   6.878   5.026  0.8421 -0.2913 -0.6577
12742TIP3   OH259640   2.521   5.863  16.063 -0.2245 -0.1530 -0.1811
12742TIP3    H159641   2.452   5.883  16.126 -0.9393  2.2385 -1.5785
12742TIP3    H259642   2.483   5.796  16.006  0.4205 -2.3157  1.8033
12743TIP3   OH259643   4.954   1.162   5.910  0.3064 -0.5476 -0.1566
12743TIP3    H159644   5.002   1.119   5.981 -0.3384 -0.8182  0.1212
12743TIP3    H259645   4.907   1.234   5.953  0.3967 -0.3270 -0.4175
12744TIP3   OH259646   0.774   4.019  13.314 -0.4319  0.3203  0.9172
12744TIP3    H159647   0.823   3.936  13.315  1.5121  1.3800 -0.0016
12744TIP3    H259648   0.725   4.017  13.232 -1.0852 -0.2873  1.3167
12745TIP3   OH259649   1.768   1.001   0.389  0.2827 -0.4161 -0.3558
12745TIP3    H159650   1.681   0.973   0.418  0.2587 -0.3258 -0.3395
12745TIP3    H259651   1.815   1.021   0.469  0.3861 -0.6606 -0.3554
12746TIP3   OH259652   0.931   0.223  16.234  0.6778  0.4601  0.1557
12746TIP3    H159653   0.918   0.245  16.142 -1.3704  0.9656  0.5073
12746TIP3    H259654   0.935   0.308  16.279  2.6216  0.2462  0.4600
12747TIP3   OH259655   4.668   3.720   4.178 -0.3834 -0.6449  0.0932
12747TIP3    H159656   4.704   3.694   4.093 -1.2651 -0.4926 -0.3365
12747TIP3    H259657   4.674   3.816   4.178  0.4657 -0.6851  0.5971
12748TIP3   OH259658   1.176   3.322  13.018 -0.0313 -0.3056  0.2645
12748TIP3    H159659   1.162   3.358  13.106  0.5112  0.5722  0.0095
12748TIP3    H259660   1.234   3.386  12.976  0.3687 -1.1358 -0.4583
12749TIP3   OH259661   5.880   4.831   4.513 -0.1185 -0.1504 -0.0247
12749TIP3    H159662   5.923   4.859   4.594  0.2632 -2.3952  0.6009
12749TIP3    H259663   5.787   4.832   4.534 -0.3343  2.5953 -0.7038
12750TIP3   OH259664   0.071   5.798   6.317  0.1461 -0.1221  0.1265
12750TIP3    H159665   0.034   5.744   6.248 -1.0452  0.1034  0.5600
12750TIP3    H259666   0.165   5.788   6.309  0.0501  0.2586 -1.8216
12751TIP3   OH259667   5.530   5.248   4.864 -0.6316  0.2712 -0.0725
12751TIP3    H159668   5.543   5.338   4.893 -1.9629  0.1400  0.9791
12751TIP3    H259669   5.523   5.255   4.768 -0.2151  1.1972 -0.0507
12752TIP3   OH259670   5.489   0.017  11.618  0.6489  0.5904 -0.3655
12752TIP3    H159671   5.407   0.058  11.591  0.5770  1.0562  0.5238
12752TIP3    H259672   5.521   0.072  11.689 -0.0573 -1.5386  1.7118
12753TIP3   OH259673   3.897   3.733  16.773 -0.5103  0.2604 -0.4175
12753TIP3    H159674   3.982   3.742  16.817 -0.4765  0.2713 -0.4834
12753TIP3    H259675   3.833   3.752  16.841 -0.4752 -0.2162 -0.2493
12754TIP3   OH259676   0.784   2.485   4.622 -0.2718  0.8516  0.1970
12754TIP3    H159677   0.744   2.402   4.645  0.1886  1.0410  1.8079
12754TIP3    H259678   0.869   2.484   4.665  0.2768  1.6345 -0.8124
12755TIP3   OH259679   0.623   4.325  16.211 -0.6589 -0.2931  0.1877
12755TIP3    H159680   0.711   4.362  16.211 -0.9948  0.5246  0.4398
12755TIP3    H259681   0.632   4.243  16.261 -0.0474 -0.2198  0.2124
12756TIP3   OH259682   0.965   5.589  14.332 -0.1054 -0.1828 -0.1694
12756TIP3    H159683   1.006   5.507  14.303 -1.8968 -0.1843 -3.1095
12756TIP3    H259684   0.873   5.579  14.310 -0.5421  2.2750  0.2463
12757TIP3   OH259685   6.676   2.024   2.354 -0.5418  0.0994  0.4727
12757TIP3    H159686   6.768   1.998   2.365 -0.3827  0.6322  0.4019
12757TIP3    H259687   6.637   1.952   2.304  0.3989  0.9671 -1.6335
12758TIP3   OH259688   6.028   6.802   5.615 -0.3440  0.0183 -0.3523
12758TIP3    H159689   6.102   6.787   5.557  0.9532  1.0755  0.9395
12758TIP3    H259690   5.977   6.871   5.573 -0.7611 -0.8930 -1.3734
12759TIP3   OH259691   3.623   1.729  16.593 -0.3867  0.3873  0.3303
12759TIP3    H159692   3.634   1.634  16.584 -0.2519  0.4934 -0.7371
12759TIP3    H259693   3.644   1.764  16.507  0.2225  1.4577  0.8975
12760TIP3   OH259694   5.229   2.510   4.599  0.2300  0.5048 -0.2852
12760TIP3    H159695   5.257   2.434   4.547  2.7320  0.4398  1.0398
12760TIP3    H259696   5.273   2.585   4.558  1.3615  0.5953  1.0392
12761TIP3   OH259697   5.325   5.251  12.311  0.1543  0.2341 -0.1849
12761TIP3    H159698   5.261   5.226  12.377  1.2622  0.8980  1.2026
12761TIP3    H259699   5.409   5.225  12.349  0.6948 -1.3834 -2.2995
12762TIP3   OH259700   4.197   3.278  11.811 -0.1145  0.6962  0.6989
12762TIP3    H159701   4.288   3.277  11.785  0.2411  2.1148  1.7517
12762TIP3    H259702   4.151   3.325  11.742  0.2839  1.6398  1.0653
12763TIP3   OH259703   4.921   4.072  11.830 -0.7351 -0.1493 -0.6713
12763TIP3    H159704   4.943   4.145  11.888 -2.0131 -0.4268  0.2093
12763TIP3    H259705   4.908   4.113  11.744  2.9961  0.0249 -1.3005
12764TIP3   OH259706   1.367   1.026  14.101 -0.3883  0.4403  0.3654
12764TIP3    H159707   1.287   1.040  14.049  0.0477  1.2095 -0.1099
12764TIP3    H259708   1.341   0.961  14.166 -1.8551  1.7946  1.2137
12765TIP3   OH259709   5.740   4.027   2.202 -0.3709 -0.2266 -0.5219
12765TIP3    H159710   5.730   3.933   2.214  2.4843 -0.8566 -2.2018
12765TIP3    H259711   5.658   4.054   2.160 -1.0109 -2.0691 -0.5454
12766TIP3   OH259712   4.001   0.888   3.789 -0.2444 -0.6783 -0.4075
12766TIP3    H159713   4.020   0.866   3.880 -1.3263 -3.1472 -0.6823
12766TIP3    H259714   3.919   0.936   3.792 -0.6502 -1.3698 -0.0897
12767TIP3   OH259715   5.817   5.285  15.052  0.7697 -0.4892  0.3840
12767TIP3    H159716   5.808   5.319  15.141  2.0137 -0.7877  0.6315
12767TIP3    H259717   5.732   5.243  15.034  0.1229  0.5127  1.0084
12768TIP3   OH259718   1.022   4.882   3.110  0.3846  0.3620 -0.3307
12768TIP3    H159719   1.016   4.791   3.137 -1.6080  0.4012 -0.5294
12768TIP3    H259720   1.045   4.930   3.190 -0.6403 -0.0837  0.2477
12769TIP3   OH259721   3.632   5.298  12.833 -0.2664  0.1075  0.1926
12769TIP3    H159722   3.588   5.367  12.784  1.0893  2.4883  2.0920
12769TIP3    H259723   3.580   5.288  12.913 -0.0494 -0.6121  0.2555
12770TIP3   OH259724   0.279   0.366   0.407 -0.2266  0.2476  0.0474
12770TIP3    H159725   0.348   0.299   0.413  0.4251  1.0247  2.0600
12770TIP3    H259726   0.210   0.325   0.354  0.9485 -1.2853 -0.3667
12771TIP3   OH259727   5.056   0.750  14.876 -0.1481 -0.6350  0.5245
12771TIP3    H159728   5.114   0.823  14.855  0.4220 -1.3675 -0.5609
12771TIP3    H259729   5.108   0.694  14.934 -0.1117 -0.8013  0.3348
12772TIP3   OH259730   1.864   6.365  16.260  0.0926 -0.2980 -0.4141
12772TIP3    H159731   1.873   6.281  16.216  0.1116 -0.4421 -0.1403
12772TIP3    H259732   1.942   6.372  16.315  0.5190  0.2909 -1.0748
12773TIP3   OH259733   4.069   4.118  15.091  0.5801 -0.2135  0.4466
12773TIP3    H159734   4.075   4.142  15.183  0.3948  0.0821  0.3816
12773TIP3    H259735   3.985   4.074  15.083  0.0211  0.8582  0.1758
12774TIP3   OH259736   2.211   1.693  13.171 -0.4931  0.2016  0.1637
12774TIP3    H159737   2.303   1.705  13.196 -0.6200  0.6076  0.4527
12774TIP3    H259738   2.194   1.600  13.189 -0.3216  0.2738  0.7460
12775TIP3   OH259739   6.678   0.613   2.901 -0.0633  0.3272  0.1660
12775TIP3    H159740   6.591   0.585   2.869 -0.5044 -0.1776  1.7271
12775TIP3    H259741   6.674   0.598   2.995  0.9384  2.4424  0.5788
12776TIP3   OH259742   1.278   4.720  14.936 -0.0633 -0.5781  0.1611
12776TIP3    H159743   1.287   4.749  14.846  0.7027  1.0981  0.7342
12776TIP3    H259744   1.184   4.730  14.955  0.0176  0.6139  0.0187
12777TIP3   OH259745   3.250   6.208   0.981  0.3788 -0.4670  1.0364
12777TIP3    H159746   3.330   6.261   0.984  1.2334 -1.7522  1.7827
12777TIP3    H259747   3.270   6.132   1.036 -0.5076 -1.9655 -0.6233
12778TIP3   OH259748   6.096   1.108   5.828  0.4481  0.0307  0.1648
12778TIP3    H159749   6.126   1.017   5.826 -1.1211 -0.5368  0.8770
12778TIP3    H259750   6.022   1.111   5.768 -0.0733  0.6140  0.8100
12779TIP3   OH259751   5.749   4.324   2.027 -0.3811  0.1487 -0.0708
12779TIP3    H159752   5.774   4.243   2.071  2.9166  1.0474  0.0013
12779TIP3    H259753   5.756   4.303   1.933 -0.6128  0.0787 -0.0739
12780TIP3   OH259754   4.303   5.673   1.784  0.3427 -0.0411  0.1849
12780TIP3    H159755   4.277   5.749   1.731  0.3060 -0.1060  0.1105
12780TIP3    H259756   4.399   5.673   1.780  0.3381 -0.0886  0.0581
12781TIP3   OH259757   2.789   0.815  16.908  0.1963 -0.0695  0.5050
12781TIP3    H159758   2.745   0.851  16.984  0.8933  0.2498  0.7619
12781TIP3    H259759   2.758   0.868  16.834 -1.8270 -1.4580  0.2545
12782TIP3   OH259760   1.831   5.139   5.613 -0.0781  0.2132  0.2351
12782TIP3    H159761   1.891   5.082   5.662 -2.3422 -0.0787  2.8819
12782TIP3    H259762   1.819   5.216   5.668 -2.2840  0.1447 -0.0529
12783TIP3   OH259763   3.103   1.848  14.373  0.5327  0.0608  0.6590
12783TIP3    H159764   3.151   1.790  14.314  0.4384 -0.6397  1.2636
12783TIP3    H259765   3.067   1.790  14.440  1.1138  0.9137  1.7340
12784TIP3   OH259766   6.637   2.747   4.533 -0.4533  0.3688 -0.5779
12784TIP3    H159767   6.650   2.723   4.441  2.4227 -0.6944 -0.0166
12784TIP3    H259768   6.627   2.663   4.578  1.3296  0.6394  0.4087
12785TIP3   OH259769   3.689   1.817  15.774 -0.5699 -0.5177 -0.3721
12785TIP3    H159770   3.767   1.821  15.719  0.2546 -2.2711  0.5606
12785TIP3    H259771   3.714   1.866  15.853 -0.3548 -1.1639 -0.0316
12786TIP3   OH259772   5.437   6.690   0.415 -0.0877  0.4764 -0.3572
12786TIP3    H159773   5.429   6.710   0.508 -2.6857  2.0621 -0.8185
12786TIP3    H259774   5.527   6.716   0.393  0.7341 -0.3831  1.7565
12787TIP3   OH259775   5.896   4.417   3.103  0.2655 -0.6764  0.3228
12787TIP3    H159776   5.811   4.395   3.142 -0.3398  0.9767  0.0155
12787TIP3    H259777   5.904   4.512   3.113  0.5311 -0.2886 -2.6012
12788TIP3   OH259778   0.273   2.935  17.154  0.1938 -0.1358  0.2912
12788TIP3    H159779   0.347   2.983  17.117 -0.8773  0.9953 -0.4555
12788TIP3    H259780   0.271   2.853  17.104  0.5687  0.0931 -0.1085
12789TIP3   OH259781   3.303   3.046   3.476 -0.3039 -0.5017 -0.0763
12789TIP3    H159782   3.231   3.048   3.539 -0.3557 -0.8250 -0.1220
12789TIP3    H259783   3.342   3.133   3.481 -2.6191  0.8137 -2.2723
12790TIP3   OH259784   6.704   2.622   3.696  0.5961 -0.3075 -0.3304
12790TIP3    H159785   6.757   2.573   3.633  0.6959 -0.9780  0.2599
12790TIP3    H259786   6.704   2.712   3.663  0.4473 -0.6932 -1.4093
12791TIP3   OH259787   5.777   5.778  13.419 -0.1162 -0.0564  0.1036
12791TIP3    H159788   5.841   5.786  13.490 -1.2239 -0.4827  1.1865
12791TIP3    H259789   5.829   5.752  13.343  0.8824 -1.5328  1.2164
12792TIP3   OH259790   5.250   4.933  16.898  0.1171  0.2666  0.0907
12792TIP3    H159791   5.233   5.027  16.892 -0.1924  0.2951  1.1326
12792TIP3    H259792   5.332   4.920  16.851  0.9003  1.2926  1.0936
12793TIP3   OH259793   0.304   6.004   4.262  0.3039 -0.0331 -0.5874
12793TIP3    H159794   0.290   6.093   4.229 -0.9945 -0.3890 -1.0533
12793TIP3    H259795   0.395   5.984   4.241  0.5980  1.1692 -0.5179
12794TIP3   OH259796   3.835   1.584  11.860 -0.8190  0.1400  0.6226
12794TIP3    H159797   3.800   1.496  11.849 -0.3418  0.1748 -1.6257
12794TIP3    H259798   3.779   1.640  11.805 -1.7590  1.4793  2.7906
12795TIP3   OH259799   4.129   0.011  12.846  0.5849  0.1697 -0.4094
12795TIP3    H159800   4.069   0.048  12.781 -0.1013 -2.1138 -1.1648
12795TIP3    H259801   4.208  -0.009  12.797  0.8545  0.3796 -0.0663
12796TIP3   OH259802   1.236   6.093  16.939 -0.3760 -0.0699 -0.1934
12796TIP3    H159803   1.257   6.184  16.923  0.5441 -0.1153  0.6838
12796TIP3    H259804   1.142   6.086  16.920 -0.4260  1.0190 -0.3643
12797TIP3   OH259805   1.410   1.899   0.027  0.6153  0.3085 -0.5194
12797TIP3    H159806   1.447   1.824   0.073  0.4847 -0.0462 -0.9879
12797TIP3    H259807   1.319   1.875   0.011  0.1828  1.1438  0.5461
12798TIP3   OH259808   0.863   0.542  15.475 -0.1853  0.3622 -0.1678
12798TIP3    H159809   0.827   0.629  15.495 -2.0131 -0.4940  0.5436
12798TIP3    H259810   0.917   0.555  15.398 -1.2817  1.9682 -0.7142
12799TIP3   OH259811   4.889   5.419  11.701  0.2329  0.0796  0.3014
12799TIP3    H159812   4.921   5.372  11.778  0.5540 -0.0137  0.1125
12799TIP3    H259813   4.968   5.445  11.654  0.0332 -0.1654 -0.1765
12800TIP3   OH259814   6.697   1.634  15.217 -0.0347  0.1313 -0.2831
12800TIP3    H159815   6.705   1.544  15.186 -0.2709  0.4790 -1.4443
12800TIP3    H259816   6.786   1.669  15.215  0.1270 -0.2075  0.6348
12801TIP3   OH259817   3.245   1.297  14.667 -0.2000  0.5366 -0.1374
12801TIP3    H159818   3.157   1.335  14.659 -0.7680 -0.6140  0.4417
12801TIP3    H259819   3.248   1.262  14.756 -0.1692 -1.8451 -1.0053
12802TIP3   OH259820   3.017   3.484  14.918  0.0334 -0.2154 -0.1420
12802TIP3    H159821   3.101   3.527  14.903 -0.5209  1.3642  1.0671
12802TIP3    H259822   2.954   3.536  14.869 -0.2951 -1.2972 -0.9064
12803TIP3   OH259823   0.934   6.040  15.065  0.4118 -0.7115  0.0023
12803TIP3    H159824   0.957   5.966  15.121 -1.4373 -2.7262 -1.6927
12803TIP3    H259825   0.945   6.006  14.976 -0.5184  1.0660 -0.8482
12804TIP3   OH259826   6.107   6.087   0.965  0.0575 -0.2686  0.1009
12804TIP3    H159827   6.042   6.074   1.034  0.5892  2.1499  1.1727
12804TIP3    H259828   6.182   6.035   0.992  0.1777  0.4736  1.2978
12805TIP3   OH259829   3.301   0.973   3.681 -0.3343  0.3176  0.0179
12805TIP3    H159830   3.267   1.061   3.662  0.7329  0.8281  0.3909
12805TIP3    H259831   3.375   0.964   3.623 -0.7750 -0.5769 -0.4144
12806TIP3   OH259832   6.493   0.540  10.400 -0.4736 -0.0422  0.6647
12806TIP3    H159833   6.543   0.598  10.457 -1.6241  0.9756  0.6606
12806TIP3    H259834   6.466   0.595  10.327  2.1640 -1.6326 -1.6826
12807TIP3   OH259835   3.393   2.694   0.283 -0.4458 -0.1302 -0.3514
12807TIP3    H159836   3.412   2.624   0.345 -1.7465 -0.3706 -0.1953
12807TIP3    H259837   3.387   2.650   0.198 -0.9215 -0.1691 -0.3029
12808TIP3   OH259838   3.631   1.564  16.211  0.0555 -0.0732  0.0670
12808TIP3    H159839   3.658   1.520  16.292  0.2526 -0.3598 -0.1490
12808TIP3    H259840   3.683   1.644  16.209 -1.6127  1.0995  1.3820
12809TIP3   OH259841   1.214   6.588   1.588  0.5216  0.0354 -0.8221
12809TIP3    H159842   1.121   6.598   1.567  0.0776  1.3672  1.4918
12809TIP3    H259843   1.220   6.500   1.625  0.3891 -0.3986 -1.7829
12810TIP3   OH259844   2.069   3.754  12.718  0.3417  0.2207 -0.6530
12810TIP3    H159845   2.029   3.705  12.790  2.3924 -1.3517 -0.4499
12810TIP3    H259846   2.150   3.706  12.700  1.6084  2.5805 -1.6865
12811TIP3   OH259847   1.031   0.407  12.216 -0.2992 -0.1632  0.1906
12811TIP3    H159848   1.042   0.500  12.197 -2.2497 -0.0454 -0.6053
12811TIP3    H259849   1.005   0.404  12.308  1.1684 -0.0671  0.6316
12812TIP3   OH259850   4.554   3.485  13.231  0.3164 -0.2453 -0.3410
12812TIP3    H159851   4.624   3.446  13.284  0.8434  1.2872  0.1559
12812TIP3    H259852   4.565   3.579  13.243 -2.5747  0.0552  0.6947
12813TIP3   OH259853   2.032   3.018   4.906  0.2116 -0.6795 -0.6679
12813TIP3    H159854   2.059   3.003   4.997 -0.9247 -0.3492 -0.2498
12813TIP3    H259855   1.941   3.046   4.913  0.4856  0.6145 -1.8183
12814TIP3   OH259856   0.763   5.857  12.811 -0.6395 -0.2628 -0.5633
12814TIP3    H159857   0.727   5.937  12.772 -0.3278 -0.4341 -1.2175
12814TIP3    H259858   0.783   5.800  12.737 -0.4790 -0.7905 -0.1264
12815TIP3   OH259859   3.814   2.300  13.966 -0.3099 -0.3054  0.1460
12815TIP3    H159860   3.845   2.211  13.983  0.9772  0.2626  0.9987
12815TIP3    H259861   3.872   2.332  13.896 -0.9359 -0.2167 -0.3393
12816TIP3   OH259862   6.002   4.548   3.557  0.4457 -0.0155  0.0569
12816TIP3    H159863   6.072   4.607   3.528 -0.9927  1.3077 -0.8826
12816TIP3    H259864   6.026   4.526   3.647  0.5809  2.8560  0.8325
12817TIP3   OH259865   0.395   3.654   3.407 -0.0744 -0.6038  0.3478
12817TIP3    H159866   0.472   3.698   3.370  1.0270 -1.8431  1.0512
12817TIP3    H259867   0.333   3.724   3.425  0.3689  0.3089 -1.4314
12818TIP3   OH259868   6.025   1.231   5.480 -0.0754  0.0154  0.0807
12818TIP3    H159869   5.964   1.177   5.530 -0.4862 -0.7004 -1.1505
12818TIP3    H259870   6.032   1.312   5.531 -0.2082 -0.8042  1.4508
12819TIP3   OH259871   2.600   6.268   2.893 -0.3948 -0.3246  0.0439
12819TIP3    H159872   2.630   6.315   2.815 -2.0818 -3.1151 -2.5529
12819TIP3    H259873   2.518   6.226   2.865 -1.0751 -1.5385  3.3582
12820TIP3   OH259874   5.476   0.411  14.835  0.6884 -0.5527 -0.8307
12820TIP3    H159875   5.533   0.416  14.911 -0.5725  1.4272  0.0662
12820TIP3    H259876   5.492   0.492  14.786 -0.6876 -0.3524 -1.0085
12821TIP3   OH259877   5.555   4.771  16.422  0.2639  0.6755 -0.3512
12821TIP3    H159878   5.524   4.795  16.510  0.5735  0.4653 -0.1811
12821TIP3    H259879   5.475   4.744  16.376 -0.0182  1.5794 -0.4013
12822TIP3   OH259880   5.270   1.805  11.938  0.1431 -0.4294 -0.1262
12822TIP3    H159881   5.246   1.877  11.995  0.0930 -0.5974  0.0670
12822TIP3    H259882   5.242   1.832  11.850  1.7568  0.5737 -0.3721
12823TIP3   OH259883   4.717   5.744   4.522  0.1424 -0.7780 -0.0460
12823TIP3    H159884   4.788   5.803   4.548  0.4035 -1.8148  1.7511
12823TIP3    H259885   4.642   5.801   4.508  0.6192  0.0778  0.7653
12824TIP3   OH259886   0.164   0.598   4.994 -0.0850 -0.1572  0.0487
12824TIP3    H159887   0.175   0.650   5.074 -0.8385  0.2524 -0.1030
12824TIP3    H259888   0.212   0.647   4.927 -0.3549  0.0694  0.0195
12825TIP3   OH259889   0.336   6.189  14.179  0.0374  0.3122  0.1855
12825TIP3    H159890   0.339   6.225  14.268  0.9457 -1.2018  0.8030
12825TIP3    H259891   0.364   6.262  14.124 -0.6389  1.3177  1.1031
12826TIP3   OH259892   3.121   2.830   2.990  0.2371  0.3782  0.0622
12826TIP3    H159893   3.076   2.753   2.955  0.0766  0.6487 -0.3360
12826TIP3    H259894   3.056   2.872   3.046  0.1839  0.4489 -0.0510
12827TIP3   OH259895   0.649   6.006  10.998 -0.7326  0.4258 -0.7634
12827TIP3    H159896   0.570   5.960  10.968 -0.8816  0.2360 -0.0933
12827TIP3    H259897   0.697   6.026  10.917 -0.2278 -1.7051 -1.0483
12828TIP3   OH259898   3.598   3.197  16.482  0.0077 -0.2797  0.5898
12828TIP3    H159899   3.681   3.155  16.463  0.7293  1.0137  0.8040
12828TIP3    H259900   3.541   3.170  16.409 -0.4611 -3.8239  2.0504
12829TIP3   OH259901   0.871   6.529  14.050 -0.5275 -0.2109 -0.0508
12829TIP3    H159902   0.912   6.444  14.064 -0.5317 -0.0350  1.1614
12829TIP3    H259903   0.783   6.519  14.087 -0.0249  0.7466  1.4751
12830TIP3   OH259904   2.030   4.972   5.708  0.6084 -0.1822 -0.2713
12830TIP3    H159905   1.987   4.973   5.794  1.8410 -2.4168  0.4496
12830TIP3    H259906   2.123   4.961   5.728  1.1707  1.1453 -1.8865
12831TIP3   OH259907   2.024   2.042   4.014 -0.6904  0.4536  0.0626
12831TIP3    H159908   1.932   2.068   4.015 -0.8376 -0.0682  1.0520
12831TIP3    H259909   2.034   1.991   3.934 -1.1418  0.9025 -0.2903
12832TIP3   OH259910   5.310   5.482  11.478 -0.0539  0.6663  0.1496
12832TIP3    H159911   5.241   5.416  11.491 -1.6752  2.3067  0.3054
12832TIP3    H259912   5.340   5.468  11.389  1.1101 -1.5807  0.8301
12833TIP3   OH259913   3.498   6.385  16.342  0.0491  0.5994 -0.1080
12833TIP3    H159914   3.493   6.297  16.306  0.4848  0.5145  0.0327
12833TIP3    H259915   3.575   6.383  16.400 -0.5426  0.7763  0.7001
12834TIP3   OH259916   2.590   0.619  14.890 -0.1523  0.0424  0.0534
12834TIP3    H159917   2.533   0.692  14.866  0.8025  0.3782 -1.3306
12834TIP3    H259918   2.530   0.547  14.907 -1.0571  0.8041  0.1480
12835TIP3   OH259919   6.674   3.317   4.298 -0.3190 -0.4264  0.7442
12835TIP3    H159920   6.653   3.261   4.374 -1.6568  0.5557  1.1480
12835TIP3    H259921   6.589   3.335   4.258  0.3384 -0.6680 -0.8383
12836TIP3   OH259922   1.205   6.230  14.480 -0.4361  0.6717 -0.3891
12836TIP3    H159923   1.147   6.224  14.556 -0.0674 -1.1797 -0.1967
12836TIP3    H259924   1.219   6.323  14.468 -0.5497  1.0361  1.7979
12837TIP3   OH259925   0.373   2.604  11.132  0.5990 -0.9677 -0.5824
12837TIP3    H159926   0.385   2.575  11.041 -0.3030  1.0458 -1.4125
12837TIP3    H259927   0.282   2.634  11.135  1.3527  1.4243  0.2255
12838TIP3   OH259928   2.683   4.765   2.721  0.3698 -0.3533 -0.5826
12838TIP3    H159929   2.610   4.767   2.660 -1.5532  1.9236  1.6041
12838TIP3    H259930   2.714   4.855   2.725 -0.2131 -0.1947  2.4357
12839TIP3   OH259931   2.923   3.775  11.925  0.0625  0.6079 -0.0236
12839TIP3    H159932   2.848   3.747  11.872  0.4591  0.8965 -0.7565
12839TIP3    H259933   2.928   3.711  11.996  0.1938 -0.4627 -0.9685
12840TIP3   OH259934   4.713   0.028  12.524  0.5946 -0.0975 -0.0141
12840TIP3    H159935   4.789   0.058  12.473  0.5889 -0.6728 -0.3663
12840TIP3    H259936   4.685   0.106  12.572  1.2414  0.1943 -0.0870
12841TIP3   OH259937   0.920   5.680  10.666 -0.3021  0.7404 -0.1448
12841TIP3    H159938   0.880   5.594  10.675  0.8601  0.3618  2.0235
12841TIP3    H259939   0.849   5.737  10.635 -0.9828 -1.0348 -2.0435
12842TIP3   OH259940   4.112   6.497   1.744  0.2028 -0.1326  0.2064
12842TIP3    H159941   4.045   6.469   1.807  0.4997  0.5499  0.8315
12842TIP3    H259942   4.094   6.443   1.666 -1.4996  0.4839  0.1189
12843TIP3   OH259943   2.030   2.062  13.438 -0.2071  0.2430 -0.0335
12843TIP3    H159944   1.940   2.041  13.412 -0.1115 -1.7490  1.0680
12843TIP3    H259945   2.082   1.986  13.411  1.0414  1.0515 -0.0011
12844TIP3   OH259946   6.048   4.113   0.674  0.0443 -0.0495 -0.5593
12844TIP3    H159947   6.124   4.144   0.625 -0.0849 -0.2239 -0.8696
12844TIP3    H259948   6.085   4.062   0.746  0.3449  2.1137  0.9191
12845TIP3   OH259949   3.323   1.134  13.339 -0.4927 -0.0269  0.3286
12845TIP3    H159950   3.398   1.178  13.299  0.2918 -0.5793  1.1564
12845TIP3    H259951   3.290   1.075  13.271  1.1703 -1.3724  0.6486
12846TIP3   OH259952   1.189   4.456  14.681 -0.1955 -0.2155 -0.1412
12846TIP3    H159953   1.191   4.527  14.616  1.4077  1.2069  1.3408
12846TIP3    H259954   1.104   4.413  14.668  0.4782 -0.6881 -3.8106
12847TIP3   OH259955   6.410   6.234  13.086 -0.0274 -0.1779 -0.2488
12847TIP3    H159956   6.371   6.238  13.174 -0.5271  1.0857 -0.5059
12847TIP3    H259957   6.394   6.145  13.057  1.3114 -1.0513  1.4541
12848TIP3   OH259958   5.293   4.644  16.368 -0.4096  0.2886  0.3172
12848TIP3    H159959   5.266   4.702  16.440  1.1176 -0.2953  1.4080
12848TIP3    H259960   5.222   4.652  16.304 -1.8819  0.7603  1.9032
12849TIP3   OH259961   4.820   4.132   9.828 -0.3252  0.5048 -0.1526
12849TIP3    H159962   4.730   4.145   9.795  0.1403 -0.2935 -1.8652
12849TIP3    H259963   4.838   4.211   9.878 -1.6543  1.1307 -0.5916
12850TIP3   OH259964   3.315   5.388   3.466 -0.3521 -0.1353 -0.4263
12850TIP3    H159965   3.287   5.478   3.483  1.0693  0.4424 -0.9440
12850TIP3    H259966   3.394   5.377   3.518  2.0474  0.4794 -3.6412
12851TIP3   OH259967   5.565   0.967   4.707  0.3693  0.1405  0.0649
12851TIP3    H159968   5.644   0.962   4.653  0.1704 -0.8106 -0.1640
12851TIP3    H259969   5.585   0.914   4.784  0.0085  0.0001  0.0673
12852TIP3   OH259970   1.159   6.777  16.423 -0.0580  0.4227  0.0577
12852TIP3    H159971   1.197   6.831  16.353  3.1673 -0.5998  0.8282
12852TIP3    H259972   1.172   6.687  16.393  0.1862  0.0005  1.3704
12853TIP3   OH259973   2.220   0.256  11.954  0.3621 -0.1040 -0.2400
12853TIP3    H159974   2.287   0.237  12.020  0.3003 -0.4374 -0.2693
12853TIP3    H259975   2.138   0.251  12.002  0.3837  0.8932 -0.0741
12854TIP3   OH259976   6.741   0.056   3.292  0.1558  0.0839 -0.1328
12854TIP3    H159977   6.817   0.007   3.323  1.6119  2.0150 -0.5078
12854TIP3    H259978   6.777   0.125   3.237 -1.8641  1.1590 -0.2070
12855TIP3   OH259979   2.304   1.797   1.817 -0.1931 -0.3501  0.6216
12855TIP3    H159980   2.360   1.858   1.863 -0.0321 -0.4659  0.5812
12855TIP3    H259981   2.230   1.782   1.876  0.2725 -0.9059  1.0703
12856TIP3   OH259982   0.726   0.767   5.880  0.2047  0.0857  0.2969
12856TIP3    H159983   0.735   0.843   5.937  0.0139  2.3440 -2.4896
12856TIP3    H259984   0.664   0.710   5.926 -0.9151  2.3455  1.7387
12857TIP3   OH259985   6.496   0.190  15.685 -0.3581 -0.4990 -0.4251
12857TIP3    H159986   6.415   0.197  15.635 -0.2874 -0.6615 -0.5626
12857TIP3    H259987   6.469   0.210  15.775 -0.4904 -0.2414 -0.5203
12858TIP3   OH259988   1.091   3.556  16.660  0.5078  0.4619 -0.2010
12858TIP3    H159989   1.155   3.575  16.729 -1.3938 -0.6694  2.0250
12858TIP3    H259990   1.031   3.631  16.662 -0.8230 -0.5522  1.0581
12859TIP3   OH259991   3.426   0.710  14.374 -0.4323 -0.5377  0.1662
12859TIP3    H159992   3.454   0.666  14.294  1.1195 -0.9856  0.9068
12859TIP3    H259993   3.466   0.797  14.369  1.0927 -1.1318  1.1640
12860TIP3   OH259994   1.893   1.047   0.669  0.3733 -0.3329  0.6131
12860TIP3    H159995   1.811   0.998   0.677 -0.1468  0.2738 -0.6945
12860TIP3    H259996   1.936   1.037   0.754 -1.2368 -0.3371  1.4564
12861TIP3   OH259997   2.691   5.046  16.834 -0.0509  0.0543 -0.4255
12861TIP3    H159998   2.753   4.973  16.841 -0.7116 -0.5186 -0.3191
12861TIP3    H259999   2.699   5.077  16.744  1.1916  0.7329 -0.0965
12862TIP3   OH260000   4.379   2.153  17.155 -0.3462  0.4380  0.4610
12862TIP3    H160001   4.431   2.131  17.077  0.0580  0.3189  0.7570
12862TIP3    H260002   4.298   2.104  17.144 -0.8134  1.3882 -0.4825
12863TIP3   OH260003   4.770   1.889  15.065 -0.0098 -0.1408  0.3562
12863TIP3    H160004   4.734   1.801  15.076  0.0458 -0.0478  1.3939
12863TIP3    H260005   4.861   1.874  15.039 -0.2545 -0.3804 -0.3830
12864TIP3   OH260006   4.414   5.121   3.682  0.3781  0.2895  0.4882
12864TIP3    H160007   4.499   5.079   3.668  0.8624  0.8284  1.6709
12864TIP3    H260008   4.435   5.210   3.709 -0.6076  0.8462 -0.4637
12865TIP3   OH260009   2.965   2.292   5.794  0.5854  0.1743 -0.0566
12865TIP3    H160010   2.987   2.220   5.853 -1.6970  0.6307  1.4668
12865TIP3    H260011   2.986   2.258   5.706 -1.2568 -2.7605  0.5032
12866TIP3   OH260012   1.222   6.603  13.073  0.1745  0.2365  0.2101
12866TIP3    H160013   1.204   6.637  13.161 -0.8804 -0.0243  0.1004
12866TIP3    H260014   1.263   6.518  13.089 -1.8130 -0.7291  0.4760
12867TIP3   OH260015   5.443   1.340   2.208  0.4505 -0.2941 -0.2947
12867TIP3    H160016   5.417   1.348   2.116 -0.7629  0.0793  0.0628
12867TIP3    H260017   5.434   1.247   2.228  1.6496 -0.5413 -0.7960
12868TIP3   OH260018   1.024   4.687   2.674 -0.1915 -0.7857  0.3669
12868TIP3    H160019   1.100   4.736   2.705 -1.0831  0.5456  0.5611
12868TIP3    H260020   0.991   4.641   2.751 -1.1489  0.8205  0.9749
12869TIP3   OH260021   4.758   3.997  14.420 -0.0377 -0.2060 -0.2608
12869TIP3    H160022   4.728   4.018  14.509 -2.1501  0.3198 -1.0335
12869TIP3    H260023   4.727   4.070  14.367 -0.6198 -1.4856 -1.7531
12870TIP3   OH260024   5.941   2.271   6.277 -0.1366 -0.6755  0.0053
12870TIP3    H160025   6.004   2.304   6.341 -2.0242  0.6764  1.2727
12870TIP3    H260026   5.856   2.276   6.322 -1.6800  1.0752 -2.8326
12871TIP3   OH260027   4.914   2.800   1.981 -0.8657 -0.1403  0.2220
12871TIP3    H160028   5.004   2.824   1.961 -0.9325  0.7392  0.9399
12871TIP3    H260029   4.901   2.826   2.072 -1.2188 -2.1467  0.7992
12872TIP3   OH260030   5.205   2.030  12.853 -0.0203  0.1828 -0.1875
12872TIP3    H160031   5.288   2.048  12.807  0.1204  3.1619  1.0268
12872TIP3    H260032   5.183   2.112  12.896 -3.4791 -0.6199 -0.1490
12873TIP3   OH260033   4.027   0.752  12.767 -0.8176  0.1905  0.0084
12873TIP3    H160034   4.101   0.811  12.782  0.2234 -1.0909  0.0656
12873TIP3    H260035   3.998   0.772  12.678  0.4398 -0.1805 -0.4987
12874TIP3   OH260036   6.570   0.581  12.964  0.2792 -0.4427 -0.2834
12874TIP3    H160037   6.496   0.521  12.968 -1.1244  1.2815  1.1037
12874TIP3    H260038   6.644   0.527  12.936 -0.9391 -2.7442  0.7606
12875TIP3   OH260039   5.848   0.321  15.071  0.0680 -0.3195 -0.1602
12875TIP3    H160040   5.850   0.280  15.158 -0.3929  1.0419  0.5265
12875TIP3    H260041   5.757   0.349  15.060  0.2521  0.0247 -0.8320
12876TIP3   OH260042   3.750   6.776  15.905  0.1882  0.5512  0.2075
12876TIP3    H160043   3.819   6.827  15.862 -0.4529  1.9886  0.8364
12876TIP3    H260044   3.764   6.686  15.874  3.0929  0.5352  1.2686
12877TIP3   OH260045   6.262   5.634  13.786 -0.0200 -0.5618 -0.6396
12877TIP3    H160046   6.289   5.724  13.802 -2.8136  0.2041  0.4833
12877TIP3    H260047   6.208   5.638  13.707  0.3589 -1.3682 -0.9511
12878TIP3   OH260048   0.497   1.150   2.004 -0.1401 -0.4283  0.3667
12878TIP3    H160049   0.403   1.135   2.014 -0.2752 -1.1782 -1.4969
12878TIP3    H260050   0.535   1.062   2.008  0.1234 -0.4552 -1.6247
12879TIP3   OH260051   3.290   1.933  14.937  0.3792 -0.4802  0.8457
12879TIP3    H160052   3.199   1.922  14.967 -1.3648 -0.7333 -3.7164
12879TIP3    H260053   3.323   2.006  14.988 -2.5450 -0.0982  2.4316
12880TIP3   OH260054   0.139   1.282  16.679  0.2463  0.2254 -0.1821
12880TIP3    H160055   0.055   1.270  16.633  1.1312 -1.3960 -1.4958
12880TIP3    H260056   0.145   1.376  16.694 -2.2188  0.2978  0.7757
12881TIP3   OH260057   0.034   1.878   3.378  0.1815  0.1294  0.0912
12881TIP3    H160058   0.011   1.917   3.294 -0.0712  0.3114  0.2411
12881TIP3    H260059   0.079   1.797   3.356  1.2840  0.8124 -0.2441
12882TIP3   OH260060   3.881   1.125  15.643 -0.0276  0.5453  0.1794
12882TIP3    H160061   3.923   1.201  15.604  0.6863 -0.0070 -0.1476
12882TIP3    H260062   3.788   1.146  15.642 -0.2068  0.0432 -3.0603
12883TIP3   OH260063   4.786   4.842  15.170  0.1249 -0.2038  0.3404
12883TIP3    H160064   4.879   4.850  15.153  0.1799  1.0297  1.0831
12883TIP3    H260065   4.745   4.911  15.118 -0.1949  0.2831  1.2028
12884TIP3   OH260066   6.367   2.378  14.122  0.0124 -0.7496  0.3068
12884TIP3    H160067   6.357   2.378  14.217 -2.7876  0.1141  0.0838
12884TIP3    H260068   6.459   2.354  14.108  0.2692 -1.8403  3.1737
12885TIP3   OH260069   2.237   5.671  17.155 -0.0227  0.3067  0.0986
12885TIP3    H160070   2.266   5.582  17.133 -0.9278 -0.3528  1.4092
12885TIP3    H260071   2.317   5.721  17.167  0.5010 -0.1190 -1.4236
12886TIP3   OH260072   5.200   3.103   6.345  0.5542  0.6590 -0.0918
12886TIP3    H160073   5.135   3.042   6.379  0.3581  0.5273 -0.6855
12886TIP3    H260074   5.255   3.049   6.287 -0.3685  1.2748 -1.5997
12887TIP3   OH260075   4.852   3.073   5.556  0.4932 -0.0443  0.1568
12887TIP3    H160076   4.822   3.033   5.474  2.2223  0.7332 -0.8945
12887TIP3    H260077   4.785   3.049   5.620 -0.6421 -1.0908 -1.3649
12888TIP3   OH260078   6.159   5.533  11.103  0.3751  0.1025 -0.4567
12888TIP3    H160079   6.227   5.536  11.036  0.9011 -0.2952  0.0549
12888TIP3    H260080   6.095   5.471  11.069  1.3744 -1.2735  0.0788
12889TIP3   OH260081   4.028   3.548   6.062 -0.1651 -0.2322 -0.0101
12889TIP3    H160082   3.958   3.482   6.063 -0.2465 -0.1586 -0.6422
12889TIP3    H260083   4.089   3.518   5.995 -0.1340  0.2652 -0.2097
12890TIP3   OH260084   5.700   0.846   5.318 -0.3428 -0.7510  0.6044
12890TIP3    H160085   5.658   0.770   5.276 -3.1004 -0.5643  2.8003
12890TIP3    H260086   5.649   0.921   5.288  0.0680 -0.1787  1.3280
12891TIP3   OH260087   5.056   2.203  16.246  0.0378 -0.2942  0.0595
12891TIP3    H160088   4.977   2.151  16.259 -1.2384  1.5123  0.0029
12891TIP3    H260089   5.091   2.217  16.334 -0.6436  0.2289  0.2577
12892TIP3   OH260090   2.833   4.362   4.160  0.3842 -0.2686 -0.1928
12892TIP3    H160091   2.906   4.424   4.156 -0.1076  0.4745  1.4343
12892TIP3    H260092   2.769   4.405   4.218 -2.2266 -0.0011 -3.0429
12893TIP3   OH260093   4.180   5.765  10.749 -0.2791 -0.5722  0.0414
12893TIP3    H160094   4.098   5.721  10.725 -0.2080  0.0720 -1.5042
12893TIP3    H260095   4.245   5.695  10.751 -0.5305 -0.8291 -0.4769
12894TIP3   OH260096   3.310   6.551  10.258  0.0006  0.2907  0.4275
12894TIP3    H160097   3.378   6.610  10.224 -0.8547  1.1652  0.2093
12894TIP3    H260098   3.242   6.609  10.291 -1.6693 -0.5415 -1.3585
12895TIP3   OH260099   2.664   1.763   2.509 -0.3991 -0.4295  0.0737
12895TIP3    H160100   2.686   1.846   2.552  0.9842 -0.4162 -0.5915
12895TIP3    H260101   2.722   1.760   2.433 -0.0126 -2.2771  0.4014
12896TIP3   OH260102   2.598   0.235   2.536  0.5387  0.0641  0.0857
12896TIP3    H160103   2.520   0.280   2.569  1.2995  0.7625  1.0077
12896TIP3    H260104   2.663   0.304   2.526  0.8278 -0.3931 -1.4037
12897TIP3   OH260105   6.574   6.389  11.986 -0.5734  0.0067 -0.3545
12897TIP3    H160106   6.667   6.382  12.010 -1.3491  1.8721  4.1946
12897TIP3    H260107   6.571   6.459  11.921  1.1108  1.0625  0.6304
12898TIP3   OH260108   0.390   0.103   5.705 -0.2908 -0.2948  0.8235
12898TIP3    H160109   0.429   0.017   5.691  0.3307 -0.0552  1.0525
12898TIP3    H260110   0.440   0.162   5.648  0.3654  0.1866  1.8692
12899TIP3   OH260111   2.364   6.514   2.872  0.0474  0.7166  0.0675
12899TIP3    H160112   2.371   6.598   2.827 -2.5938 -0.1510 -2.1956
12899TIP3    H260113   2.378   6.449   2.803 -1.2330 -0.6774  1.0708
12900TIP3   OH260114   1.612   5.424  11.634 -0.2632  0.4344  0.1913
12900TIP3    H160115   1.700   5.397  11.662 -0.0212 -1.1404 -1.8308
12900TIP3    H260116   1.556   5.350  11.656 -0.7157  0.6409 -0.2379
12901TIP3   OH260117   1.834   1.488   2.943 -0.1742 -0.5147 -0.3203
12901TIP3    H160118   1.872   1.410   2.902  1.8381 -0.4013  1.1490
12901TIP3    H260119   1.846   1.558   2.879  0.4248 -0.8876 -0.6194
12902TIP3   OH260120   0.466   0.065   2.264  0.2283  0.5568 -0.1706
12902TIP3    H160121   0.553   0.083   2.228  1.9204 -2.4072  1.8872
12902TIP3    H260122   0.412   0.045   2.188  2.4280 -1.1752 -1.4143
12903TIP3   OH260123   5.497   0.551  12.218 -0.2856  0.0901 -0.0826
12903TIP3    H160124   5.571   0.603  12.249  1.0535 -1.9587  0.2889
12903TIP3    H260125   5.505   0.468  12.265 -1.3080 -1.1404 -1.9999
12904TIP3   OH260126   5.271   0.907   4.688 -0.5486 -0.7197 -0.1070
12904TIP3    H160127   5.351   0.944   4.726 -0.5411 -0.3623 -0.4543
12904TIP3    H260128   5.200   0.957   4.727 -0.6167 -1.1546  0.3332
12905TIP3   OH260129   2.997   0.097  11.743 -0.1116 -0.2851 -0.0411
12905TIP3    H160130   3.008   0.129  11.654  0.0390 -0.1159  0.0367
12905TIP3    H260131   3.014   0.003  11.738 -0.8875 -0.4100 -0.3319
12906TIP3   OH260132   2.848   5.303   3.367 -0.2777  0.2103 -0.0504
12906TIP3    H160133   2.828   5.211   3.347 -0.9459  0.8159 -2.6638
12906TIP3    H260134   2.790   5.352   3.309 -0.3354  2.3228  1.6921
12907TIP3   OH260135   1.006   4.574  10.739  0.3751  0.6554  0.1939
12907TIP3    H160136   1.065   4.605  10.670  0.4782 -0.7198 -0.3658
12907TIP3    H260137   1.055   4.585  10.820  1.3621 -0.3282 -0.2456
12908TIP3   OH260138   6.256   3.951  14.343 -0.6621  0.0726  0.2368
12908TIP3    H160139   6.193   3.879  14.350 -1.1682  0.4486 -0.4316
12908TIP3    H260140   6.338   3.913  14.375 -0.6190 -1.1907 -1.2645
12909TIP3   OH260141   5.664   4.938   1.482  0.4805  0.0671  0.9853
12909TIP3    H160142   5.705   4.854   1.499  0.4922  0.3325  2.4048
12909TIP3    H260143   5.578   4.931   1.523  0.2223  0.5218  0.5352
12910TIP3   OH260144   2.752   3.800   4.506  0.0853  0.5696 -0.5185
12910TIP3    H160145   2.667   3.842   4.520  0.9812  1.4729  3.2750
12910TIP3    H260146   2.752   3.727   4.568  2.0194  0.5144 -0.5356
12911TIP3   OH260147   5.657   6.157   5.957 -0.3613 -0.3460 -0.2883
12911TIP3    H160148   5.658   6.253   5.954  2.0185 -0.2846  0.3530
12911TIP3    H260149   5.583   6.136   6.013 -1.1074  1.1052 -0.6740
12912TIP3   OH260150   1.412   5.825   5.211  0.4181 -0.0714  0.0163
12912TIP3    H160151   1.497   5.802   5.175  1.0111  0.2520  1.1602
12912TIP3    H260152   1.420   5.917   5.235 -0.8760  0.4975 -1.5490
12913TIP3   OH260153   1.378   1.666   4.895 -0.3433  0.8048  0.3774
12913TIP3    H160154   1.426   1.584   4.907 -0.8631  0.4413  0.0249
12913TIP3    H260155   1.407   1.699   4.810 -1.2921  0.1739 -0.2105
12914TIP3   OH260156   5.938   0.586  10.497 -0.6314  0.0582  0.0760
12914TIP3    H160157   5.942   0.570  10.403 -1.1604  0.3616  0.0010
12914TIP3    H260158   5.932   0.499  10.536 -1.1791 -0.0365 -0.2120
12915TIP3   OH260159   5.531   2.166  11.763  0.6597  0.3457  0.1490
12915TIP3    H160160   5.540   2.071  11.756 -1.7337  0.0625  0.3564
12915TIP3    H260161   5.497   2.193  11.678  0.0082  0.8214  0.5521
12916TIP3   OH260162   1.040   2.758  14.148 -0.0146 -0.3131 -0.0059
12916TIP3    H160163   0.963   2.772  14.203 -0.0567 -2.6589  0.6426
12916TIP3    H260164   1.020   2.806  14.067 -1.2750  0.7098  0.8710
12917TIP3   OH260165   4.310   6.416  13.515 -0.2449 -0.3495 -0.2493
12917TIP3    H160166   4.373   6.350  13.546 -1.8011 -0.5732  2.7937
12917TIP3    H260167   4.225   6.373  13.522 -1.1210  1.3516 -0.0439
12918TIP3   OH260168   6.576   0.421  14.644  0.2691  0.2727  0.5550
12918TIP3    H160169   6.573   0.472  14.562  0.9311  1.8142  1.4457
12918TIP3    H260170   6.664   0.435  14.677  0.8583 -2.3696  0.3438
12919TIP3   OH260171   6.255   1.423  16.740 -0.4059  0.5679 -0.2643
12919TIP3    H160172   6.315   1.470  16.681 -0.0054  2.4876  1.5692
12919TIP3    H260173   6.311   1.362  16.788  0.3704  2.8682  1.9730
12920TIP3   OH260174   4.213   0.525  10.842 -0.1758  0.0397  0.0140
12920TIP3    H160175   4.181   0.435  10.848  1.0576 -0.4322 -0.1623
12920TIP3    H260176   4.208   0.546  10.749 -2.5766  1.0003  0.2776
12921TIP3   OH260177   2.831   5.758  13.506  0.1238 -0.3922 -0.3543
12921TIP3    H160178   2.744   5.725  13.528 -0.5871  2.7283  2.2405
12921TIP3    H260179   2.889   5.718  13.571 -0.1924  0.8719  0.7437
12922TIP3   OH260180   0.521   5.822   0.585 -0.4989 -0.3564 -0.7244
12922TIP3    H160181   0.505   5.895   0.644  0.0679  0.7565 -1.9031
12922TIP3    H260182   0.612   5.797   0.602 -0.3960 -0.1637 -0.9939
12923TIP3   OH260183   5.980   6.290  13.759 -0.0271  0.6053 -0.5033
12923TIP3    H160184   5.989   6.265  13.851 -0.5009  1.2340 -0.2819
12923TIP3    H260185   5.910   6.355  13.758  0.1454  0.7913 -1.2740
12924TIP3   OH260186   4.402   5.132  10.165  0.1507 -0.2903 -0.2244
12924TIP3    H160187   4.418   5.226  10.163  0.5426 -0.0902  3.6866
12924TIP3    H260188   4.471   5.097  10.222 -0.6025 -2.7966 -0.7213
12925TIP3   OH260189   6.417   4.316   4.094  0.0417 -0.7325 -0.3949
12925TIP3    H160190   6.386   4.292   4.007  0.5561 -0.1398 -0.7501
12925TIP3    H260191   6.475   4.390   4.079 -1.7619  0.9907  0.6779
12926TIP3   OH260192   1.442   3.791   4.145  0.3418  0.0939  0.1937
12926TIP3    H160193   1.488   3.787   4.229  1.6241  0.8776 -0.4430
12926TIP3    H260194   1.380   3.863   4.154 -1.1537 -1.2706  1.2225
12927TIP3   OH260195   3.849   6.099  12.413  0.2739 -0.6454  0.2203
12927TIP3    H160196   3.845   6.092  12.509 -2.0575  3.2511  0.6418
12927TIP3    H260197   3.757   6.095  12.385  0.7245  0.4532 -1.5891
12928TIP3   OH260198   6.664   4.041  14.557 -0.1219  0.1534 -0.4089
12928TIP3    H160199   6.632   4.014  14.471 -1.7643 -0.5477  0.3641
12928TIP3    H260200   6.736   3.980  14.576 -1.4340 -1.4158 -0.2270
12929TIP3   OH260201   5.155   1.523  15.902 -0.1618  0.3691  0.2805
12929TIP3    H160202   5.210   1.484  15.970  1.2102  0.1489 -0.9086
12929TIP3    H260203   5.177   1.475  15.822 -1.3620  0.9572 -0.4365
12930TIP3   OH260204   3.324   1.396  13.915 -0.5388 -0.3917  0.1160
12930TIP3    H160205   3.231   1.373  13.919 -0.9946  1.0550 -1.1810
12930TIP3    H260206   3.365   1.341  13.982 -2.2441 -1.4076  0.3853
12931TIP3   OH260207   4.487   6.224   4.815  0.9168  0.4831  0.1324
12931TIP3    H160208   4.552   6.159   4.789  0.9290  0.9780 -1.1079
12931TIP3    H260209   4.499   6.233   4.910  0.4677 -1.8047  0.4632
12932TIP3   OH260210   2.958   1.640  13.768  0.5346 -0.6370 -0.2289
12932TIP3    H160211   2.900   1.579  13.721 -1.6627  0.5831  0.7424
12932TIP3    H260212   2.978   1.596  13.850 -1.3727  0.0069  0.6454
12933TIP3   OH260213   5.728   3.058  17.065 -0.5464 -0.1801  0.1570
12933TIP3    H160214   5.655   3.004  17.095 -1.0965 -0.4987 -1.6345
12933TIP3    H260215   5.795   3.047  17.132 -0.9810 -2.4023  0.3068
12934TIP3   OH260216   1.501   4.468   0.579  0.2230  0.1035  0.1870
12934TIP3    H160217   1.412   4.482   0.612  0.1943 -0.4362  0.3496
12934TIP3    H260218   1.534   4.556   0.561 -0.9707  0.2577 -1.5234
12935TIP3   OH260219   3.778   0.648  15.524 -0.2690  0.2632 -0.3610
12935TIP3    H160220   3.804   0.738  15.505  0.6908  0.6266  2.3251
12935TIP3    H260221   3.696   0.636  15.477 -0.5875  2.6432 -0.5167
12936TIP3   OH260222   6.544   2.414   0.758  0.2505 -0.3958 -0.1766
12936TIP3    H160223   6.588   2.335   0.789  1.4364  0.0936 -0.5469
12936TIP3    H260224   6.460   2.414   0.803  0.7280 -1.2373  0.7508
12937TIP3   OH260225   6.688   6.724  15.398 -0.0591  0.0342 -0.2647
12937TIP3    H160226   6.714   6.781  15.470  1.7151  0.0653 -0.8883
12937TIP3    H260227   6.604   6.687  15.425  0.2310  0.5930  1.4815
12938TIP3   OH260228   2.561   0.253  14.795 -0.5617 -0.0057 -0.4850
12938TIP3    H160229   2.467   0.263  14.810 -0.7119  0.6058 -1.6821
12938TIP3    H260230   2.568   0.228  14.703  0.4397 -0.4467 -0.3054
12939TIP3   OH260231   3.721   1.559  10.873  0.3600  0.0370 -0.2635
12939TIP3    H160232   3.657   1.578  10.941  1.1282  0.2267  0.4324
12939TIP3    H260233   3.685   1.485  10.825 -0.1629 -0.1409  0.3975
12940TIP3   OH260234   5.371   2.057   6.082 -0.2263  0.3206 -0.3772
12940TIP3    H160235   5.458   2.088   6.108  0.1184 -0.9819  0.1344
12940TIP3    H260236   5.310   2.114   6.129  0.3521  1.1147 -0.5794
12941TIP3   OH260237   5.211   3.325  11.484 -0.4618  0.1007 -0.7302
12941TIP3    H160238   5.155   3.380  11.539 -1.7051 -0.2394 -1.6233
12941TIP3    H260239   5.276   3.385  11.448 -1.4963  0.9091 -1.3019
12942TIP3   OH260240   4.239   0.413  14.322  0.4790  0.0354  0.5631
12942TIP3    H160241   4.257   0.371  14.406  1.0131 -3.5062 -1.1424
12942TIP3    H260242   4.295   0.366  14.260 -1.4688  1.0354 -2.1090
12943TIP3   OH260243   1.033   1.307   0.862 -0.1246  0.0200 -0.2935
12943TIP3    H160244   1.057   1.264   0.944 -1.1329 -1.9339 -0.9686
12943TIP3    H260245   0.999   1.393   0.890 -0.6968 -0.7035  1.3587
12944TIP3   OH260246   2.172   3.960  10.636  0.1897  0.0067  0.8925
12944TIP3    H160247   2.218   3.904  10.574  1.9002  1.5853  0.6413
12944TIP3    H260248   2.227   4.038  10.643  0.0607 -0.0845  4.3923
12945TIP3   OH260249   0.677   2.266   6.071 -0.2859 -0.1193  0.2292
12945TIP3    H160250   0.770   2.255   6.094 -0.0795 -0.9847 -0.8921
12945TIP3    H260251   0.632   2.276   6.155  0.7963  0.0921  0.8038
12946TIP3   OH260252   0.168   1.913   1.559 -0.3016 -0.6585  0.0449
12946TIP3    H160253   0.114   1.835   1.546  1.2281 -1.9645  1.1228
12946TIP3    H260254   0.157   1.934   1.651 -0.0433 -0.1046 -0.0490
12947TIP3   OH260255   3.777   4.145  13.309  0.3473  0.8654  0.5952
12947TIP3    H160256   3.780   4.122  13.216  0.7383 -1.1012  1.0570
12947TIP3    H260257   3.853   4.202  13.321  1.6617 -0.7091  0.1280
12948TIP3   OH260258   2.734   3.474   6.460  0.5474 -0.2277  0.1134
12948TIP3    H160259   2.640   3.488   6.450  1.1483  3.1540 -2.7711
12948TIP3    H260260   2.750   3.387   6.422 -1.3010 -0.5401 -0.0417
12949TIP3   OH260261   5.564   5.459  13.714 -0.4996 -0.0822 -0.0135
12949TIP3    H160262   5.645   5.466  13.764 -0.3802  0.0960 -0.2325
12949TIP3    H260263   5.532   5.549  13.707 -0.1186 -0.0001 -0.9119
12950TIP3   OH260264   1.615   6.170   1.360 -0.6321 -0.4327  0.5127
12950TIP3    H160265   1.579   6.244   1.409 -0.7182 -0.2944  0.2391
12950TIP3    H260266   1.652   6.113   1.428 -0.5078 -0.1100  0.7227
12951TIP3   OH260267   4.326   4.929  17.115 -0.0139 -0.0527 -0.2043
12951TIP3    H160268   4.398   4.867  17.117 -1.4347 -1.7727  2.0114
12951TIP3    H260269   4.266   4.900  17.184 -1.0706  3.4310  0.5895
12952TIP3   OH260270   0.881   4.771  15.762  0.9886  0.0836 -0.5011
12952TIP3    H160271   0.890   4.835  15.692  0.8219 -2.0200 -2.5858
12952TIP3    H260272   0.801   4.722  15.739 -1.8029  2.1321  3.6727
12953TIP3   OH260273   5.810   1.093  15.550 -0.5048  0.1630  0.6105
12953TIP3    H160274   5.793   1.182  15.579  0.5851  1.0607 -1.3000
12953TIP3    H260275   5.845   1.103  15.462 -0.8248 -2.1986  0.1474
12954TIP3   OH260276   6.086   3.402   5.810  0.1610  0.0180 -0.2949
12954TIP3    H160277   6.037   3.320   5.810  1.3183 -0.7414 -2.4190
12954TIP3    H260278   6.149   3.392   5.881 -0.1932 -0.6239 -0.0620
12955TIP3   OH260279   2.521   6.646   2.092  0.1646 -0.0736 -0.8917
12955TIP3    H160280   2.473   6.713   2.140  0.1560  0.3494 -1.4810
12955TIP3    H260281   2.605   6.638   2.139  0.6591  1.2216 -1.5064
12956TIP3   OH260282   5.340   4.113  11.401 -0.6868 -0.3639 -0.0423
12956TIP3    H160283   5.347   4.171  11.325  0.8817 -0.5240 -0.0506
12956TIP3    H260284   5.359   4.169  11.476  1.0653 -0.8618 -0.0690
12957TIP3   OH260285   6.640   1.074  11.509  0.5312  0.0082 -0.2810
12957TIP3    H160286   6.671   1.160  11.536  0.1379 -0.0857  0.5182
12957TIP3    H260287   6.710   1.014  11.535  0.8548  0.0897 -0.9395
12958TIP3   OH260288   6.739   5.231  17.055  0.4268  0.0610  0.4512
12958TIP3    H160289   6.707   5.211  16.967  0.3889  2.7060 -0.2217
12958TIP3    H260290   6.817   5.285  17.040  1.4150 -0.8531  2.0741
12959TIP3   OH260291   1.108   5.549  12.990 -0.0910 -0.0913 -0.1953
12959TIP3    H160292   1.024   5.515  12.958 -0.1950 -0.5519  0.5579
12959TIP3    H260293   1.110   5.640  12.959  0.3909 -0.8499 -2.6230
12960TIP3   OH260294   0.261   1.059   5.445  0.0787 -0.1167 -0.2221
12960TIP3    H160295   0.345   1.093   5.475  3.0592 -3.2563 -3.8956
12960TIP3    H260296   0.241   1.111   5.367  1.0261 -1.9625 -1.8029
12961TIP3   OH260297   2.108   0.575  12.567  0.2103 -0.4817 -0.4258
12961TIP3    H160298   2.163   0.627  12.508  4.2039 -0.5061  2.8352
12961TIP3    H260299   2.088   0.635  12.640  0.8834 -2.1093  1.1690
12962TIP3   OH260300   2.431   5.581   4.047  0.1561  0.0958 -0.1076
12962TIP3    H160301   2.524   5.596   4.060  0.2951 -0.6371 -0.2050
12962TIP3    H260302   2.391   5.601   4.132  0.4331  0.1727  0.0031
12963TIP3   OH260303   0.109   5.857  10.487 -0.0918 -0.1003 -0.0529
12963TIP3    H160304   0.123   5.944  10.450 -0.6296  0.5769  1.2479
12963TIP3    H260305   0.196   5.818  10.491 -0.0537 -0.3555 -2.2861
12964TIP3   OH260306   5.633   0.750   5.635 -0.5908 -0.0132  0.1090
12964TIP3    H160307   5.550   0.718   5.600 -1.2700  1.0463  0.6948
12964TIP3    H260308   5.610   0.829   5.684  0.4756 -0.7287  1.8988
12965TIP3   OH260309   5.033   3.979  12.333 -0.0615 -0.0855  0.1972
12965TIP3    H160310   5.044   3.983  12.428 -0.9435  0.3328  0.2957
12965TIP3    H260311   4.987   4.059  12.311  0.9703  0.2774 -0.7243
12966TIP3   OH260312   5.937   4.990  16.371  0.0085  0.7359 -0.1586
12966TIP3    H160313   6.028   4.966  16.392 -0.0057  1.2415  0.5281
12966TIP3    H260314   5.899   4.909  16.337  0.5261  0.3295  0.1966
12967TIP3   OH260315   6.344   2.530   5.105  0.1719  0.4989  0.5688
12967TIP3    H160316   6.338   2.619   5.140  0.7164  1.0085 -0.5958
12967TIP3    H260317   6.259   2.491   5.125 -0.2746  1.4583  0.6224
12968TIP3   OH260318   1.219   4.655  10.581  0.3558 -0.7546  0.7222
12968TIP3    H160319   1.286   4.612  10.635 -0.1749 -1.1984  1.0426
12968TIP3    H260320   1.265   4.679  10.501  0.5640 -2.4355  0.2936
12969TIP3   OH260321   2.778   6.041   6.226  0.1340  0.2991 -0.3318
12969TIP3    H160322   2.786   5.963   6.172  0.0175  0.3313 -0.3946
12969TIP3    H260323   2.721   6.015   6.299  1.7989 -0.3214  0.8264
12970TIP3   OH260324   2.375   4.185  17.183  0.6936  0.5568 -0.3962
12970TIP3    H160325   2.303   4.131  17.214 -0.2824  1.5184 -0.9252
12970TIP3    H260326   2.423   4.128  17.122 -0.5037  0.3704 -1.1962
12971TIP3   OH260327   0.778   3.891  11.520 -0.6108  0.2751  0.1603
12971TIP3    H160328   0.866   3.854  11.512 -0.3267  0.5459  1.7869
12971TIP3    H260329   0.725   3.822  11.559 -1.0844  0.1991 -0.5870
12972TIP3   OH260330   1.034   1.702   4.478 -0.7548 -0.2962 -0.0838
12972TIP3    H160331   1.088   1.766   4.432  1.4282 -0.3863  2.1530
12972TIP3    H260332   1.076   1.618   4.459 -0.2651 -0.4108  1.3936
12973TIP3   OH260333   5.016   5.556   1.486 -0.5129  0.3785  0.2814
12973TIP3    H160334   5.007   5.630   1.426 -1.7964 -0.6674 -0.8632
12973TIP3    H260335   5.101   5.570   1.529  1.9835 -0.3654 -3.9092
12974TIP3   OH260336   2.404   0.481  14.452  0.0004 -0.1810 -0.5447
12974TIP3    H160337   2.353   0.509  14.528  1.2194  0.5433  0.0555
12974TIP3    H260338   2.413   0.386  14.462 -3.4441 -0.8108 -2.1291
12975TIP3   OH260339   1.009   6.701   0.472  0.7076  0.3571  0.1520
12975TIP3    H160340   0.999   6.613   0.509  1.5956 -0.1936 -0.8668
12975TIP3    H260341   0.922   6.740   0.478  0.0670 -0.9545 -0.2822
12976TIP3   OH260342   3.118   0.498   0.789 -0.2702  0.1566  0.1947
12976TIP3    H160343   3.098   0.489   0.882 -0.7745  2.3776  0.3594
12976TIP3    H260344   3.057   0.439   0.746  0.0140 -0.9533  1.2566
12977TIP3   OH260345   4.690   2.651   1.929 -0.7685 -0.2503 -0.2274
12977TIP3    H160346   4.774   2.696   1.941 -0.4906 -0.1625 -2.2375
12977TIP3    H260347   4.710   2.575   1.875 -1.7268 -1.2154  0.7238
12978TIP3   OH260348   5.693   2.774  12.796  0.2838 -0.6137 -0.1135
12978TIP3    H160349   5.626   2.711  12.822 -2.7095  1.8610 -1.2070
12978TIP3    H260350   5.671   2.795  12.705  1.6056  1.4382 -0.0152
12979TIP3   OH260351   4.256   2.094  16.677  0.4078  0.4097 -0.1788
12979TIP3    H160352   4.331   2.104  16.619  0.3609 -0.0572 -0.3270
12979TIP3    H260353   4.218   2.182  16.684  0.4965  0.4925 -0.7436
12980TIP3   OH260354   6.414   2.975   0.505 -0.1165  0.5287 -0.4347
12980TIP3    H160355   6.391   2.928   0.586 -0.8915  1.4601 -0.0846
12980TIP3    H260356   6.452   2.909   0.448  1.0096 -0.0374  0.9175
12981TIP3   OH260357   1.474   2.428   1.303 -0.3862  0.4128  0.0634
12981TIP3    H160358   1.499   2.485   1.230  0.5021 -3.1826 -2.7068
12981TIP3    H260359   1.557   2.403   1.344 -0.8084  1.4905  1.6852
12982TIP3   OH260360   1.127   1.620  10.315  0.0364  0.1647 -0.2319
12982TIP3    H160361   1.031   1.623  10.315  0.0134  0.8139  1.8733
12982TIP3    H260362   1.151   1.623  10.407  2.0820 -0.9327 -0.6743
12983TIP3   OH260363   4.080   1.179   0.409 -0.6538  0.1891 -0.1581
12983TIP3    H160364   4.017   1.250   0.399 -0.6965  0.0662 -0.7552
12983TIP3    H260365   4.137   1.208   0.481 -0.7033  0.7983 -0.3587
12984TIP3   OH260366   3.247   0.280  15.854 -0.0254 -0.0900 -0.2018
12984TIP3    H160367   3.241   0.222  15.778 -1.2602  0.8954 -0.9029
12984TIP3    H260368   3.168   0.260  15.905  0.7598 -0.6933  0.8038
12985TIP3   OH260369   2.553   4.118   5.943  0.4626 -0.1233 -0.1101
12985TIP3    H160370   2.542   4.206   5.978 -1.1545  0.1861 -1.2463
12985TIP3    H260371   2.531   4.059   6.015  0.6531  0.4234  0.3937
12986TIP3   OH260372   4.425   6.468   3.646  0.2574  0.3361 -0.0002
12986TIP3    H160373   4.383   6.553   3.635  0.2439  0.3778  0.3675
12986TIP3    H260374   4.512   6.488   3.681 -0.3332  0.1252  1.6654
12987TIP3   OH260375   3.149   3.167   6.548  0.2793 -0.6923  0.2394
12987TIP3    H160376   3.160   3.082   6.505  3.0069 -1.1549  1.6448
12987TIP3    H260377   3.084   3.150   6.616  1.4122 -1.9537  1.0697
12988TIP3   OH260378   6.670   0.032   2.397 -0.1953  0.8674 -0.2917
12988TIP3    H160379   6.681  -0.045   2.452  0.3687 -0.0341 -1.6077
12988TIP3    H260380   6.744   0.088   2.417  0.3305  0.2736 -0.5388
12989TIP3   OH260381   4.228   3.696   5.608 -0.2263 -0.1602  0.0146
12989TIP3    H160382   4.215   3.717   5.516 -1.3879  0.6267  0.3374
12989TIP3    H260383   4.186   3.768   5.656  0.1748 -0.6545  1.1575
12990TIP3   OH260384   3.468   4.828  15.846 -0.1488 -0.3011  0.2093
12990TIP3    H160385   3.423   4.746  15.826 -1.3337 -0.0627  1.6612
12990TIP3    H260386   3.472   4.874  15.763 -1.4944 -0.8796 -0.2135
12991TIP3   OH260387   3.271   4.634   1.368 -0.1338  0.4856  0.4271
12991TIP3    H160388   3.245   4.553   1.323  0.9157  0.0091  0.6628
12991TIP3    H260389   3.315   4.605   1.447 -1.2510  1.3176  1.3976
12992TIP3   OH260390   5.827   2.879   6.381  0.0791 -0.3698 -0.3955
12992TIP3    H160391   5.881   2.803   6.357 -0.6870 -1.2151  0.4761
12992TIP3    H260392   5.737   2.848   6.372 -0.3561  1.2192 -2.4992
12993TIP3   OH260393   5.171   6.017   2.379  0.1296  0.4004  1.1964
12993TIP3    H160394   5.120   6.060   2.448 -1.4566  1.7594 -0.7003
12993TIP3    H260395   5.225   6.086   2.342 -0.2081  0.0915  0.0741
12994TIP3   OH260396   1.121   4.672   2.174 -0.1263 -0.0983  0.2023
12994TIP3    H160397   1.113   4.582   2.143  0.0380 -0.3514  0.8806
12994TIP3    H260398   1.071   4.674   2.256  0.2284  0.3116  0.4136
12995TIP3   OH260399   1.667   4.369  14.931 -0.1406 -0.4724 -0.2733
12995TIP3    H160400   1.691   4.365  15.024 -0.6242 -1.0190 -0.1690
12995TIP3    H260401   1.603   4.440  14.926 -0.4045 -0.7014 -0.1259
12996TIP3   OH260402   3.533   4.107  16.335  0.1581 -0.2075  0.2031
12996TIP3    H160403   3.505   4.017  16.322 -0.5681  0.0319  0.1067
12996TIP3    H260404   3.507   4.128  16.425 -1.0318  0.3836 -0.2529
12997TIP3   OH260405   5.596   0.217  13.483 -0.1122 -0.7758 -0.4605
12997TIP3    H160406   5.563   0.299  13.519  1.0215  0.3056 -1.7925
12997TIP3    H260407   5.545   0.149  13.528  0.8060  0.4647  2.7625
12998TIP3   OH260408   1.548   5.668  16.275 -0.5594 -0.2097  0.2908
12998TIP3    H160409   1.622   5.722  16.302 -0.6569 -0.8128  1.9437
12998TIP3    H260410   1.564   5.649  16.183  1.0985  0.0662  0.4874
12999TIP3   OH260411   1.701   2.747   1.035 -0.1389  0.0140  0.3304
12999TIP3    H160412   1.723   2.760   1.128  2.4279  0.1886 -0.2400
12999TIP3    H260413   1.780   2.712   0.996 -1.8985 -2.3137 -1.4042
13000TIP3   OH260414   1.065   2.931  15.920  0.4987 -0.4693 -0.1130
13000TIP3    H160415   1.076   2.880  16.000 -0.7760  1.6361  1.5290
13000TIP3    H260416   0.986   2.897  15.880 -0.9547  0.7458  1.5302
13001TIP3   OH260417   2.834   3.741  14.230  0.1197 -0.3955  0.2759
13001TIP3    H160418   2.887   3.798  14.174 -3.2396  0.8413 -1.9944
13001TIP3    H260419   2.866   3.653  14.212  1.0938  0.2390 -1.3599
13002TIP3   OH260420   1.461   2.846   0.486  0.2790 -0.3719 -0.6170
13002TIP3    H160421   1.398   2.804   0.545  0.8084 -1.7202 -0.9776
13002TIP3    H260422   1.411   2.915   0.443  0.0297  1.0877  1.8295
13003TIP3   OH260423   1.287   0.685  11.867  0.1869  0.7409 -0.4588
13003TIP3    H160424   1.371   0.648  11.893  0.9467  0.4857 -3.0203
13003TIP3    H260425   1.309   0.763  11.816 -1.0489  0.2113 -1.8870
13004TIP3   OH260426   5.335   3.519   1.642  0.0121 -0.0373 -0.4313
13004TIP3    H160427   5.421   3.559   1.628 -0.0002  0.4886  0.8289
13004TIP3    H260428   5.273   3.590   1.625 -0.0959 -0.0268 -0.0060
13005TIP3   OH260429   4.129   2.224   1.191  0.2339 -0.0237  0.7058
13005TIP3    H160430   4.043   2.192   1.165  0.4377 -0.4438  0.5263
13005TIP3    H260431   4.186   2.200   1.118  0.9496 -1.8189  1.7707
13006TIP3   OH260432   4.148   5.775  14.110  0.1670  0.0693 -0.0618
13006TIP3    H160433   4.147   5.680  14.118 -0.5166  0.0168 -0.6950
13006TIP3    H260434   4.162   5.807  14.199 -3.8103 -0.5412  0.9676
13007TIP3   OH260435   5.442   3.863   2.055 -0.0075  0.0098 -0.0841
13007TIP3    H160436   5.510   3.812   2.098 -1.9105 -0.5359  2.5358
13007TIP3    H260437   5.463   3.954   2.076  2.0261  0.2273 -2.6814
13008TIP3   OH260438   4.942   0.238   0.071 -0.0097 -0.1271  0.0905
13008TIP3    H160439   4.882   0.197   0.133 -0.4458 -0.7305 -0.7162
13008TIP3    H260440   4.942   0.331   0.095 -0.6406 -0.2528  0.5931
13009TIP3   OH260441   2.945   2.232  16.503 -0.1339 -0.1154  0.2089
13009TIP3    H160442   2.985   2.245  16.589  0.4829 -1.4811  0.1602
13009TIP3    H260443   2.862   2.189  16.521 -0.7570  1.0625  0.2019
13010TIP3   OH260444   6.609   2.878   2.208  0.3519  0.4139 -0.1264
13010TIP3    H160445   6.687   2.909   2.162 -0.6946  2.1803 -0.7999
13010TIP3    H260446   6.576   2.808   2.153  1.7553 -0.7799  0.4739
13011TIP3   OH260447   5.115   5.967  15.148 -0.5856  0.1536  0.2730
13011TIP3    H160448   5.177   6.031  15.185 -0.3781  0.3589 -0.4262
13011TIP3    H260449   5.110   5.989  15.056  0.2799 -1.4938 -0.2079
13012TIP3   OH260450   4.853   2.637   2.689 -0.2015 -0.1161 -0.9328
13012TIP3    H160451   4.824   2.570   2.627  0.0614 -1.9158  0.7669
13012TIP3    H260452   4.875   2.587   2.768 -2.6525  2.2263  1.4155
13013TIP3   OH260453   3.587   4.667  14.169  0.1731 -0.3846 -0.1941
13013TIP3    H160454   3.540   4.751  14.169 -0.3691 -0.6406 -2.0491
13013TIP3    H260455   3.628   4.662  14.083  0.6295 -1.7949  0.0756
13014TIP3   OH260456   6.289   5.903   1.131  0.1671 -0.2928 -0.4434
13014TIP3    H160457   6.328   5.816   1.134 -0.3246 -0.4990  0.2054
13014TIP3    H260458   6.341   5.954   1.194 -1.2424 -0.8608  1.2883
13015TIP3   OH260459   4.558   5.851  16.711 -0.3031  0.2379 -0.0674
13015TIP3    H160460   4.530   5.942  16.717  0.7893  0.5488  0.5034
13015TIP3    H260461   4.611   5.837  16.789  1.5140 -0.1801 -1.3094
13016TIP3   OH260462   0.686   0.807  15.825 -0.4213  0.5243 -0.0681
13016TIP3    H160463   0.698   0.789  15.918  1.4321 -0.5936 -0.4824
13016TIP3    H260464   0.606   0.760  15.802  1.1834 -2.5678  0.1707
13017TIP3   OH260465   0.526   1.552  16.409  0.0441  0.3423 -0.2419
13017TIP3    H160466   0.539   1.646  16.420 -0.0274  0.3285 -0.0439
13017TIP3    H260467   0.501   1.542  16.317  0.4753  0.4715 -0.3743
13018TIP3   OH260468   4.983   4.475  12.487  0.1532 -0.1552 -0.2229
13018TIP3    H160469   4.957   4.469  12.579 -0.9941  2.2918 -0.2939
13018TIP3    H260470   5.071   4.513  12.489 -0.3618  1.0702 -0.1220
13019TIP3   OH260471   4.378   6.159   6.146  0.0618  0.0323  0.3351
13019TIP3    H160472   4.348   6.228   6.205 -0.4777  0.4226 -0.3790
13019TIP3    H260473   4.301   6.139   6.092  0.8533  0.4846 -0.9950
13020TIP3   OH260474   5.781   0.227  13.232  0.1042 -0.4582  0.1526
13020TIP3    H160475   5.740   0.161  13.288 -0.1253 -1.7103 -1.4159
13020TIP3    H260476   5.788   0.304  13.288 -0.7914 -1.4057  1.6668
13021TIP3   OH260477   6.071   4.604  13.367 -0.4603  0.3728 -0.2131
13021TIP3    H160478   6.135   4.546  13.327 -0.6444 -1.2138  1.6578
13021TIP3    H260479   5.992   4.595  13.313 -1.1074 -2.6776  1.0661
13022TIP3   OH260480   3.222   5.797   0.085  0.1018 -0.0751 -0.5583
13022TIP3    H160481   3.214   5.876   0.031 -1.5768 -0.8137 -1.4830
13022TIP3    H260482   3.174   5.818   0.165 -0.7208 -0.2669 -0.9829
13023TIP3   OH260483   6.233   6.367   3.095 -0.2279 -0.8499 -0.5270
13023TIP3    H160484   6.195   6.327   3.174 -1.8716 -1.7388 -1.7179
13023TIP3    H260485   6.324   6.383   3.119 -0.8859 -0.1963  1.8844
13024TIP3   OH260486   4.224   3.858   0.389  0.4660 -0.7618 -0.3922
13024TIP3    H160487   4.142   3.900   0.416 -0.0681 -2.6945  1.2739
13024TIP3    H260488   4.252   3.907   0.312 -2.3887 -0.1799 -1.1792
13025TIP3   OH260489   6.775   6.109  14.530 -0.2306 -0.3243 -1.0240
13025TIP3    H160490   6.831   6.186  14.528 -1.3294  0.5018 -2.0481
13025TIP3    H260491   6.833   6.037  14.552  0.6221  0.9473  1.1114
13026TIP3   OH260492   4.247   1.413   5.142  0.0965  0.5332 -0.0021
13026TIP3    H160493   4.257   1.326   5.104 -0.7801  1.3316 -2.1837
13026TIP3    H260494   4.336   1.439   5.167  0.5387 -0.4968 -0.4656
13027TIP3   OH260495   3.132   6.294   3.832  0.8645  0.2884  0.0172
13027TIP3    H160496   3.204   6.357   3.836 -1.6031  3.2959  0.5825
13027TIP3    H260497   3.122   6.264   3.922  0.2066  1.3846  0.3243
13028TIP3   OH260498   5.019   0.262  11.394  0.3496  0.5111  0.4214
13028TIP3    H160499   5.081   0.291  11.327  0.9549 -0.9702  0.2853
13028TIP3    H260500   4.950   0.218  11.344 -0.3036  1.2739  0.6412
13029TIP3   OH260501   4.471   2.904  14.390 -0.2640 -0.0285  0.0365
13029TIP3    H160502   4.490   2.954  14.469 -1.6876  0.0042  0.3944
13029TIP3    H260503   4.483   2.813  14.415 -2.0989 -0.1216  0.7723
13030TIP3   OH260504   3.580   6.291  16.055 -0.6393 -0.2938 -0.4249
13030TIP3    H160505   3.496   6.248  16.042 -0.2222 -0.6778 -2.0886
13030TIP3    H260506   3.563   6.383  16.035 -0.7552 -0.2863 -0.2971
13031TIP3   OH260507   0.476   5.898  12.929 -0.1669 -0.1903 -0.1736
13031TIP3    H160508   0.551   5.849  12.896  1.1320  1.5821 -0.0137
13031TIP3    H260509   0.428   5.924  12.850 -0.4619 -1.0789 -0.2944
13032TIP3   OH260510   5.590   0.666   6.142  0.2616 -0.0482 -0.1835
13032TIP3    H160511   5.607   0.646   6.234  0.1619  0.7610  0.0211
13032TIP3    H260512   5.496   0.655   6.132  0.3050 -0.3571 -0.2438
13033TIP3   OH260513   2.146   1.369   2.558  0.0356  0.2869 -0.0319
13033TIP3    H160514   2.111   1.302   2.499  1.7462 -0.5457 -0.1516
13033TIP3    H260515   2.241   1.362   2.549  0.2803  2.6910  0.0273
13034TIP3   OH260516   2.688   5.836  13.180 -0.8544  0.0585  0.2520
13034TIP3    H160517   2.646   5.771  13.237 -1.0743 -0.7206 -0.7629
13034TIP3    H260518   2.703   5.789  13.098 -0.9896  1.2941 -0.4999
13035TIP3   OH260519   5.353   5.009   5.302 -0.4862 -0.0169 -0.0638
13035TIP3    H160520   5.293   4.978   5.370 -2.1052 -0.9695 -1.8211
13035TIP3    H260521   5.300   5.069   5.250  1.1389  1.8028  0.2850
13036TIP3   OH260522   5.397   3.856  14.186  0.3206 -0.3775  0.2304
13036TIP3    H160523   5.396   3.829  14.094  0.1905  0.6630 -0.0927
13036TIP3    H260524   5.460   3.798  14.228  1.9416  0.4397 -0.9491
13037TIP3   OH260525   2.361   6.248   0.638  0.8303 -0.3734  0.2227
13037TIP3    H160526   2.380   6.165   0.682 -1.0092 -1.1355 -0.3257
13037TIP3    H260527   2.298   6.291   0.696  1.3798  0.4237  0.2455
13038TIP3   OH260528   3.143   2.384   3.677  0.0716  0.2997 -0.3473
13038TIP3    H160529   3.055   2.380   3.716  0.7326  1.5952  1.4393
13038TIP3    H260530   3.138   2.456   3.614 -0.6699 -1.0001 -1.8445
13039TIP3   OH260531   1.270   1.776   2.756  0.2931 -0.0155  0.0809
13039TIP3    H160532   1.189   1.794   2.709  0.5155  1.9180  0.3646
13039TIP3    H260533   1.338   1.781   2.689  0.6417  3.0136  0.5229
13040TIP3   OH260534   5.977   3.891  14.110  0.1013  0.0914 -0.6180
13040TIP3    H160535   5.932   3.960  14.160 -0.1547  0.4201 -1.2815
13040TIP3    H260536   6.019   3.837  14.176 -0.6941  0.1928 -0.0119
13041TIP3   OH260537   1.323   1.838  13.945 -0.0792 -0.2691 -0.6103
13041TIP3    H160538   1.378   1.912  13.970 -3.5636  1.9602  1.1268
13041TIP3    H260539   1.296   1.857  13.855 -0.8892  0.5984 -0.2015
13042TIP3   OH260540   0.631   6.776  12.933 -0.7816  0.1244  0.2432
13042TIP3    H160541   0.723   6.795  12.952 -0.4546 -1.1513  0.0413
13042TIP3    H260542   0.634   6.719  12.856 -1.5601 -1.9839  1.6804
13043TIP3   OH260543   5.273   0.940   1.353 -0.2819 -0.0019 -0.3890
13043TIP3    H160544   5.342   0.920   1.416 -0.9567 -1.8863 -0.1785
13043TIP3    H260545   5.246   1.030   1.374  1.2360  0.3183  0.3152
13044TIP3   OH260546   6.157   1.956   1.038 -0.0742 -0.0666 -0.5019
13044TIP3    H160547   6.244   1.957   0.998  0.0292 -0.0843 -0.2760
13044TIP3    H260548   6.134   2.049   1.047  0.3738 -0.0316  0.4220
13045TIP3   OH260549   0.272   5.914  15.906  0.3101  0.3055 -0.6594
13045TIP3    H160550   0.323   5.994  15.894 -0.6944  0.8610 -1.4631
13045TIP3    H260551   0.192   5.943  15.951  0.7997 -0.5900  0.8582
13046TIP3   OH260552   6.209   3.798  13.441  0.0927  0.9042 -0.3064
13046TIP3    H160553   6.280   3.851  13.477  0.6196 -0.3999  0.6649
13046TIP3    H260554   6.220   3.713  13.483 -1.1196  0.2217 -1.3262
13047TIP3   OH260555   4.106   1.193  15.431 -0.2717 -0.5576 -0.5676
13047TIP3    H160556   4.055   1.148  15.364 -1.6835 -0.6837  0.5408
13047TIP3    H260557   4.181   1.229  15.384  1.1487 -4.3051 -1.4467
13048TIP3   OH260558   5.886   3.201  11.226 -0.2296 -0.7128 -0.3846
13048TIP3    H160559   5.965   3.176  11.274  0.6505  0.6175 -1.0748
13048TIP3    H260560   5.817   3.145  11.262  0.6907 -0.7774  1.3817
13049TIP3   OH260561   2.670   4.028  11.498  0.1634 -0.0826  0.2442
13049TIP3    H160562   2.708   4.116  11.500 -0.1246  0.0838 -1.0516
13049TIP3    H260563   2.723   3.981  11.434  0.5833 -0.9989  1.2337
13050TIP3   OH260564   4.239   1.092   3.343 -0.0809 -0.0643 -0.5652
13050TIP3    H160565   4.229   1.182   3.372 -0.4044  0.1212 -1.2513
13050TIP3    H260566   4.160   1.048   3.373 -1.5287  0.6373 -3.0471
13051TIP3   OH260567   4.189   0.388   0.177 -0.7520  0.7058 -0.2080
13051TIP3    H160568   4.174   0.294   0.175 -1.0553  0.7328  0.4585
13051TIP3    H260569   4.250   0.401   0.250 -0.6336  1.0177 -0.3605
13052TIP3   OH260570   4.239   3.619   0.282 -0.6105  0.2894  0.2181
13052TIP3    H160571   4.198   3.641   0.198 -1.1797 -1.3342  0.0308
13052TIP3    H260572   4.249   3.703   0.327  1.1985  1.4532 -2.1094
13053TIP3   OH260573   1.450   2.153  11.069  0.7267 -0.1662  0.0554
13053TIP3    H160574   1.361   2.166  11.101  0.3485 -1.7671 -0.2126
13053TIP3    H260575   1.503   2.141  11.147  0.5144 -0.2290  0.1896
13054TIP3   OH260576   6.288   1.161  11.928  0.2508 -0.3337 -0.1248
13054TIP3    H160577   6.221   1.097  11.907 -0.7800 -1.9595  6.0529
13054TIP3    H260578   6.246   1.246  11.914 -2.1041 -1.2601  0.8119
13055TIP3   OH260579   2.418   0.984   3.477  0.3705 -0.1505 -0.2784
13055TIP3    H160580   2.511   0.984   3.502 -0.0715  1.5189  1.5785
13055TIP3    H260581   2.371   0.989   3.559 -1.2635  3.0233 -1.2609
13056TIP3   OH260582   3.104   2.637   3.975  0.3614 -0.5261 -0.5361
13056TIP3    H160583   3.014   2.638   3.944  0.7307 -0.4428 -1.6715
13056TIP3    H260584   3.097   2.632   4.070 -0.8593  1.1409 -0.4844
13057TIP3   OH260585   1.310   1.129   3.597 -0.2796  0.5080  0.0951
13057TIP3    H160586   1.268   1.132   3.511 -0.6860  0.7208  0.3011
13057TIP3    H260587   1.244   1.091   3.655 -0.3267  1.1885  0.4948
13058TIP3   OH260588   2.882   5.487   2.079 -0.0051  0.0453 -0.0884
13058TIP3    H160589   2.835   5.442   2.149 -2.1060  1.7579 -0.2898
13058TIP3    H260590   2.826   5.478   2.002  0.8255  0.7058 -0.8002
13059TIP3   OH260591   1.638   3.646  14.926 -0.1696  0.0821  0.0351
13059TIP3    H160592   1.652   3.623  15.018  0.1305 -0.5743 -0.1742
13059TIP3    H260593   1.573   3.584  14.894  0.7966 -0.6411 -0.5852
13060TIP3   OH260594   3.871   2.372  16.083 -0.2990  0.4943  0.0654
13060TIP3    H160595   3.810   2.401  16.015  1.5564  0.9821 -1.4693
13060TIP3    H260596   3.842   2.283  16.105 -1.9351  0.9500 -0.1150
13061TIP3   OH260597   2.141   5.686  15.535 -0.1318  0.2505 -0.0519
13061TIP3    H160598   2.172   5.684  15.625  0.4003  1.1515 -0.2066
13061TIP3    H260599   2.050   5.716  15.541 -0.0563  0.4320  0.1640
13062TIP3   OH260600   0.348   3.487   6.256 -0.2525 -0.3252  0.3174
13062TIP3    H160601   0.405   3.476   6.332  0.5082  0.8823 -0.0457
13062TIP3    H260602   0.381   3.426   6.191  1.1904  0.9334 -0.1855
13063TIP3   OH260603   3.269   2.769   3.790  0.2124  0.3770 -0.2861
13063TIP3    H160604   3.210   2.729   3.855  0.8804  1.4995  1.0460
13063TIP3    H260605   3.239   2.733   3.706 -0.7517 -1.0248  0.6106
13064TIP3   OH260606   3.508   0.957  16.248  0.1956 -0.0849  0.5643
13064TIP3    H160607   3.488   1.000  16.332 -2.3077 -1.4947  0.8130
13064TIP3    H260608   3.459   1.008  16.183  0.1045 -0.4560  0.3395
13065TIP3   OH260609   2.240   3.152  16.606  0.1058  0.1132  0.3734
13065TIP3    H160610   2.177   3.083  16.590 -0.6280  0.9676 -0.5280
13065TIP3    H260611   2.193   3.216  16.660  0.2299  0.6933 -0.1941
13066TIP3   OH260612   4.650   5.128  13.370  0.1547  0.0969 -0.1877
13066TIP3    H160613   4.578   5.184  13.344  1.5464  1.6237 -0.9383
13066TIP3    H260614   4.651   5.133  13.466 -0.9599 -0.2746 -0.1482
13067TIP3   OH260615   4.339   3.288  14.658 -1.1936 -0.2821  0.8123
13067TIP3    H160616   4.320   3.231  14.732  2.6112 -0.4830  1.8663
13067TIP3    H260617   4.368   3.370  14.698  1.2836 -0.5050 -0.3320
13068TIP3   OH260618   5.948   6.560   4.776 -0.1437  0.0709  0.2745
13068TIP3    H160619   5.950   6.656   4.779 -1.8763  0.1250  1.5496
13068TIP3    H260620   6.022   6.532   4.828  0.7175  0.6919 -0.5801
13069TIP3   OH260621   0.648   3.971  15.757 -0.0353 -1.1266 -0.1049
13069TIP3    H160622   0.673   3.929  15.839 -0.5117 -0.7754  0.2256
13069TIP3    H260623   0.636   4.063  15.780 -0.2199 -1.0336 -0.5617
13070TIP3   OH260624   2.274   4.778  10.506 -0.2170 -0.3107  0.2762
13070TIP3    H160625   2.313   4.760  10.420 -2.8428 -2.0864 -0.6851
13070TIP3    H260626   2.211   4.848  10.490  0.1086  0.1657  1.0332
13071TIP3   OH260627   1.517   6.304  16.096  0.1942 -0.6992  0.2515
13071TIP3    H160628   1.518   6.236  16.164 -1.1999 -0.9641  0.0358
13071TIP3    H260629   1.428   6.339  16.099  0.8247  0.9759  0.1911
13072TIP3   OH260630   6.770   5.539   2.185  0.5835 -1.0665 -0.1132
13072TIP3    H160631   6.801   5.511   2.271  2.8106  0.0502 -0.4749
13072TIP3    H260632   6.850   5.563   2.137 -0.7325  0.1033 -1.8536
13073TIP3   OH260633   4.367   2.789  12.955  0.2823  0.1148  0.0709
13073TIP3    H160634   4.353   2.882  12.972 -1.0489 -0.2407  1.1435
13073TIP3    H260635   4.396   2.754  13.039 -0.8499 -0.7076  0.1490
13074TIP3   OH260636   2.974   5.199  13.397 -0.0837 -0.0087  0.5209
13074TIP3    H160637   2.948   5.288  13.420  1.2119  0.2888  0.8928
13074TIP3    H260638   2.932   5.183  13.313 -0.8594  0.7111  0.7551
13075TIP3   OH260639   2.070   4.221   5.085 -0.0514 -0.1869  0.3821
13075TIP3    H160640   2.123   4.275   5.027 -0.7108 -0.3837 -0.4236
13075TIP3    H260641   2.133   4.181   5.145  0.2533  3.6286  2.9373
13076TIP3   OH260642   1.835   4.810  13.631 -0.2541  0.3759 -0.0260
13076TIP3    H160643   1.769   4.846  13.571  0.0517 -0.0182 -0.6044
13076TIP3    H260644   1.911   4.794  13.576  0.7983  2.0367  0.8655
13077TIP3   OH260645   3.010   2.059  11.376 -0.0821  0.7894  0.0013
13077TIP3    H160646   2.920   2.044  11.406 -0.3153  2.0832 -0.0101
13077TIP3    H260647   3.001   2.116  11.300  0.7916  1.6368  0.5156
13078TIP3   OH260648   1.625   6.805   1.329 -0.1123 -0.0897 -0.0906
13078TIP3    H160649   1.608   6.817   1.422  0.1981  2.3553 -0.2875
13078TIP3    H260650   1.563   6.736   1.302 -0.8909 -0.1375  1.7001
13079TIP3   OH260651   5.443   5.541   4.881 -0.9485  0.1250  0.1564
13079TIP3    H160652   5.349   5.555   4.896 -1.1536  1.0947 -1.7282
13079TIP3    H260653   5.454   5.556   4.787  1.7737  4.2642  0.8888
13080TIP3   OH260654   4.692   4.258   5.745 -0.3686 -0.8498  0.0730
13080TIP3    H160655   4.691   4.344   5.703 -0.9787  2.0099  5.1446
13080TIP3    H260656   4.607   4.220   5.723 -0.1440 -0.1841 -2.1623
13081TIP3   OH260657   6.021   5.401   0.249  0.2188  0.1513  0.1267
13081TIP3    H160658   6.092   5.462   0.231 -0.1712  0.4764 -0.3431
13081TIP3    H260659   6.063   5.316   0.259  0.6447  0.2941 -0.4267
13082TIP3   OH260660   3.322   3.915  15.854  0.2179  0.1947 -0.6068
13082TIP3    H160661   3.372   3.942  15.777  0.4309  0.0552 -0.5158
13082TIP3    H260662   3.279   3.995  15.884  0.3811  0.3111 -0.6854
13083TIP3   OH260663   1.546   4.775   2.505 -0.4110 -0.1687 -0.3364
13083TIP3    H160664   1.633   4.738   2.519 -0.5447 -0.3294  0.0739
13083TIP3    H260665   1.494   4.703   2.471 -0.3309 -0.0177 -0.7897
13084TIP3   OH260666   2.229   6.065   5.261 -0.1547 -0.5026 -0.1126
13084TIP3    H160667   2.283   6.068   5.182  2.3941  0.5137  1.5200
13084TIP3    H260668   2.265   6.135   5.317 -1.7683 -1.2460  1.9828
13085TIP3   OH260669   1.716   6.014   1.602 -0.4546 -0.0386  0.1959
13085TIP3    H160670   1.809   6.038   1.603 -0.6877  0.8678  0.5523
13085TIP3    H260671   1.713   5.928   1.644  0.0214  0.7234  1.8844
13086TIP3   OH260672   1.744   3.983   0.699 -0.1527  0.0187  0.5140
13086TIP3    H160673   1.806   3.974   0.771 -1.0370 -2.0565  1.0828
13086TIP3    H260674   1.660   3.954   0.736 -0.9854  0.5400 -0.8817
13087TIP3   OH260675   6.040   4.258   3.510  0.2283 -0.3118  0.2403
13087TIP3    H160676   5.960   4.243   3.460  0.0208 -2.2984  1.0785
13087TIP3    H260677   6.021   4.337   3.562 -1.8239 -1.5895  1.5727
13088TIP3   OH260678   4.311   3.152   1.120 -0.1366  0.2141  0.3862
13088TIP3    H160679   4.306   3.078   1.059 -0.9302  0.0437  0.6513
13088TIP3    H260680   4.284   3.116   1.204 -1.2471  0.9605  0.3742
13089TIP3   OH260681   0.181   6.034  13.350  0.1026 -0.1988  0.0257
13089TIP3    H160682   0.268   6.014  13.318 -0.3055 -1.2979 -0.4413
13089TIP3    H260683   0.125   6.030  13.272 -0.4812 -0.2492  0.4396
13090TIP3   OH260684   5.261   2.548   2.184  0.0921 -0.3155  0.2270
13090TIP3    H160685   5.239   2.640   2.172 -0.9279 -0.5189  0.4506
13090TIP3    H260686   5.315   2.546   2.262  1.9853  0.3378 -1.0029
13091TIP3   OH260687   1.172   0.118   4.515  0.3320  0.0274  0.2641
13091TIP3    H160688   1.207   0.104   4.603  2.8305  1.2122 -0.4512
13091TIP3    H260689   1.123   0.200   4.521 -2.2728 -1.4907  1.2064
13092TIP3   OH260690   3.347   5.581  12.497  0.7673  0.1958  0.1862
13092TIP3    H160691   3.332   5.488  12.486 -0.9169  0.3308  1.0289
13092TIP3    H260692   3.395   5.607  12.418  1.0350 -1.3143 -0.1817
13093TIP3   OH260693   0.116   5.639  16.144  0.1208 -0.1211 -0.4550
13093TIP3    H160694   0.047   5.704  16.128  0.0700  0.0597  0.4238
13093TIP3    H260695   0.174   5.682  16.208 -0.9275 -1.6057  1.6148
13094TIP3   OH260696   0.060   2.687  11.941  0.6874  0.6818  0.0774
13094TIP3    H160697   0.003   2.614  11.916 -0.9839  1.6006  1.0350
13094TIP3    H260698   0.139   2.675  11.888  0.2311 -1.4872 -0.2031
13095TIP3   OH260699   5.971   4.778  14.650  0.4437  0.2296  0.1865
13095TIP3    H160700   5.948   4.728  14.728  0.4036  1.7962  1.2180
13095TIP3    H260701   6.042   4.835  14.678  1.6883 -0.4298 -1.4283
13096TIP3   OH260702   4.713   6.197   2.477 -0.0184  0.1283 -0.1149
13096TIP3    H160703   4.698   6.274   2.531  2.4440  0.9707 -0.4833
13096TIP3    H260704   4.775   6.227   2.410  2.0360 -2.4133  0.4755
13097TIP3   OH260705   2.660   6.598  12.444 -0.1304  0.2878  0.0720
13097TIP3    H160706   2.621   6.581  12.358  0.4741 -0.3712 -0.0890
13097TIP3    H260707   2.736   6.654  12.425 -0.1694  0.3875  0.2103
13098TIP3   OH260708   5.923   0.265   4.365  0.1058  0.0234  0.0258
13098TIP3    H160709   5.992   0.322   4.330 -1.5118  1.9691 -0.1781
13098TIP3    H260710   5.879   0.230   4.288  1.5848 -2.2818  0.1283
13099TIP3   OH260711   0.012   5.505  11.481  0.6812 -0.4731 -0.0578
13099TIP3    H160712  -0.047   5.472  11.412  0.6104 -0.3077 -0.0770
13099TIP3    H260713   0.060   5.428  11.510  0.1690 -0.6888  0.2364
13100TIP3   OH260714   6.041   6.653   5.330  0.0200 -0.4874 -0.1905
13100TIP3    H160715   6.111   6.710   5.300 -0.2700  0.4696  0.8970
13100TIP3    H260716   6.074   6.614   5.411 -1.0956  0.8772  0.9825
13101TIP3   OH260717   3.661   0.145   3.121  0.5247  0.2224 -0.1962
13101TIP3    H160718   3.746   0.183   3.097  1.0413 -0.6516  0.1855
13101TIP3    H260719   3.652   0.069   3.063 -0.2803  0.6457 -0.6377
13102TIP3   OH260720   3.539   5.212   0.176 -0.2971 -0.3896  0.3670
13102TIP3    H160721   3.623   5.230   0.218  0.1149  0.6681 -0.8509
13102TIP3    H260722   3.521   5.121   0.198  0.1783 -0.0547  2.3139
13103TIP3   OH260723   3.725   1.908   4.587 -0.3626  0.2329 -0.1431
13103TIP3    H160724   3.747   1.954   4.668 -2.9772  1.2782  0.0987
13103TIP3    H260725   3.678   1.829   4.616 -1.0030  0.4314 -0.5929
13104TIP3   OH260726   1.681   0.205  14.586 -0.1400  0.0469 -0.0338
13104TIP3    H160727   1.588   0.181  14.586 -0.1082 -0.1621  1.4792
13104TIP3    H260728   1.708   0.193  14.495 -1.3473 -0.8679 -0.3039
13105TIP3   OH260729   0.570   5.276   5.220  0.7190 -0.4197 -0.1522
13105TIP3    H160730   0.546   5.197   5.268  1.1437 -0.5163 -0.0923
13105TIP3    H260731   0.535   5.263   5.132 -0.1047 -0.2221  0.1438
13106TIP3   OH260732   3.397   0.828   2.621 -0.5868  0.0296 -0.4604
13106TIP3    H160733   3.443   0.865   2.546  0.5345 -0.2173  0.0928
13106TIP3    H260734   3.446   0.749   2.644  0.5670  1.3443  2.0038
13107TIP3   OH260735   5.878   1.990   2.420 -0.4224 -0.0800  0.1505
13107TIP3    H160736   5.872   2.055   2.350 -1.8801 -1.4098 -1.0534
13107TIP3    H260737   5.798   2.002   2.471 -1.0222 -1.2345 -0.4469
13108TIP3   OH260738   3.901   0.516  12.158  0.0981  0.7098 -0.4817
13108TIP3    H160739   3.852   0.462  12.095  0.0041 -0.7289  0.7680
13108TIP3    H260740   3.977   0.463  12.181 -1.2662 -0.0981  2.6695
13109TIP3   OH260741   0.681   0.155  11.837 -0.4789  0.0362  0.5936
13109TIP3    H160742   0.776   0.146  11.833 -0.3360  1.4623  0.4363
13109TIP3    H260743   0.649   0.066  11.856  0.8691 -0.4603  0.6101
13110TIP3   OH260744   4.027   0.315  16.251  0.3372  0.3096  0.7476
13110TIP3    H160745   4.056   0.357  16.170  0.4130  0.2180  0.7271
13110TIP3    H260746   4.103   0.317  16.309  1.4061 -2.5825 -0.3413
13111TIP3   OH260747   2.992   2.739  11.445  0.2154  0.1817 -0.3842
13111TIP3    H160748   2.921   2.712  11.387 -0.7891  0.9799  0.4287
13111TIP3    H260749   3.040   2.806  11.396  0.2742 -0.2013 -0.8488
13112TIP3   OH260750   0.925   5.174   5.864  0.1211 -0.0998  0.0875
13112TIP3    H160751   0.926   5.096   5.808 -1.5487  1.3658 -2.1504
13112TIP3    H260752   1.005   5.221   5.841  0.5643 -0.5667  0.6273
13113TIP3   OH260753   6.710   1.158  14.548 -0.2315 -0.0331 -0.0561
13113TIP3    H160754   6.676   1.115  14.626 -2.3713 -0.2184 -1.0117
13113TIP3    H260755   6.642   1.221  14.524  0.8126  0.6861 -1.2389
13114TIP3   OH260756   5.251   3.522  14.245  0.7500 -0.1684  0.4008
13114TIP3    H160757   5.236   3.615  14.259  0.8608 -0.0853 -0.0276
13114TIP3    H260758   5.341   3.507  14.275  0.7534 -0.1269  0.4102
13115TIP3   OH260759   2.212   5.179   3.707  0.4136 -0.4787 -0.1794
13115TIP3    H160760   2.153   5.160   3.634 -0.2042 -0.9751  0.4358
13115TIP3    H260761   2.249   5.093   3.730  0.1575 -0.4209  0.4626
13116TIP3   OH260762   1.636   3.812   2.745  0.4414  0.5631  0.1123
13116TIP3    H160763   1.603   3.784   2.830  1.3731 -0.2036  0.2408
13116TIP3    H260764   1.698   3.743   2.720  0.1672  0.7640 -1.1912
13117TIP3   OH260765   4.229   5.182  14.636 -0.2540  0.1703  0.6175
13117TIP3    H160766   4.319   5.164  14.609  0.3236  1.7580  1.3311
13117TIP3    H260767   4.186   5.097  14.635  0.6202 -0.3518 -1.9002
13118TIP3   OH260768   0.977   4.299  11.194 -0.2718  0.3894 -0.2439
13118TIP3    H160769   0.891   4.258  11.205 -0.0120  0.0017  0.4203
13118TIP3    H260770   1.003   4.278  11.105 -1.0873  0.9365 -0.6237
13119TIP3   OH260771   3.473   1.598  14.737  0.0920 -0.3481  0.5000
13119TIP3    H160772   3.385   1.614  14.703 -0.7632  0.9412  3.0504
13119TIP3    H260773   3.516   1.683  14.733  1.0743 -0.8508 -0.2001
13120TIP3   OH260774   3.004   3.830  11.164  0.5983  0.4557  0.5977
13120TIP3    H160775   3.074   3.780  11.207  2.4196 -1.3024 -3.8666
13120TIP3    H260776   3.044   3.915  11.145  0.7941  0.2329 -0.0123
13121TIP3   OH260777   2.308   4.489  11.064  0.3308  0.4371  0.8263
13121TIP3    H160778   2.341   4.446  11.143  0.9107  0.2893  0.5121
13121TIP3    H260779   2.332   4.429  10.993 -1.2109  0.0075  0.6419
13122TIP3   OH260780   2.499   5.447  16.009 -0.0598  0.0632  0.1946
13122TIP3    H160781   2.471   5.355  16.009 -0.3800  0.1011  2.1867
13122TIP3    H260782   2.420   5.495  16.035 -0.1722  1.0453 -1.8332
13123TIP3   OH260783   1.669   6.000  12.241 -0.6825  0.1907  0.3233
13123TIP3    H160784   1.705   5.931  12.297 -1.5280 -0.2249  0.3821
13123TIP3    H260785   1.653   5.956  12.157 -3.0377 -0.2574  0.9179
13124TIP3   OH260786   2.824   1.129  13.742 -0.3876  0.1264 -0.0324
13124TIP3    H160787   2.897   1.071  13.722 -0.7693 -0.0849 -0.9034
13124TIP3    H260788   2.769   1.079  13.802  1.0050  0.9379  2.0145
13125TIP3   OH260789   2.936   2.791  12.917 -0.3117  0.1897 -0.2098
13125TIP3    H160790   2.963   2.858  12.979  0.7068 -0.6491  0.3043
13125TIP3    H260791   2.953   2.829  12.831 -0.4449  0.8488  0.0490
13126TIP3   OH260792   2.694   1.321  14.173 -0.5259 -0.0050  0.2396
13126TIP3    H160793   2.772   1.369  14.200 -0.1477  0.4676 -1.5249
13126TIP3    H260794   2.664   1.367  14.095 -1.3280 -1.4505 -0.3456
13127TIP3   OH260795   6.744   3.279   2.228  0.1771  0.4579  0.0790
13127TIP3    H160796   6.654   3.301   2.206  0.1366 -0.3125 -0.5869
13127TIP3    H260797   6.785   3.258   2.144  1.2244  1.6284  0.2571
13128TIP3   OH260798   2.966   3.322   4.589  0.3893  0.0302  0.1793
13128TIP3    H160799   2.893   3.342   4.530  0.4799  1.2426  0.4598
13128TIP3    H260800   3.018   3.402   4.590  0.6685 -0.1540  1.5045
13129TIP3   OH260801   1.134   5.396   4.025  0.6205  0.4930  0.2591
13129TIP3    H160802   1.184   5.319   3.999  3.6203  1.6661  2.1084
13129TIP3    H260803   1.127   5.390   4.120  0.5139  2.2359  0.4040
13130TIP3   OH260804   0.339   2.031  11.360  0.3093 -0.1542  0.0882
13130TIP3    H160805   0.399   1.968  11.320  1.0127  1.3881 -1.3999
13130TIP3    H260806   0.251   1.997  11.339  0.6693 -0.0692 -1.6972
13131TIP3   OH260807   3.774   2.035  14.835 -0.0354 -0.1667 -0.1035
13131TIP3    H160808   3.787   1.994  14.920 -1.2753 -0.1650  0.1009
13131TIP3    H260809   3.683   2.065  14.836  0.1315  0.4300 -1.1735
13132TIP3   OH260810   3.137   4.026   3.686 -0.5075 -0.0201 -0.2774
13132TIP3    H160811   3.206   4.047   3.749  0.2950 -0.3756 -1.0158
13132TIP3    H260812   3.081   3.964   3.733  0.0365 -0.2272  0.1237
13133TIP3   OH260813   4.758   4.973   1.237  0.0537  0.1270 -0.9086
13133TIP3    H160814   4.676   4.926   1.252 -0.0590  0.4514 -0.4497
13133TIP3    H260815   4.739   5.031   1.163 -0.2306  0.4068 -0.6249
13134TIP3   OH260816   4.068   0.682  11.929  0.4296  0.6849  0.1502
13134TIP3    H160817   4.033   0.765  11.959  0.9375  0.6882  0.7736
13134TIP3    H260818   4.040   0.619  11.996  1.1416  0.5926  0.3658
13135TIP3   OH260819   2.130   5.421   1.599  0.0978 -0.1069 -0.1206
13135TIP3    H160820   2.142   5.417   1.504  1.9353 -1.0419  0.0814
13135TIP3    H260821   2.136   5.514   1.621 -1.0474  0.1831 -0.9755
13136TIP3   OH260822   2.948   6.022  10.840 -0.3012 -0.3330  0.4857
13136TIP3    H160823   2.877   6.037  10.778 -0.4561  1.4785  1.0213
13136TIP3    H260824   2.910   5.965  10.906 -0.7202 -0.7643 -0.1198
13137TIP3   OH260825   3.861   6.321  11.739  0.3827  0.0765 -0.1489
13137TIP3    H160826   3.824   6.396  11.693 -0.4197  0.0321  0.3886
13137TIP3    H260827   3.785   6.280  11.781  0.5445 -1.9582 -1.7107
13138TIP3   OH260828   3.033   5.250  12.358 -0.3816 -0.1200  0.4288
13138TIP3    H160829   3.049   5.190  12.431 -0.3230 -0.5469  0.0686
13138TIP3    H260830   2.969   5.204  12.304 -2.6346  1.3947  1.6536
13139TIP3   OH260831   1.747   0.416   5.483 -0.1610  0.3944 -0.2163
13139TIP3    H160832   1.786   0.397   5.568 -0.8201 -0.8534 -0.1652
13139TIP3    H260833   1.654   0.432   5.503 -0.2379  0.5017 -0.6534
13140TIP3   OH260834   0.751   4.789  16.788 -0.1809 -0.2941 -0.2601
13140TIP3    H160835   0.836   4.778  16.746  0.6463  0.5595  1.1095
13140TIP3    H260836   0.718   4.700  16.800  0.9008 -0.6832 -0.0897
13141TIP3   OH260837   1.759   5.910  11.033  0.3681 -0.0156  0.2456
13141TIP3    H160838   1.665   5.900  11.023  0.4953 -1.8423  0.5517
13141TIP3    H260839   1.777   6.001  11.008 -1.3715  0.1581 -0.4577
13142TIP3   OH260840   3.523   2.697  13.175  0.2625 -0.3854 -0.1537
13142TIP3    H160841   3.609   2.733  13.194 -0.1200  1.2000 -1.1505
13142TIP3    H260842   3.464   2.773  13.182 -1.0283 -1.4133  0.4179
13143TIP3   OH260843   6.652   4.422   6.481  0.3972 -0.1967  0.0002
13143TIP3    H160844   6.581   4.362   6.459  0.6326 -0.4005 -0.2052
13143TIP3    H260845   6.732   4.372   6.466  0.6228  0.4332 -1.0234
13144TIP3   OH260846   5.782   3.388   3.304 -0.0543 -0.9449 -0.1699
13144TIP3    H160847   5.745   3.461   3.255  0.9500  0.6279  1.2989
13144TIP3    H260848   5.870   3.416   3.327  1.0016 -3.3394 -0.9625
13145TIP3   OH260849   5.368   4.070  16.925 -0.0853 -0.4008  0.6881
13145TIP3    H160850   5.316   4.041  16.850  0.5321  0.6135 -0.1668
13145TIP3    H260851   5.307   4.124  16.976  0.2441  1.3180 -0.6481
13146TIP3   OH260852   4.206   6.070  11.595  0.3942  0.1472 -0.9260
13146TIP3    H160853   4.278   6.132  11.612 -0.1280  0.1846  1.6066
13146TIP3    H260854   4.160   6.064  11.679  0.2661 -3.5189 -1.1235
13147TIP3   OH260855   3.186   4.937   3.041 -0.0336  0.6496 -0.5082
13147TIP3    H160856   3.252   4.996   3.078  0.0926 -0.3334  0.9132
13147TIP3    H260857   3.211   4.850   3.072 -0.0288 -0.2405 -2.8331
13148TIP3   OH260858   2.961   3.002  17.027  0.1718  0.4486  0.2840
13148TIP3    H160859   2.880   3.040  17.061 -0.3675 -0.8619  0.5146
13148TIP3    H260860   2.997   2.954  17.102 -0.2085 -1.1572 -0.5294
13149TIP3   OH260861   4.929   5.137  13.003  0.1288 -0.1320  0.0562
13149TIP3    H160862   4.925   5.143  13.099 -0.7998  1.3861 -0.0340
13149TIP3    H260863   4.912   5.045  12.984  2.2227 -0.8615  1.3988
13150TIP3   OH260864   6.507   5.524   4.228  0.5328  0.0692  0.0487
13150TIP3    H160865   6.422   5.559   4.255 -0.0151  0.3386 -1.8473
13150TIP3    H260866   6.569   5.561   4.290 -0.6413  0.4540  1.0369
13151TIP3   OH260867   4.802   5.503  14.974 -0.0457 -0.0712 -0.1129
13151TIP3    H160868   4.798   5.467  14.885 -2.0576  0.9973 -0.5125
13151TIP3    H260869   4.803   5.426  15.031 -0.5261 -0.7713 -1.0238
13152TIP3   OH260870   2.668   2.218   0.909 -0.2052 -0.4148  0.6906
13152TIP3    H160871   2.727   2.147   0.933  0.0242 -0.4985 -0.0842
13152TIP3    H260872   2.722   2.297   0.917  0.1137 -0.5168 -0.2865
13153TIP3   OH260873   5.405   0.235   5.291 -1.0912 -0.2572  0.6559
13153TIP3    H160874   5.333   0.202   5.344 -0.0506 -0.2703  2.1486
13153TIP3    H260875   5.472   0.166   5.295 -0.3406  0.4533  0.7272
13154TIP3   OH260876   2.507   5.177  16.005  0.2437 -0.2105 -1.0338
13154TIP3    H160877   2.429   5.133  16.039 -0.5067  0.4187 -1.8881
13154TIP3    H260878   2.580   5.127  16.040 -0.4545  0.5905  1.7728
13155TIP3   OH260879   4.554   3.930  11.507 -0.5967  0.0921  0.3899
13155TIP3    H160880   4.494   3.858  11.528 -0.3930  0.3313  1.9524
13155TIP3    H260881   4.630   3.915  11.564  0.2118  0.5907 -0.5256
13156TIP3   OH260882   6.317   4.566  13.604  0.1805  0.0641 -0.0846
13156TIP3    H160883   6.324   4.496  13.669  2.2326  1.2764  1.0949
13156TIP3    H260884   6.383   4.544  13.538  0.0126  0.3017 -0.3359
13157TIP3   OH260885   4.979   4.188  16.492  0.7162 -0.0540 -0.0576
13157TIP3    H160886   5.070   4.210  16.476  0.2534  2.0529 -0.1113
13157TIP3    H260887   4.979   4.145  16.577  1.8043 -0.4968 -0.2680
13158TIP3   OH260888   2.232   0.552   5.609 -0.3644  0.3334 -0.1049
13158TIP3    H160889   2.161   0.586   5.662  0.5606  3.3136 -0.6084
13158TIP3    H260890   2.311   0.593   5.645  0.8528 -1.1251 -0.9706
13159TIP3   OH260891   1.578   2.081  11.307  0.2112 -0.1786  0.0543
13159TIP3    H160892   1.635   2.075  11.383  0.2394 -0.4562  0.0100
13159TIP3    H260893   1.505   2.135  11.337  0.9444  0.9748 -0.1698
13160TIP3   OH260894   6.107   4.769  16.334 -0.3055 -0.5463 -0.2570
13160TIP3    H160895   6.053   4.709  16.283 -1.8399  0.8756 -0.4093
13160TIP3    H260896   6.175   4.799  16.273 -1.4670  0.2999 -1.1687
13161TIP3   OH260897   2.843   2.650  16.722 -0.4200 -0.3826  0.1229
13161TIP3    H160898   2.892   2.675  16.801  0.5328 -2.8171  0.3968
13161TIP3    H260899   2.776   2.590  16.754 -0.6123 -0.6913 -0.8324
13162TIP3   OH260900   4.909   4.692   5.417 -0.0198  0.4979  0.1248
13162TIP3    H160901   4.933   4.753   5.347  1.0991  0.0477  0.0994
13162TIP3    H260902   4.857   4.745   5.477 -2.6348  0.4834 -1.9032
13163TIP3   OH260903   0.092   1.673   4.408  0.3334 -0.7777 -0.3754
13163TIP3    H160904   0.149   1.601   4.435 -0.4240 -1.4187 -0.4288
13163TIP3    H260905   0.005   1.647   4.438 -0.4797 -1.3000 -2.9040
13164TIP3   OH260906   6.283   6.557  16.608 -0.2281 -0.1795  0.2431
13164TIP3    H160907   6.308   6.592  16.694  0.7262 -1.7298  0.6313
13164TIP3    H260908   6.331   6.475  16.601 -0.7635 -0.3727 -1.5351
13165TIP3   OH260909   3.412   5.807   3.004 -0.4642  0.0937  0.9427
13165TIP3    H160910   3.382   5.809   2.913  1.0628 -0.6081  0.3920
13165TIP3    H260911   3.433   5.898   3.024  0.6557  0.0423  0.0623
13166TIP3   OH260912   5.649   1.716  12.474 -0.7069 -0.0362  0.0418
13166TIP3    H160913   5.645   1.764  12.557 -0.4468 -0.7708  0.4879
13166TIP3    H260914   5.618   1.628  12.496 -1.1473 -0.0886 -0.7578
13167TIP3   OH260915   3.814   0.948   4.483 -0.1576 -0.0785  0.4042
13167TIP3    H160916   3.731   0.995   4.485  0.5436  1.1865  1.8483
13167TIP3    H260917   3.805   0.878   4.548 -0.0893  0.0641  0.5669
13168TIP3   OH260918   2.487   6.415  11.213 -0.9762  0.2052 -0.9835
13168TIP3    H160919   2.430   6.392  11.287 -0.9964  0.2478 -0.9862
13168TIP3    H260920   2.466   6.351  11.146 -1.2164  0.3913 -1.0842
13169TIP3   OH260921   2.572   5.918  14.629  0.6337  0.3814 -0.6589
13169TIP3    H160922   2.490   5.957  14.660  0.3375 -1.2280  0.7783
13169TIP3    H260923   2.641   5.974  14.665  0.1844  0.6274 -0.1627
13170TIP3   OH260924   3.161   5.606  12.201  0.1726  0.0897 -0.4756
13170TIP3    H160925   3.187   5.681  12.255  0.1933  0.3717 -0.8722
13170TIP3    H260926   3.114   5.644  12.128 -0.7978 -0.3714 -0.1059
13171TIP3   OH260927   1.688   0.182  15.703 -0.0536  0.2463 -0.1950
13171TIP3    H160928   1.778   0.192  15.674 -0.0858  0.2738 -0.2863
13171TIP3    H260929   1.693   0.178  15.799  0.0527  0.1552 -0.2038
13172TIP3   OH260930   0.535   1.284  14.930 -0.0483  0.1558  0.1887
13172TIP3    H160931   0.543   1.235  14.848 -2.2115 -0.1360  0.1034
13172TIP3    H260932   0.514   1.373  14.903  1.6974  0.6831  0.4120
13173TIP3   OH260933   6.206   3.726   6.224 -0.3581 -0.6318  0.8709
13173TIP3    H160934   6.255   3.704   6.303  0.9206 -0.7970  0.0598
13173TIP3    H260935   6.170   3.642   6.195  1.0365 -0.9892  0.0782
13174TIP3   OH260936   4.257   5.233   5.645 -0.7539  0.0803 -0.0567
13174TIP3    H160937   4.336   5.279   5.673  1.0256 -2.0101 -1.3369
13174TIP3    H260938   4.206   5.298   5.597  0.4647  1.3340  0.3000
13175TIP3   OH260939   3.648   5.069   3.625 -0.4578 -0.6044  0.1305
13175TIP3    H160940   3.611   5.139   3.679 -0.2872 -1.1332  0.9560
13175TIP3    H260941   3.661   4.996   3.686  1.6082 -0.5625 -0.2159
13176TIP3   OH260942   5.113   6.602   4.958 -0.9464  0.6424 -0.0403
13176TIP3    H160943   5.139   6.635   4.872 -0.7603  2.1701  0.5704
13176TIP3    H260944   5.194   6.601   5.009 -1.1642  0.3149  0.3052
13177TIP3   OH260945   2.847   2.785   4.046  0.6280  0.4360  0.1781
13177TIP3    H160946   2.884   2.823   4.125  1.6062 -1.8069  0.8713
13177TIP3    H260947   2.757   2.761   4.071  0.3238  1.3737  0.0220
13178TIP3   OH260948   0.682   3.730   5.827  0.3491 -0.5269 -0.6299
13178TIP3    H160949   0.747   3.771   5.771  0.4161  1.1531  0.5958
13178TIP3    H260950   0.612   3.794   5.834  0.4416 -0.5630  1.3648
13179TIP3   OH260951   2.556   0.390  13.942 -0.1464 -0.1316  0.4695
13179TIP3    H160952   2.635   0.442  13.925 -1.2257  1.0072 -1.4198
13179TIP3    H260953   2.486   0.454  13.949 -1.2022 -1.2058  0.1690
13180TIP3   OH260954   5.692   4.909  12.525 -1.0404  0.1788  0.2439
13180TIP3    H160955   5.766   4.849  12.536 -1.7064 -1.1253 -1.8314
13180TIP3    H260956   5.660   4.924  12.614  2.3433  1.7047  1.3616
13181TIP3   OH260957   4.011   3.352   5.462 -0.1918 -0.1675 -0.4570
13181TIP3    H160958   4.013   3.292   5.387  0.2281 -1.2589  0.3925
13181TIP3    H260959   4.019   3.439   5.424  1.1116 -0.7596 -1.6112
13182TIP3   OH260960   1.071   4.565  15.556  0.5446 -0.1090 -0.3258
13182TIP3    H160961   0.985   4.530  15.531 -0.8661  2.6942  0.2258
13182TIP3    H260962   1.109   4.597  15.475  1.9531 -2.8625 -0.8776
13183TIP3   OH260963   1.320   2.645  13.014 -0.3276  0.2095 -0.1552
13183TIP3    H160964   1.260   2.632  12.940 -1.1857  1.6585  0.2398
13183TIP3    H260965   1.389   2.701  12.980 -0.4465  0.4468 -0.0132
13184TIP3   OH260966   3.242   6.740   0.187  0.3600 -0.3503 -0.1551
13184TIP3    H160967   3.263   6.719   0.278 -1.0694  1.1111  0.5555
13184TIP3    H260968   3.302   6.811   0.165  2.3004 -2.1988 -1.1770
13185TIP3   OH260969   0.966   4.634   2.401 -0.0546 -0.0008 -0.3296
13185TIP3    H160970   0.889   4.686   2.379  1.2092  1.8068 -0.7642
13185TIP3    H260971   0.982   4.653   2.494  0.1157 -0.0092 -0.3563
13186TIP3   OH260972   3.093   1.809  16.380  0.3198 -0.3158 -0.3645
13186TIP3    H160973   3.164   1.817  16.317  2.4771  0.2334  1.9780
13186TIP3    H260974   3.134   1.773  16.459 -1.4784  2.1362  1.8833
13187TIP3   OH260975   1.603   3.887   4.792  0.3549 -0.4200 -0.4504
13187TIP3    H160976   1.580   3.794   4.793 -1.1375 -0.1203  2.0673
13187TIP3    H260977   1.643   3.901   4.706 -1.3695 -2.9013 -1.7743
13188TIP3   OH260978   1.228   1.970  14.498  0.2051 -0.6483  0.3506
13188TIP3    H160979   1.156   1.996  14.440  0.4677  0.7589  0.5997
13188TIP3    H260980   1.301   1.952  14.439  0.0756 -0.5948  0.1737
13189TIP3   OH260981   6.424   1.599  12.760 -0.3721 -0.2742 -0.0358
13189TIP3    H160982   6.385   1.666  12.704  2.8590  2.2859  0.4296
13189TIP3    H260983   6.455   1.532  12.699 -1.6638 -0.2704 -0.7358
13190TIP3   OH260984   6.082   5.208   4.347  0.1634 -0.3941 -0.1601
13190TIP3    H160985   6.089   5.235   4.255  0.7040 -0.6309 -0.1960
13190TIP3    H260986   6.011   5.261   4.382 -0.9713 -1.2600 -1.0639
13191TIP3   OH260987   5.521   1.998  13.173 -0.1806 -0.2191 -0.0130
13191TIP3    H160988   5.590   1.943  13.210  0.7304  0.9472  0.0910
13191TIP3    H260989   5.449   1.993  13.237  1.0080  1.0117  1.5129
13192TIP3   OH260990   3.232   2.112  15.978 -0.3159 -0.5252  0.2833
13192TIP3    H160991   3.287   2.162  16.039  0.1852  0.2002 -0.7268
13192TIP3    H260992   3.189   2.179  15.925  0.6012 -1.1490 -1.3133
13193TIP3   OH260993   0.634   3.266  16.893 -0.2456  0.1046  0.1483
13193TIP3    H160994   0.565   3.312  16.845 -0.6920 -0.4265  0.2761
13193TIP3    H260995   0.712   3.275  16.838 -1.1155 -1.9005 -1.5175
13194TIP3   OH260996   6.755   6.536   1.268  1.3208  0.2255  0.7285
13194TIP3    H160997   6.663   6.548   1.292  1.6211  0.1219  2.0065
13194TIP3    H260998   6.764   6.441   1.257  1.0167  0.3267 -0.5859
13195TIP3   OH260999   0.747   3.531   5.280 -0.1651  0.2169 -0.0467
13195TIP3    H161000   0.727   3.506   5.190 -0.4920 -2.2009  0.6283
13195TIP3    H261001   0.668   3.576   5.310 -0.3432  0.3699 -0.7294
13196TIP3   OH261002   2.164   3.793   4.505  1.2581  0.3757  0.1892
13196TIP3    H161003   2.092   3.787   4.443  0.8447  2.4781  0.3984
13196TIP3    H261004   2.124   3.824   4.586  1.9946 -1.0781  1.1734
13197TIP3   OH261005   6.310   5.559   1.328  0.0369 -0.4030 -0.2911
13197TIP3    H161006   6.326   5.547   1.234  0.3451  0.1757 -0.3203
13197TIP3    H261007   6.245   5.493   1.350  0.6400 -1.1501 -0.7180
13198TIP3   OH261008   6.121   6.614  16.288 -0.3170  0.1367  0.1415
13198TIP3    H161009   6.154   6.703  16.301  0.2175  0.2469 -1.7004
13198TIP3    H261010   6.030   6.617  16.319 -0.9750  1.9004 -1.7313
13199TIP3   OH261011   4.708   3.805  12.646 -0.5307 -0.3933 -0.1587
13199TIP3    H161012   4.775   3.858  12.690 -0.9345 -1.3825  1.7761
13199TIP3    H261013   4.698   3.845  12.560  2.3301 -0.0418 -0.4116
13200TIP3   OH261014   3.452   5.851   0.821 -0.8415 -0.8873  0.2180
13200TIP3    H161015   3.534   5.868   0.867 -0.5719  0.0777 -0.5895
13200TIP3    H261016   3.477   5.804   0.742 -0.7270  1.4985 -1.2697
13201TIP3   OH261017   2.891   5.856  14.517  0.6550 -0.1038  0.2926
13201TIP3    H161018   2.887   5.774  14.469 -1.6371  0.3098 -0.3499
13201TIP3    H261019   2.915   5.831  14.606  0.2461 -1.4506  0.0406
13202TIP3   OH261020   3.188   4.601  16.164 -0.0972  0.5208  0.1413
13202TIP3    H161021   3.265   4.547  16.183 -0.2761  0.0506 -0.4355
13202TIP3    H261022   3.123   4.574  16.229 -0.6212 -0.8976 -0.9226
13203TIP3   OH261023   3.268   4.177   2.984  0.1920 -0.1963  0.2531
13203TIP3    H161024   3.238   4.089   2.962 -0.6038  0.0735  0.2225
13203TIP3    H261025   3.349   4.164   3.032  1.2569 -0.8685 -1.6387
13204TIP3   OH261026   6.607   4.650   3.021 -0.1848 -0.2683 -0.4776
13204TIP3    H161027   6.531   4.594   3.004  0.8551 -2.0360  0.4461
13204TIP3    H261028   6.625   4.638   3.114 -0.6620  2.6418  0.0967
13205TIP3   OH261029   1.652   1.748   2.865  0.3316 -0.0881  0.4225
13205TIP3    H161030   1.713   1.695   2.814  0.2305  0.1289  0.0756
13205TIP3    H261031   1.676   1.838   2.844  0.3495  0.0033  0.8304
13206TIP3   OH261032   6.008   2.460  11.577  0.5092  0.2998 -0.1902
13206TIP3    H161033   6.070   2.396  11.613  3.1597  1.3837 -2.4714
13206TIP3    H261034   6.013   2.534  11.637  1.3573  0.3155 -0.2649
13207TIP3   OH261035   0.389   1.304   3.442 -0.1908 -0.2372 -0.2901
13207TIP3    H161036   0.380   1.390   3.402  2.9819  0.4954  0.3037
13207TIP3    H261037   0.375   1.320   3.536 -0.1864 -0.4918 -0.2463
13208TIP3   OH261038   4.170   5.626   5.634 -0.0305  0.1568  0.1573
13208TIP3    H161039   4.253   5.602   5.674  1.0225 -0.1241 -2.0364
13208TIP3    H261040   4.188   5.708   5.589 -0.5197 -0.5894 -1.4670
13209TIP3   OH261041   2.740   5.317   4.935 -0.0767 -0.1036 -0.1700
13209TIP3    H161042   2.665   5.350   4.884 -0.6752  0.3928  0.9933
13209TIP3    H261043   2.816   5.342   4.884 -0.6239  1.2379 -0.3729
13210TIP3   OH261044   4.372   5.140  11.630 -0.3162  0.0198  0.3100
13210TIP3    H161045   4.415   5.082  11.568  2.3805 -0.3069  2.3276
13210TIP3    H261046   4.398   5.228  11.604  0.0080 -0.0451  0.4202
13211TIP3   OH261047   3.499   3.854  15.447 -0.8065 -0.1084  0.3179
13211TIP3    H161048   3.532   3.895  15.527 -0.0967 -1.0496  0.5244
13211TIP3    H261049   3.574   3.854  15.388 -0.6755 -1.4047  0.4519
13212TIP3   OH261050   5.798   4.386   4.693 -0.6253 -0.3118  0.1306
13212TIP3    H161051   5.877   4.414   4.739 -0.3177 -0.7525 -0.1251
13212TIP3    H261052   5.726   4.426   4.743 -0.2573 -0.1141  0.5089
13213TIP3   OH261053   1.877   3.218  13.421 -0.4292  0.1047  0.3597
13213TIP3    H161054   1.919   3.135  13.443 -0.9556  0.1771  1.7495
13213TIP3    H261055   1.936   3.258  13.357 -0.7009 -1.7774 -1.1762
13214TIP3   OH261056   1.826   1.355  15.596 -1.0474 -0.2123  0.5983
13214TIP3    H161057   1.877   1.433  15.615 -0.8071 -0.1661 -0.1984
13214TIP3    H261058   1.837   1.300  15.674 -0.5919  0.2183  0.8456
13215TIP3   OH261059   2.697   1.541   0.725 -0.4841  0.1146 -0.4098
13215TIP3    H161060   2.645   1.584   0.792 -0.6962 -1.0972  0.2249
13215TIP3    H261061   2.721   1.457   0.763  3.6123  1.3021  0.1446
13216TIP3   OH261062   2.153   4.144   1.652 -0.6237  0.3314 -0.6683
13216TIP3    H161063   2.109   4.223   1.682  1.9454  0.7382  2.5483
13216TIP3    H261064   2.237   4.175   1.617 -0.7705 -0.7915 -2.1246
13217TIP3   OH261065   4.686   2.972  15.748 -0.3119  0.3568  0.2054
13217TIP3    H161066   4.608   2.982  15.803 -0.5181 -1.1380  0.2128
13217TIP3    H261067   4.755   2.945  15.809  0.0525  0.9692  0.0786
13218TIP3   OH261068   3.440   0.516   0.212  0.3965 -0.3138  0.2838
13218TIP3    H161069   3.399   0.433   0.189 -0.0145  0.4417 -2.0314
13218TIP3    H261070   3.380   0.582   0.176  0.6314  1.0121  2.1981
13219TIP3   OH261071   1.973   1.300  14.405  0.3116 -0.1762  0.0597
13219TIP3    H161072   1.940   1.277  14.318  0.2103 -0.5669  0.2013
13219TIP3    H261073   1.897   1.291  14.462  0.1690  0.8849  0.0583
13220TIP3   OH261074   5.680   0.425  16.163 -0.4543  0.3143  0.1180
13220TIP3    H161075   5.728   0.435  16.080 -1.5843  1.0343 -0.4729
13220TIP3    H261076   5.604   0.483  16.154 -1.1311 -0.3615  1.2612
13221TIP3   OH261077   5.872   1.746  14.631  0.0285  0.0069 -0.5030
13221TIP3    H161078   5.940   1.689  14.593 -0.0076  1.2089 -2.4904
13221TIP3    H261079   5.795   1.689  14.638  0.6531 -0.8269 -0.1414
13222TIP3   OH261080   6.301   6.258  12.529 -0.4051  0.4287  0.4640
13222TIP3    H161081   6.321   6.190  12.464 -0.4439  0.8026  0.0523
13222TIP3    H261082   6.239   6.315  12.484  0.1131  1.0878  0.5809
13223TIP3   OH261083   1.959   0.128  15.654  0.5813 -0.4058  0.3206
13223TIP3    H161084   1.998   0.124  15.741  1.1335 -0.8243  0.0610
13223TIP3    H261085   1.957   0.037  15.625 -1.8329 -0.5705  0.8503
13224TIP3   OH261086   2.916   0.561  15.170  0.1856 -0.4229  0.4769
13224TIP3    H161087   2.982   0.601  15.227  0.3917  0.5908 -0.4343
13224TIP3    H261088   2.957   0.561  15.083 -1.3813  1.2338 -0.3332
13225TIP3   OH261089   3.133   1.804  11.376  0.4347 -0.2700 -0.1713
13225TIP3    H161090   3.113   1.897  11.374 -0.6396 -0.4045  1.8759
13225TIP3    H261091   3.049   1.761  11.392  1.3014 -1.3597  1.8474
13226TIP3   OH261092   0.430   0.123   0.430 -0.3273 -0.5750  0.0102
13226TIP3    H161093   0.434   0.090   0.520  0.3041 -1.2197 -0.2488
13226TIP3    H261094   0.515   0.099   0.392  0.3729  1.7815 -0.0519
13227TIP3   OH261095   4.620   0.881   3.848 -0.4420  0.0423 -0.1963
13227TIP3    H161096   4.688   0.926   3.798 -1.1174  0.7373 -0.5282
13227TIP3    H261097   4.555   0.854   3.783 -0.0764 -1.4077  0.0079
13228TIP3   OH261098   4.774   2.903  17.173 -0.3631  0.3031 -0.1261
13228TIP3    H161099   4.766   2.819  17.218  0.8125 -0.5598 -1.4556
13228TIP3    H261100   4.700   2.905  17.112  1.8423 -1.7864 -3.1440
13229TIP3   OH261101   6.611   1.110  12.410  0.0276  0.0841 -0.5269
13229TIP3    H161102   6.636   1.163  12.485  0.7549 -2.0990  0.8654
13229TIP3    H261103   6.536   1.156  12.372 -1.0372  0.7596  2.1617
13230TIP3   OH261104   3.524   4.400  13.153  0.2518  0.0292 -0.7512
13230TIP3    H161105   3.573   4.341  13.095  1.4622  0.3365 -0.0817
13230TIP3    H261106   3.520   4.483  13.106  2.6165  0.7557  0.1835
13231TIP3   OH261107   3.926   3.569  10.734 -0.7934 -0.9006  0.3729
13231TIP3    H161108   3.848   3.624  10.725 -0.5601 -0.6725 -0.2441
13231TIP3    H261109   3.934   3.556  10.829 -0.2888  0.9320  0.6216
13232TIP3   OH261110   4.640   4.679   3.674  0.1221 -0.5596  0.3661
13232TIP3    H161111   4.635   4.624   3.753  0.8365  0.6904  1.3279
13232TIP3    H261112   4.651   4.768   3.708  2.1638 -0.1617 -1.1367
13233TIP3   OH261113   0.455   0.203   3.380  0.0212  0.3078  0.4266
13233TIP3    H161114   0.459   0.242   3.293  2.1564  1.1945  0.8557
13233TIP3    H261115   0.363   0.178   3.391 -0.7868  2.3095 -1.1422
13234TIP3   OH261116   5.607   6.665   3.144 -0.0151 -0.2616 -0.4954
13234TIP3    H161117   5.512   6.664   3.143 -0.1852  3.1433 -0.3858
13234TIP3    H261118   5.632   6.700   3.058  1.0254  0.4278  0.0586
13235TIP3   OH261119   2.654   0.620  15.192 -0.2723 -0.0216 -0.4154
13235TIP3    H161120   2.652   0.665  15.108  0.9878 -1.1218 -1.0854
13235TIP3    H261121   2.742   0.582  15.196  0.1070  0.9012  1.8928
13236TIP3   OH261122   3.915   2.805   0.789 -0.3268  0.3095 -0.2708
13236TIP3    H161123   3.979   2.757   0.842 -0.4560 -0.2626 -0.6232
13236TIP3    H261124   3.928   2.897   0.813 -0.3117  0.0719  0.6630
13237TIP3   OH261125   5.622   4.616  12.494 -0.4608  0.3977 -0.4977
13237TIP3    H161126   5.602   4.610  12.400 -0.0596  1.2582 -0.6471
13237TIP3    H261127   5.715   4.637  12.497 -0.9080  2.5126  0.0170
13238TIP3   OH261128   0.352   3.444   1.186 -0.4349  0.0611 -0.0168
13238TIP3    H161129   0.418   3.452   1.117 -0.7255  1.3503 -0.1728
13238TIP3    H261130   0.280   3.396   1.144 -0.1101 -0.2582 -0.2187
13239TIP3   OH261131   3.045   5.024  10.490  0.2861 -0.4400  0.0664
13239TIP3    H161132   3.032   5.119  10.491  0.1118 -0.4639 -0.0593
13239TIP3    H261133   2.969   4.989  10.443  0.1616 -0.6731  0.4420
13240TIP3   OH261134   4.306   6.399  16.500 -0.3652  0.2374  0.1001
13240TIP3    H161135   4.216   6.409  16.530 -0.4756 -0.9616  0.2138
13240TIP3    H261136   4.312   6.457  16.424 -1.0701  0.7236  0.4030
13241TIP3   OH261137   5.651   4.693  16.773  0.3669  0.1055 -0.2553
13241TIP3    H161138   5.646   4.599  16.759 -1.3780  0.0811  0.2145
13241TIP3    H261139   5.591   4.709  16.846 -2.9093  2.0509 -3.0379
13242TIP3   OH261140   5.134   2.543  13.157  0.1801  0.2996  0.3158
13242TIP3    H161141   5.068   2.605  13.188  1.1280  0.4253  2.1846
13242TIP3    H261142   5.130   2.471  13.221 -1.0307 -1.7367 -1.8812
13243TIP3   OH261143   2.259   5.279   0.528 -0.2139  0.4363  0.3816
13243TIP3    H161144   2.311   5.359   0.537 -0.5293  0.4430  2.4860
13243TIP3    H261145   2.312   5.210   0.567  0.3534 -0.6034 -2.0238
13244TIP3   OH261146   4.062   6.039  10.008  0.1016 -0.0153 -0.3131
13244TIP3    H161147   4.012   6.075  10.081 -2.0068 -0.7933 -1.2691
13244TIP3    H261148   4.041   5.946  10.009  0.0720 -0.0453 -1.8573
13245TIP3   OH261149   3.923   0.722  16.975 -0.5335 -0.1790 -0.0966
13245TIP3    H161150   3.994   0.775  16.938  0.3604 -0.8158  0.6515
13245TIP3    H261151   3.966   0.641  17.004 -1.5802 -0.6012  0.3194
13246TIP3   OH261152   0.648   2.051  11.214 -0.7373 -0.3971  0.5913
13246TIP3    H161153   0.585   2.119  11.191 -0.8663 -0.7848 -0.2494
13246TIP3    H261154   0.594   1.975  11.236 -0.5776 -0.9048 -0.6872
13247TIP3   OH261155   6.073   2.102   3.628 -0.2490  0.1799  0.1353
13247TIP3    H161156   6.129   2.081   3.703  1.4626  2.4918 -0.3584
13247TIP3    H261157   6.109   2.050   3.557  0.1945  0.3483  0.2274
13248TIP3   OH261158   1.087   1.457  11.791  0.4992  0.5348 -0.3720
13248TIP3    H161159   1.028   1.515  11.744  0.4462  2.9966  2.4552
13248TIP3    H261160   1.164   1.511  11.810  0.1417  0.0666  3.0332
13249TIP3   OH261161   4.509   2.524  15.973  0.1853 -0.5382  0.0619
13249TIP3    H161162   4.420   2.553  15.955  0.4426  0.3896  0.2502
13249TIP3    H261163   4.500   2.431  15.994 -0.8747 -0.1892  1.2311
13250TIP3   OH261164   1.637   2.674  11.732 -0.3674 -0.5877 -0.3077
13250TIP3    H161165   1.690   2.659  11.809  0.2420  0.1403 -0.5714
13250TIP3    H261166   1.639   2.769  11.719  1.0964 -0.8092 -2.2682
13251TIP3   OH261167   4.515   6.784   4.478 -0.8258  0.7415 -0.7840
13251TIP3    H161168   4.485   6.724   4.546  0.3180  0.3064 -0.6372
13251TIP3    H261169   4.470   6.866   4.497 -0.7333  0.5506  0.3413
13252TIP3   OH261170   6.636   2.016   1.990 -0.1596 -0.2373  0.1751
13252TIP3    H161171   6.729   2.010   1.969  0.4238 -0.1550  2.4387
13252TIP3    H261172   6.625   1.958   2.065 -2.1721 -1.0191 -0.6815
13253TIP3   OH261173   3.880   2.111   3.875 -0.3200 -0.4195 -0.1881
13253TIP3    H161174   3.858   2.167   3.948  1.7818  0.3994 -0.1208
13253TIP3    H261175   3.798   2.104   3.824 -1.9469 -1.3622  2.3736
13254TIP3   OH261176   2.147   1.863  14.124  0.2453 -0.3420 -0.7632
13254TIP3    H161177   2.169   1.838  14.034  0.1547 -1.0615 -0.5952
13254TIP3    H261178   2.198   1.803  14.179 -1.4617 -1.5135 -0.3573
13255TIP3   OH261179   1.693   2.754  16.134 -0.0252 -0.7834  0.0311
13255TIP3    H161180   1.611   2.704  16.128 -0.6511 -0.0577  1.7740
13255TIP3    H261181   1.727   2.732  16.221 -0.3107  1.7547  0.8542
13256TIP3   OH261182   5.555   6.494   4.310 -0.4385  0.0426  0.1609
13256TIP3    H161183   5.503   6.440   4.370 -0.7923  0.9899  0.7272
13256TIP3    H261184   5.613   6.432   4.267 -1.6799 -0.9672 -0.1068
13257TIP3   OH261185   1.596   0.097   2.169  0.8693 -0.8736  0.1778
13257TIP3    H161186   1.524   0.042   2.140 -0.0251 -0.1156  0.8885
13257TIP3    H261187   1.560   0.148   2.242  2.0014 -0.1876  0.2952
13258TIP3   OH261188   3.306   1.187  16.965 -0.0189 -0.0182  0.2565
13258TIP3    H161189   3.394   1.202  17.000  0.7774 -2.1091 -0.6415
13258TIP3    H261190   3.316   1.194  16.870 -0.6790 -0.8451  0.1118
13259TIP3   OH261191   3.475   4.909   0.223 -0.3798  0.2430 -0.5426
13259TIP3    H161192   3.397   4.922   0.276 -0.1734  1.8363 -0.5769
13259TIP3    H261193   3.527   4.845   0.272 -1.3265 -0.2149 -0.1155
13260TIP3   OH261194   2.379   5.879  13.425 -0.9295 -0.2564  0.4721
13260TIP3    H161195   2.357   5.892  13.332 -0.1132  1.5220  0.4773
13260TIP3    H261196   2.354   5.789  13.443  1.5955 -1.7057 -2.2840
13261TIP3   OH261197   5.348   6.732  14.483  0.4822  0.5966  0.1414
13261TIP3    H161198   5.428   6.768  14.520  1.0183 -0.2750 -0.1284
13261TIP3    H261199   5.378   6.677  14.410 -0.3148 -0.1429  0.3523
13262TIP3   OH261200   1.467   2.197   1.664 -0.7676 -0.7372  0.7834
13262TIP3    H161201   1.408   2.225   1.594 -1.4453  0.7387  1.8852
13262TIP3    H261202   1.443   2.253   1.738  0.9941 -1.1792  1.7184
13263TIP3   OH261203   0.286   3.938  13.649 -0.3029 -0.1815  0.3751
13263TIP3    H161204   0.283   3.902  13.738 -0.6276  0.9349  0.8394
13263TIP3    H261205   0.346   4.012  13.656  2.2396 -1.9645 -1.1010
13264TIP3   OH261206   2.126   5.432   2.158  0.1763  0.3087  0.2233
13264TIP3    H161207   2.051   5.453   2.101 -1.7760 -0.0428  2.4921
13264TIP3    H261208   2.201   5.474   2.116 -1.8852  3.7372 -0.4024
13265TIP3   OH261209   6.479   4.626  11.091 -0.6399 -0.2904 -0.2536
13265TIP3    H161210   6.511   4.596  11.006 -1.1952 -1.3668 -0.1072
13265TIP3    H261211   6.508   4.717  11.098  1.7251 -0.9713 -0.4384
13266TIP3   OH261212   6.173   2.203  13.422  0.4793  0.0172  0.5264
13266TIP3    H161213   6.085   2.182  13.453  1.8625 -0.1282  5.2820
13266TIP3    H261214   6.170   2.296  13.400 -1.1685 -0.3685 -1.0586
13267TIP3   OH261215   5.908   1.380   5.808 -0.2581  0.7006  0.3237
13267TIP3    H161216   5.931   1.472   5.821 -0.6813  1.0367 -1.1900
13267TIP3    H261217   5.886   1.348   5.896 -1.6670  2.4619  0.6493
13268TIP3   OH261218   3.537   2.039  13.343  0.0519  0.1286 -0.2181
13268TIP3    H161219   3.539   2.113  13.404  2.9200 -1.1244  1.3990
13268TIP3    H261220   3.462   1.987  13.372 -0.1680  0.8527  0.5812
13269TIP3   OH261221   2.197   1.081   0.520 -0.0334 -0.4143 -0.0455
13269TIP3    H161222   2.207   1.028   0.598  0.6439 -1.9651 -1.1421
13269TIP3    H261223   2.205   1.171   0.551  2.2642 -1.0427  1.3820
13270TIP3   OH261224   1.448   4.903   4.849  0.6348 -0.3270  0.2591
13270TIP3    H161225   1.417   4.817   4.880  1.4307 -0.7328 -0.0538
13270TIP3    H261226   1.396   4.919   4.770  0.7508 -0.6983  0.1038
13271TIP3   OH261227   1.157   1.111  11.031 -0.1569 -0.6852 -0.7825
13271TIP3    H161228   1.184   1.180  10.970  0.4388 -0.5500 -0.3746
13271TIP3    H261229   1.173   1.029  10.983  0.2033 -0.5759 -0.8542
13272TIP3   OH261230   0.629   0.787   3.281 -0.4498  0.5931  0.3800
13272TIP3    H161231   0.537   0.790   3.253 -0.1616 -1.3444 -0.9538
13272TIP3    H261232   0.679   0.801   3.200  0.4273  0.4393  0.8840
13273TIP3   OH261233   3.983   5.504   4.535 -0.1362 -0.2373 -0.0417
13273TIP3    H161234   3.944   5.570   4.477  1.9094  0.9166 -0.1741
13273TIP3    H261235   3.953   5.529   4.622  0.4020  0.7315 -0.1188
13274TIP3   OH261236   1.180   3.009   3.112 -0.4025 -0.3716  0.2551
13274TIP3    H161237   1.142   2.999   3.200  0.2699  0.0684  0.5998
13274TIP3    H261238   1.142   2.937   3.062 -1.5334 -0.0764  0.6468
13275TIP3   OH261239   5.194   1.480   3.698  0.1127 -0.3704  0.3110
13275TIP3    H161240   5.233   1.477   3.611  0.4388 -1.2946  0.4829
13275TIP3    H261241   5.262   1.518   3.754  0.4215 -1.0941  0.4295
13276TIP3   OH261242   5.807   1.052  13.007  0.0223 -0.0149 -0.1322
13276TIP3    H161243   5.795   1.086  13.095 -0.3900 -2.1033  0.6622
13276TIP3    H261244   5.734   1.089  12.957 -0.9399 -0.4605  0.9131
13277TIP3   OH261245   2.106   0.868  13.274  0.0843  0.1246  0.1123
13277TIP3    H161246   2.147   0.942  13.318  0.0540 -0.5788  1.3701
13277TIP3    H261247   2.158   0.792  13.303 -0.3381 -0.4318 -0.5680
13278TIP3   OH261248   3.023   6.273   1.662  0.1832  0.1397 -0.6977
13278TIP3    H161249   2.988   6.188   1.692  0.5935 -0.9104 -2.9862
13278TIP3    H261250   2.964   6.300   1.592  0.0264  1.8335  0.0444
13279TIP3   OH261251   6.713   0.893   2.830 -0.7511  0.3396  0.0120
13279TIP3    H161252   6.731   0.888   2.736 -2.6988 -0.4001 -0.3686
13279TIP3    H261253   6.722   0.803   2.862  0.9878  0.7488  0.8012
13280TIP3   OH261254   1.662   4.268   3.871 -0.4017  0.7079 -0.1792
13280TIP3    H161255   1.674   4.210   3.797 -1.2493 -0.1011  0.2976
13280TIP3    H261256   1.743   4.320   3.874 -0.0392  0.2308 -1.1913
13281TIP3   OH261257   4.334   6.486  11.491 -0.5769  0.3187 -0.0865
13281TIP3    H161258   4.329   6.518  11.401  2.6626  3.2008  0.5604
13281TIP3    H261259   4.265   6.533  11.537 -1.1372  0.1312 -0.7152
13282TIP3   OH261260   6.281   5.262  11.343  0.1955  0.0110 -0.3315
13282TIP3    H161261   6.365   5.218  11.333  0.5771  1.1075 -2.3857
13282TIP3    H261262   6.301   5.342  11.392 -0.3366 -1.4467  2.4939
13283TIP3   OH261263   0.425   3.997  10.379  0.6060  1.1450 -0.0811
13283TIP3    H161264   0.450   3.915  10.336  0.9944  0.2838  1.6738
13283TIP3    H261265   0.478   4.064  10.335  1.6260  0.1880 -0.3759
13284TIP3   OH261266   0.287   1.532   3.088 -0.2002 -0.3338 -0.0780
13284TIP3    H161267   0.348   1.508   3.018  1.4880  0.6788  0.9731
13284TIP3    H261268   0.211   1.569   3.043  1.7723  2.4422 -1.4035
13285TIP3   OH261269   5.206   4.086   0.564  0.5268  0.5156  0.5165
13285TIP3    H161270   5.286   4.097   0.512 -0.4843  0.3086 -1.1794
13285TIP3    H261271   5.150   4.159   0.537 -0.0249  0.4169  1.3679
13286TIP3   OH261272   5.664   6.511   5.048 -0.0603  0.9107 -0.1782
13286TIP3    H161273   5.662   6.459   5.128 -0.8692  1.1293 -0.0515
13286TIP3    H261274   5.736   6.573   5.062  2.5072 -1.5508 -1.2516
13287TIP3   OH261275   1.956   2.652  11.146  0.0314  0.8298 -0.3667
13287TIP3    H161276   1.920   2.587  11.207 -1.3317 -0.3577 -2.3094
13287TIP3    H261277   2.051   2.639  11.151 -0.1646 -0.7941 -0.1194
13288TIP3   OH261278   3.517   2.594  13.546  0.2170 -0.4429  0.5576
13288TIP3    H161279   3.461   2.671  13.558  1.6961  0.9570 -0.9426
13288TIP3    H261280   3.501   2.566  13.456  1.6930 -0.1425  0.1663
13289TIP3   OH261281   4.692   5.994  11.636 -0.7049 -0.4453  0.4787
13289TIP3    H161282   4.727   5.953  11.556 -0.4903  0.3488  0.1583
13289TIP3    H261283   4.607   5.952  11.649 -0.3687 -1.2015  0.3210
13290TIP3   OH261284   4.613   4.383  14.716  0.6733 -0.3846  0.2834
13290TIP3    H161285   4.609   4.344  14.803  1.8804 -2.4128 -0.4909
13290TIP3    H261286   4.666   4.462  14.728 -0.1043 -0.0350  1.5612
13291TIP3   OH261287   0.157   3.791  11.955  0.2558 -0.2372 -0.4252
13291TIP3    H161288   0.116   3.778  12.040 -1.0004  0.1939 -0.9431
13291TIP3    H261289   0.176   3.703  11.923  1.5478 -0.3776  0.6635
13292TIP3   OH261290   0.880   0.911   4.532 -0.3592  0.2162  0.9173
13292TIP3    H161291   0.941   0.849   4.491 -0.4996  0.8552 -0.2820
13292TIP3    H261292   0.899   0.903   4.626  1.6024  0.4271  0.5888
13293TIP3   OH261293   2.700   3.737   4.082 -0.1418  0.5502 -0.5834
13293TIP3    H161294   2.768   3.765   4.143 -1.4951  0.6006  0.9671
13293TIP3    H261295   2.618   3.760   4.125 -1.1671  1.0202 -2.6392
13294TIP3   OH261296   2.271   5.654   3.844  0.1614 -0.7759  0.0384
13294TIP3    H161297   2.318   5.621   3.921  1.0087  0.1750 -0.0510
13294TIP3    H261298   2.332   5.716   3.804 -1.1022  0.3316 -0.2028
13295TIP3   OH261299   0.463   2.231  11.108  0.0956 -0.6886  0.0437
13295TIP3    H161300   0.424   2.291  11.045 -0.4027 -0.0893  0.9096
13295TIP3    H261301   0.453   2.274  11.193  3.8276  0.1865  0.2522
13296TIP3   OH261302   0.711   1.707   0.846  0.3881  0.1651 -0.5052
13296TIP3    H161303   0.707   1.803   0.845 -0.1421  0.1729  0.5351
13296TIP3    H261304   0.739   1.683   0.758  0.5470  1.2791 -0.7734
13297TIP3   OH261305   6.557   5.843   5.926  0.8049 -0.4298 -0.7551
13297TIP3    H161306   6.510   5.837   5.842 -0.5707  0.4575 -0.0988
13297TIP3    H261307   6.489   5.825   5.991  1.2678  1.2788  0.2571
13298TIP3   OH261308   6.633   5.719  13.941 -0.3899  0.1372 -0.2265
13298TIP3    H161309   6.694   5.790  13.964  0.1453 -0.9985  2.1464
13298TIP3    H261310   6.690   5.643  13.927 -1.1292 -0.4574 -0.0431
13299TIP3   OH261311   5.198   2.455  16.931 -0.2481  0.0735  0.2184
13299TIP3    H161312   5.224   2.547  16.926  0.1041 -0.0648 -0.8095
13299TIP3    H261313   5.280   2.407  16.935 -0.4069 -0.2237 -0.0235
13300TIP3   OH261314   4.513   5.914   4.434 -0.3564  0.1601  0.4179
13300TIP3    H161315   4.523   5.938   4.342 -0.6919  1.8188  0.7790
13300TIP3    H261316   4.420   5.895   4.444 -0.7954  2.2837  0.8724
13301TIP3   OH261317   5.481   2.001   4.552  0.5343 -0.5052  0.0115
13301TIP3    H161318   5.386   1.990   4.563  0.0073  2.4473 -0.4874
13301TIP3    H261319   5.511   2.034   4.637  1.4286 -2.6751  0.5923
13302TIP3   OH261320   1.722   0.606  14.207  0.3206 -0.4462 -0.0804
13302TIP3    H161321   1.703   0.531  14.151  0.0131 -0.8197  0.5127
13302TIP3    H261322   1.650   0.667  14.191  0.9841  0.0895 -1.1632
13303TIP3   OH261323   4.590   5.885  13.210  0.2134 -0.3110  0.3372
13303TIP3    H161324   4.632   5.802  13.232 -2.2802 -1.5362  0.8071
13303TIP3    H261325   4.609   5.942  13.285  1.2710 -0.6727  0.3663
13304TIP3   OH261326   3.015   6.384   4.734  0.1653 -0.2232 -0.0602
13304TIP3    H161327   2.944   6.440   4.766  0.1057 -0.3829  0.0886
13304TIP3    H261328   3.093   6.439   4.739 -0.3187  0.8116 -2.5628
13305TIP3   OH261329   1.697   4.847  16.858  0.3196 -0.1666  0.2259
13305TIP3    H161330   1.605   4.864  16.877 -0.2689 -1.0294 -1.5948
13305TIP3    H261331   1.725   4.922  16.804  0.2424 -0.6172 -0.4537
13306TIP3   OH261332   6.182   5.258  16.048  0.0842 -0.4953  0.0547
13306TIP3    H161333   6.208   5.177  16.004 -0.6191 -0.9177  0.3880
13306TIP3    H261334   6.145   5.313  15.978  1.5653  0.0006 -0.3696
13307TIP3   OH261335   6.039   0.659   1.155  0.7249  0.6938 -0.0937
13307TIP3    H161336   5.949   0.645   1.124 -0.3411 -1.9543  3.5141
13307TIP3    H261337   6.089   0.586   1.120  0.5885  0.2258  0.6595
13308TIP3   OH261338   4.947   0.347  15.309 -0.1601 -0.0952 -0.2257
13308TIP3    H161339   5.034   0.310  15.297  0.3458  0.4380  1.4515
13308TIP3    H261340   4.956   0.404  15.385 -1.2685  2.2805 -1.7440
13309TIP3   OH261341   6.758   2.328  12.569 -0.0676 -0.7254 -0.0379
13309TIP3    H161342   6.748   2.423  12.560 -0.6278 -0.6684  1.0225
13309TIP3    H261343   6.835   2.317  12.624 -0.1860 -0.8711  0.1013
13310TIP3   OH261344   5.394   1.859   3.724  0.3560 -0.1925  0.5718
13310TIP3    H161345   5.310   1.829   3.691 -1.2911  3.2246  1.1776
13310TIP3    H261346   5.382   1.864   3.819  1.5773 -0.5101  0.7595
13311TIP3   OH261347   3.710   6.575  11.690 -0.0820 -0.6408 -0.1371
13311TIP3    H161348   3.700   6.562  11.784 -1.1539 -0.1705 -0.1791
13311TIP3    H261349   3.662   6.655  11.671  2.3502  0.8126 -0.6653
13312TIP3   OH261350   3.766   0.090  14.289  0.1209 -0.1870 -0.3055
13312TIP3    H161351   3.795   0.107  14.199  3.1783 -0.9345  0.4163
13312TIP3    H261352   3.825   0.141  14.343  0.2896 -2.0249  1.3534
13313TIP3   OH261353   5.470   1.506   1.662 -0.0456  0.5728  0.2216
13313TIP3    H161354   5.436   1.476   1.578  0.7429 -0.1377  0.1453
13313TIP3    H261355   5.550   1.455   1.675 -0.4190  0.3097  1.6371
13314TIP3   OH261356   0.738   2.560   2.358 -0.2773 -0.2367 -0.6844
13314TIP3    H161357   0.682   2.590   2.286 -1.3240 -1.9806 -0.6460
13314TIP3    H261358   0.774   2.477   2.327  0.9356  0.0186 -0.0029
13315TIP3   OH261359   6.657   5.282   0.124 -0.1551 -0.8053  0.3322
13315TIP3    H161360   6.742   5.282   0.168  0.0514 -0.4691 -0.0589
13315TIP3    H261361   6.676   5.259   0.033 -0.2511  0.9295 -0.1571
13316TIP3   OH261362   0.183   2.122  12.962  0.0478  0.3587 -0.3483
13316TIP3    H161363   0.136   2.191  12.915  0.7278  0.7659 -0.4372
13316TIP3    H261364   0.174   2.144  13.054 -1.0175 -0.2688 -0.2761
13317TIP3   OH261365   0.727   6.603   3.658 -0.2371 -0.3115  0.0503
13317TIP3    H161366   0.795   6.650   3.610 -0.2794 -0.2034  0.0960
13317TIP3    H261367   0.771   6.571   3.737 -0.2118 -0.3403  0.0251
13318TIP3   OH261368   4.362   3.880  11.745 -0.3380 -0.3654 -0.3057
13318TIP3    H161369   4.322   3.967  11.749  1.0850  0.3492 -0.5731
13318TIP3    H261370   4.294   3.823  11.709 -1.0376  0.8175 -0.9074
13319TIP3   OH261371   1.807   2.448  12.840 -0.0270  0.0357  0.1890
13319TIP3    H161372   1.781   2.521  12.897  0.9103  1.0907 -0.7056
13319TIP3    H261373   1.848   2.385  12.899 -2.2297 -0.5296  1.2363
13320TIP3   OH261374   2.838   2.289  16.949  0.4572 -0.7246  0.5274
13320TIP3    H161375   2.751   2.260  16.978  0.5246 -1.0911  0.3647
13320TIP3    H261376   2.844   2.380  16.980 -0.1671 -0.5407  0.1371
13321TIP3   OH261377   3.868   3.525  16.492 -0.2024  0.2246 -0.2547
13321TIP3    H161378   3.900   3.455  16.549 -0.5223 -1.1383 -1.6872
13321TIP3    H261379   3.915   3.604  16.523  0.1714 -0.5911  1.3831
13322TIP3   OH261380   5.608   5.290  12.881 -0.7561 -0.2317  0.6266
13322TIP3    H161381   5.608   5.318  12.973  0.0641  1.3557  0.1922
13322TIP3    H261382   5.518   5.263  12.864 -0.5361 -2.3860  2.3802
13323TIP3   OH261383   1.278   0.940  12.603 -0.3213  0.3819  0.8088
13323TIP3    H161384   1.248   0.862  12.649  0.9189 -0.3190  0.4912
13323TIP3    H261385   1.209   0.958  12.539 -0.3086 -0.9012  0.3949
13324TIP3   OH261386   1.913   4.451  12.953  0.2633 -0.0107 -0.1259
13324TIP3    H161387   1.931   4.363  12.986  1.4983  0.2874  0.0319
13324TIP3    H261388   1.935   4.447  12.860  0.5283  0.1839 -0.0724
13325TIP3   OH261389   5.144   0.330  14.301 -0.2698 -0.3325  0.4821
13325TIP3    H161390   5.224   0.296  14.342 -0.7633 -0.3220  1.4673
13325TIP3    H261391   5.098   0.253  14.270 -0.9188 -0.5176  1.8521
13326TIP3   OH261392   3.342   4.940  13.346  0.3013 -0.1160 -0.1871
13326TIP3    H161393   3.286   4.985  13.409 -1.3889 -0.0128 -1.6621
13326TIP3    H261394   3.418   4.912  13.396 -1.6127 -1.3481  2.2504
13327TIP3   OH261395   6.764   3.114   1.487 -0.0880  0.8171 -0.4087
13327TIP3    H161396   6.851   3.102   1.526 -0.1744 -1.6288 -0.7997
13327TIP3    H261397   6.776   3.094   1.394 -0.9684  0.9520 -0.5591
13328TIP3   OH261398   5.943   4.914   5.333  0.1223 -0.0993  0.0980
13328TIP3    H161399   6.014   4.853   5.351 -0.4920 -1.3503 -1.4413
13328TIP3    H261400   5.870   4.859   5.305 -0.4758  1.2991 -1.3024
13329TIP3   OH261401   5.822   4.039   1.558 -0.2881 -0.5323  0.2773
13329TIP3    H161402   5.882   4.112   1.544 -1.0511  0.1690  0.5779
13329TIP3    H261403   5.782   4.023   1.473 -0.4765 -0.2846  0.3209
13330TIP3   OH261404   4.709   3.149   1.521  0.2629 -0.0520 -0.1492
13330TIP3    H161405   4.793   3.122   1.485  2.3473 -0.0976  4.1610
13330TIP3    H261406   4.707   3.244   1.511  0.7085 -0.0800 -0.4891
13331TIP3   OH261407   3.907   0.828  12.526  0.3247 -0.4595 -0.4051
13331TIP3    H161408   3.854   0.876  12.589  1.6114  0.2143  0.1934
13331TIP3    H261409   3.919   0.889  12.454 -0.7548 -1.0676 -1.1379
13332TIP3   OH261410   0.517   4.314  13.208  0.1114  0.0474 -0.0484
13332TIP3    H161411   0.566   4.377  13.260  0.5585 -0.9067  0.7180
13332TIP3    H261412   0.562   4.312  13.124  0.6991  0.0140  0.2646
13333TIP3   OH261413   2.389   5.060  15.216 -0.0637 -0.2996 -0.0128
13333TIP3    H161414   2.435   5.141  15.196  0.9308 -1.2544 -1.8933
13333TIP3    H261415   2.361   5.070  15.307  1.8965  1.2586  0.4949
13334TIP3   OH261416   5.633   2.120  11.356 -0.1928 -0.0639 -0.0125
13334TIP3    H161417   5.718   2.111  11.400 -0.4442  0.4395  0.5860
13334TIP3    H261418   5.622   2.214  11.344 -1.1615 -0.0522  0.8884
13335TIP3   OH261419   2.423   4.519  14.814  0.3206 -0.6341 -0.5883
13335TIP3    H161420   2.441   4.481  14.900 -0.8282  1.0136  0.4363
13335TIP3    H261421   2.346   4.574  14.827  0.2678 -0.1269 -2.6279
13336TIP3   OH261422   2.762   2.372  14.152  0.0819 -0.0960 -0.4492
13336TIP3    H161423   2.768   2.284  14.188  1.5102 -0.5978 -1.7878
13336TIP3    H261424   2.678   2.406  14.184  0.1392 -1.4006  1.2191
13337TIP3   OH261425   2.073   4.907  11.490  0.0721 -0.9896 -0.2338
13337TIP3    H161426   1.984   4.887  11.517  0.7096  0.1769  3.2017
13337TIP3    H261427   2.066   4.993  11.448 -0.2838 -0.0818  1.5753
13338TIP3   OH261428   0.934   4.610  11.526  0.2757  0.3871 -0.0783
13338TIP3    H161429   0.938   4.574  11.615  0.3824  1.9060  0.5576
13338TIP3    H261430   0.851   4.577  11.492 -0.2308  0.5521  0.9365
13339TIP3   OH261431   2.672   3.412   4.921  0.0503 -0.0315  0.1505
13339TIP3    H161432   2.615   3.344   4.885 -0.1399  0.5088 -0.5986
13339TIP3    H261433   2.756   3.368   4.935  0.0922 -0.2868 -0.8576
13340TIP3   OH261434   0.816   3.210   2.276 -0.3672 -0.2819  0.1157
13340TIP3    H161435   0.750   3.277   2.258  0.5824  0.3941 -0.9914
13340TIP3    H261436   0.823   3.208   2.372 -2.0640 -0.4620  0.2515
13341TIP3   OH261437   5.300   6.029  17.013 -0.3111  0.4486 -0.5476
13341TIP3    H161438   5.312   6.031  17.108  1.9053  0.4350 -0.7779
13341TIP3    H261439   5.334   5.944  16.987  2.2906  1.7190 -1.6485
13342TIP3   OH261440   3.649   0.474  12.368  0.0474 -0.5771  0.3221
13342TIP3    H161441   3.714   0.434  12.311  0.6081  0.7211  0.0220
13342TIP3    H261442   3.698   0.502  12.446 -0.5579 -1.5660  1.0839
13343TIP3   OH261443   5.217   0.650  10.932  0.2748 -0.4894 -0.6283
13343TIP3    H161444   5.287   0.585  10.929 -0.7705 -1.8792  1.7756
13343TIP3    H261445   5.211   0.673  11.025 -0.5332  1.8315 -1.1882
13344TIP3   OH261446   0.215   3.579  12.926 -0.1056  0.7222  0.2158
13344TIP3    H161447   0.169   3.589  13.010 -1.6844  0.9325 -0.6256
13344TIP3    H261448   0.196   3.661  12.880  0.2752  0.3738 -0.5595
13345TIP3   OH261449   1.339   0.439   2.115 -0.2895  0.0151 -0.0343
13345TIP3    H161450   1.392   0.422   2.037  0.4664 -1.6091  0.7817
13345TIP3    H261451   1.249   0.431   2.085 -0.0127 -0.3913 -0.7893
13346TIP3   OH261452   0.954   1.889  11.183 -0.4081  0.3093  0.0795
13346TIP3    H161453   1.005   1.958  11.140 -1.5529  1.4571  0.5097
13346TIP3    H261454   1.020   1.833  11.224  0.6639 -0.2132 -2.2245
13347TIP3   OH261455   0.742   3.417  14.538  0.6909 -0.1928 -0.0058
13347TIP3    H161456   0.701   3.345  14.585 -0.6033 -0.4890 -1.4890
13347TIP3    H261457   0.805   3.374  14.480  0.8836 -0.0027  0.0632
13348TIP3   OH261458   1.035   1.232  13.380 -0.0239  0.5310  0.4919
13348TIP3    H161459   0.977   1.218  13.304  0.2213  0.0577  0.3923
13348TIP3    H261460   1.061   1.144  13.407  2.6372  0.7696 -0.9879
13349TIP3   OH261461   2.320   5.525   1.877 -0.7245 -0.2277  0.0736
13349TIP3    H161462   2.325   5.587   1.950 -2.0607 -1.4581  1.2677
13349TIP3    H261463   2.281   5.576   1.806 -0.0100  0.8199  0.4028
13350TIP3   OH261464   3.014   3.057  11.516  0.2481  0.1877  0.4981
13350TIP3    H161465   3.014   2.987  11.581  0.6694  0.7562  1.1265
13350TIP3    H261466   3.053   3.132  11.562 -0.5616  0.9503 -0.0298
13351TIP3   OH261467   1.519   3.550  15.348 -0.3595  0.3627  0.0979
13351TIP3    H161468   1.602   3.529  15.305 -0.8390 -2.3958  0.3111
13351TIP3    H261469   1.483   3.623  15.297  1.7111  0.9803 -0.5810
13352TIP3   OH261470   2.447   5.990  16.935 -0.1594  0.4070 -0.2062
13352TIP3    H161471   2.513   6.059  16.929 -1.4685  1.7171 -0.0037
13352TIP3    H261472   2.405   6.004  17.020 -0.6894 -0.4458 -0.3149
13353TIP3   OH261473   4.824   6.453  11.835  0.4391 -0.5505 -0.1225
13353TIP3    H161474   4.796   6.487  11.920 -1.0650  1.8940 -1.4749
13353TIP3    H261475   4.870   6.526  11.795 -2.2314 -0.2007 -2.8771
13354TIP3   OH261476   6.456   3.874   1.848 -0.4230 -0.5855  0.4145
13354TIP3    H161477   6.431   3.788   1.813 -0.3715 -0.4530  0.0423
13354TIP3    H261478   6.551   3.876   1.841 -0.4965 -0.0702 -0.6150
13355TIP3   OH261479   0.075   2.879   2.771 -0.2044  0.1391  0.2790
13355TIP3    H161480   0.140   2.813   2.745 -0.1176  0.8729 -1.5248
13355TIP3    H261481   0.127   2.952   2.802 -0.0675  0.9629 -1.7328
13356TIP3   OH261482   0.947   0.867  10.804 -0.1538 -0.4945 -0.0819
13356TIP3    H161483   0.897   0.923  10.745  0.7276  0.4833  0.0561
13356TIP3    H261484   1.039   0.882  10.779  0.2798  0.3400  1.8116
13357TIP3   OH261485   4.352   4.829  16.708  0.3864  0.2525 -0.0520
13357TIP3    H161486   4.436   4.788  16.687  0.6550  0.3204  0.8503
13357TIP3    H261487   4.305   4.832  16.624  0.2179 -2.1931 -0.1332
13358TIP3   OH261488   6.607   0.217  12.785 -0.0817  0.6467  0.0096
13358TIP3    H161489   6.592   0.154  12.856  1.1860  0.1178 -0.1788
13358TIP3    H261490   6.665   0.283  12.823 -0.2990  0.9651 -0.2072
13359TIP3   OH261491   5.739   5.907   0.003 -0.5041  0.3144 -0.2049
13359TIP3    H161492   5.713   5.898   0.095  0.1254 -0.0763 -0.0596
13359TIP3    H261493   5.834   5.908   0.005 -0.4765 -0.1394 -0.8936
13360TIP3   OH261494   0.800   2.005  14.299  0.0283  0.5020 -0.3797
13360TIP3    H161495   0.882   2.039  14.335 -0.0365 -1.5325  1.9621
13360TIP3    H261496   0.820   1.984  14.208  1.8320  0.8937 -0.1081
13361TIP3   OH261497   4.217   0.172  14.715  0.1894 -0.0326 -0.0015
13361TIP3    H161498   4.257   0.244  14.667 -0.6503 -0.8380 -2.0292
13361TIP3    H261499   4.137   0.210  14.752  0.8652  0.6072  0.8417
13362TIP3   OH261500   5.564   3.294  11.930 -0.2372 -0.2485 -0.5347
13362TIP3    H161501   5.554   3.209  11.973  0.0499 -0.3669 -0.6971
13362TIP3    H261502   5.482   3.305  11.881 -1.3353  0.6763  1.3699
13363TIP3   OH261503   6.273   4.815   2.677  0.2838  0.5482 -0.0315
13363TIP3    H161504   6.208   4.882   2.654  3.5478  4.0185 -0.1844
13363TIP3    H261505   6.308   4.844   2.761  0.8416 -1.9258  0.6709
13364TIP3   OH261506   2.857   2.432  11.081 -0.1058 -0.5932 -0.2231
13364TIP3    H161507   2.928   2.429  11.017 -0.6640 -0.1191 -0.8855
13364TIP3    H261508   2.779   2.406  11.031 -0.9697  1.9742 -0.3652
13365TIP3   OH261509   0.079   5.284   0.575 -0.6820  0.2407 -0.3078
13365TIP3    H161510   0.132   5.279   0.496 -1.0534  0.2942 -0.5600
13365TIP3    H261511   0.125   5.228   0.638 -0.1875  0.4908 -0.4429
13366TIP3   OH261512   5.465   0.053  12.309  0.0249  0.4335 -0.2222
13366TIP3    H161513   5.509  -0.029  12.289 -2.1044 -0.6499 -0.7346
13366TIP3    H261514   5.411   0.034  12.385  1.7606  2.2481  1.5662
13367TIP3   OH261515   5.688   4.539  12.045  0.7394  0.4230  0.2330
13367TIP3    H161516   5.738   4.619  12.030  1.1785 -0.0536 -0.9297
13367TIP3    H261517   5.750   4.468  12.029  0.1050 -0.1671  0.3343
13368TIP3   OH261518   1.204   1.990   4.397  0.2832  0.0106  0.5860
13368TIP3    H161519   1.190   1.984   4.492 -0.2698  0.8038  0.5627
13368TIP3    H261520   1.300   1.997   4.388  0.5166 -2.1869  0.9387
13369TIP3   OH261521   4.397   4.257   2.306  0.9496  0.4365 -0.0692
13369TIP3    H161522   4.458   4.244   2.379  1.3670  0.1297 -0.4731
13369TIP3    H261523   4.328   4.192   2.322  2.5762 -1.8017 -1.5900
13370TIP3   OH261524   2.429   6.444  13.201  0.2062  0.1027 -0.2805
13370TIP3    H161525   2.355   6.471  13.147  0.5319  2.1612  0.2194
13370TIP3    H261526   2.426   6.502  13.278  2.5697  0.5843 -0.4640
13371TIP3   OH261527   0.072   1.984  12.488  0.0413 -0.0941 -0.1846
13371TIP3    H161528   0.068   2.075  12.517 -0.0382  0.1814 -1.0301
13371TIP3    H261529   0.119   1.938  12.558  0.9628  0.7792 -0.2195
13372TIP3   OH261530   0.169   4.342   5.399  0.3921 -0.1406  0.1624
13372TIP3    H161531   0.171   4.374   5.489 -0.1254  2.2563 -0.6263
13372TIP3    H261532   0.080   4.310   5.387  0.2270  0.2858  0.2485
13373TIP3   OH261533   3.833   5.364  15.868 -0.0685 -0.4227 -0.0777
13373TIP3    H161534   3.846   5.285  15.815  1.0119 -0.0744 -0.3605
13373TIP3    H261535   3.754   5.346  15.919 -0.8414 -0.9943 -1.4008
13374TIP3   OH261536   5.163   0.610   3.302  0.5285 -0.3391 -0.0704
13374TIP3    H161537   5.109   0.668   3.249  0.7302 -1.0857 -1.1440
13374TIP3    H261538   5.161   0.526   3.255  0.3682 -1.1614  1.3426
13375TIP3   OH261539   3.619   1.461  14.917  0.0685  0.2640  0.2444
13375TIP3    H161540   3.689   1.501  14.867 -0.0301  1.1509  0.7988
13375TIP3    H261541   3.541   1.471  14.862 -0.3830  2.7150  1.1965
13376TIP3   OH261542   6.410   3.814  12.573 -0.4415  0.7131  0.7095
13376TIP3    H161543   6.327   3.856  12.551 -0.0485  1.1997  0.1368
13376TIP3    H261544   6.460   3.815  12.492 -0.5906 -1.3103  0.5354
13377TIP3   OH261545   3.477   5.582  16.188  0.2407 -0.2500 -0.1067
13377TIP3    H161546   3.479   5.569  16.283  0.7163  0.7321  0.0252
13377TIP3    H261547   3.570   5.586  16.164  0.1890 -2.5213 -0.9162
13378TIP3   OH261548   4.552   5.688  10.886 -0.5364 -0.4262 -0.5319
13378TIP3    H161549   4.517   5.618  10.831  2.4183 -1.3801 -1.4366
13378TIP3    H261550   4.553   5.650  10.974 -0.3106 -1.0020 -0.7753
13379TIP3   OH261551   6.469   5.073  11.348 -0.1318 -0.0267 -0.2879
13379TIP3    H161552   6.524   5.039  11.278  1.6509  2.4703 -0.2598
13379TIP3    H261553   6.531   5.102  11.416 -1.6875 -0.2116  1.3025
13380TIP3   OH261554   3.190   3.149   1.684  0.1605 -0.2323  0.3644
13380TIP3    H161555   3.111   3.179   1.728  1.1976  2.1348  0.7732
13380TIP3    H261556   3.242   3.108   1.753  1.1730  2.2291  1.1708
13381TIP3   OH261557   1.282   0.692   3.846 -0.7539  0.4665  0.1773
13381TIP3    H161558   1.282   0.636   3.769 -1.6100  0.2585  0.3192
13381TIP3    H261559   1.298   0.632   3.920 -1.3697  0.4442  0.2983
13382TIP3   OH261560   1.234   1.975   1.137 -0.0328  0.1222  0.3615
13382TIP3    H161561   1.293   1.901   1.124 -1.3801 -0.7854 -0.8068
13382TIP3    H261562   1.226   2.015   1.050  4.1744  4.5362  1.5575
13383TIP3   OH261563   4.262   5.553  15.972 -0.8059  0.1300 -0.1323
13383TIP3    H161564   4.245   5.593  16.057 -2.2070  1.0989 -0.8380
13383TIP3    H261565   4.336   5.604  15.937 -2.3176  1.9407 -0.8543
13384TIP3   OH261566   2.290   3.913   5.408  0.2126 -0.2722 -0.6768
13384TIP3    H161567   2.272   3.819   5.412 -1.2206 -0.0326 -0.8533
13384TIP3    H261568   2.319   3.936   5.496 -1.0903 -0.5911 -0.1331
13385TIP3   OH261569   0.851   4.473   4.949 -0.7972  0.0493  0.9112
13385TIP3    H161570   0.939   4.461   4.984  0.1051  0.0344 -1.1933
13385TIP3    H261571   0.849   4.418   4.871 -2.5887  0.2663  0.7814
13386TIP3   OH261572   1.563   6.693   0.317  0.3673  0.6535 -0.1164
13386TIP3    H161573   1.571   6.755   0.389 -0.8075  1.0163 -0.2636
13386TIP3    H261574   1.471   6.665   0.320  0.2331  0.8432 -1.5892
13387TIP3   OH261575   2.564   1.634   4.879  0.4902 -0.5490  0.2008
13387TIP3    H161576   2.507   1.642   4.956 -1.2859  2.7294 -1.1990
13387TIP3    H261577   2.527   1.562   4.829 -0.9766 -0.0358  0.4949
13388TIP3   OH261578   6.426   5.871   6.217  0.6909  0.0771  0.1304
13388TIP3    H161579   6.437   5.780   6.244 -1.4787 -0.4122 -0.4952
13388TIP3    H261580   6.509   5.913   6.242  0.8165 -1.4880  2.6920
13389TIP3   OH261581   5.718   2.206   1.930  0.3355 -0.6122 -0.1831
13389TIP3    H161582   5.762   2.275   1.881 -0.8221 -0.4143 -0.9791
13389TIP3    H261583   5.643   2.182   1.875  0.3059 -1.9901  0.4243
13390TIP3   OH261584   4.972   2.307  14.567 -0.0255  0.8776 -0.4827
13390TIP3    H161585   4.917   2.351  14.633 -1.4978 -3.4162  1.5585
13390TIP3    H261586   5.056   2.294  14.611 -0.1789  0.2663 -0.3438
13391TIP3   OH261587   0.558   5.802   3.505 -0.4881  0.0742 -0.3830
13391TIP3    H161588   0.567   5.885   3.458 -1.5213  0.0379 -0.6772
13391TIP3    H261589   0.606   5.816   3.587 -0.3213  0.8274 -0.5978
13392TIP3   OH261590   2.569   6.551   0.877  0.3755  0.4669  0.8518
13392TIP3    H161591   2.643   6.606   0.851  0.6929  0.2873  1.3683
13392TIP3    H261592   2.594   6.515   0.962  0.6806 -1.3822  0.0259
13393TIP3   OH261593   3.693   2.951  15.016 -0.2287  0.1833 -0.1973
13393TIP3    H161594   3.660   2.990  14.934 -2.0257 -1.7186 -0.4516
13393TIP3    H261595   3.772   2.904  14.990 -0.5401 -0.0327 -0.7727
13394TIP3   OH261596   6.525   3.356  11.770  0.2268 -0.0105 -0.2041
13394TIP3    H161597   6.443   3.340  11.723 -0.1960  0.3228  0.4048
13394TIP3    H261598   6.584   3.287  11.740 -0.1891 -0.0844 -0.8571
13395TIP3   OH261599   3.656   4.020   3.864  0.0011 -0.0146 -0.2046
13395TIP3    H161600   3.645   3.928   3.886 -0.4282  0.5276  2.1650
13395TIP3    H261601   3.567   4.054   3.855  0.1310 -0.3347 -3.8492
13396TIP3   OH261602   4.651   6.190  14.697  0.2343 -0.3995  0.0637
13396TIP3    H161603   4.725   6.176  14.638  1.4820  0.1996  1.4289
13396TIP3    H261604   4.686   6.243  14.768 -2.0651  1.9694 -0.3771
13397TIP3   OH261605   0.820   6.666   3.391  0.4108  0.2130 -0.0822
13397TIP3    H161606   0.741   6.696   3.345  1.0973 -0.0483 -1.4956
13397TIP3    H261607   0.834   6.577   3.358  0.9630  0.0374  0.6047
13398TIP3   OH261608   1.861   6.728  15.945  0.2378 -0.7989 -0.1701
13398TIP3    H161609   1.842   6.645  15.988 -0.9495 -1.0942 -1.2241
13398TIP3    H261610   1.778   6.776  15.949  1.1737  0.8288  1.4197
13399TIP3   OH261611   5.456   3.689  12.183  0.4262 -0.1448 -0.0472
13399TIP3    H161612   5.503   3.765  12.149  0.1025 -0.2999 -0.8776
13399TIP3    H261613   5.389   3.727  12.240 -0.4520  0.2914 -1.3205
13400TIP3   OH261614   5.557   4.489  15.297 -0.0755  0.6944 -0.4861
13400TIP3    H161615   5.529   4.538  15.374 -2.0818 -0.9702 -0.0538
13400TIP3    H261616   5.510   4.529  15.225 -0.6177  0.3161 -0.3484
13401TIP3   OH261617   6.410   6.073   3.764 -0.0080  0.0677 -0.0793
13401TIP3    H161618   6.430   6.137   3.833 -2.8713 -0.7907  1.7194
13401TIP3    H261619   6.395   5.991   3.811 -0.7625 -0.8838 -1.8704
13402TIP3   OH261620   2.483   4.601  12.772  0.8380  0.1278  0.1769
13402TIP3    H161621   2.540   4.638  12.839  2.1844 -0.8052 -0.4062
13402TIP3    H261622   2.451   4.519  12.810  0.6478  0.1879  0.1442
13403TIP3   OH261623   2.180   4.846   4.942  0.0532  0.2496  0.0654
13403TIP3    H161624   2.119   4.777   4.969  0.9434  0.2039  2.0943
13403TIP3    H261625   2.124   4.922   4.925 -0.9567 -0.9321 -2.3415
13404TIP3   OH261626   0.883   5.959   0.100 -0.4925 -0.1890  0.3738
13404TIP3    H161627   0.830   5.902   0.045  0.8866  0.7539 -2.1209
13404TIP3    H261628   0.897   5.909   0.180  0.1147 -3.1469 -1.4206
13405TIP3   OH261629   1.503   1.021  15.069  0.2782  0.4200  0.3461
13405TIP3    H161630   1.570   1.050  15.007 -0.0084 -1.1190 -0.7420
13405TIP3    H261631   1.464   0.944  15.027 -1.1328  0.3875  1.6545
13406TIP3   OH261632   5.460   4.183  14.868  0.1373 -0.4337 -0.3741
13406TIP3    H161633   5.433   4.094  14.846 -0.9725 -0.1028 -0.3883
13406TIP3    H261634   5.416   4.238  14.804  1.6796  0.0587 -1.0536
13407TIP3   OH261635   2.542   0.547  11.768 -0.1942 -0.2870  0.0271
13407TIP3    H161636   2.462   0.595  11.744 -1.3232 -2.0503  0.0900
13407TIP3    H261637   2.601   0.559  11.693 -1.0432 -0.0539 -0.6165
13408TIP3   OH261638   2.713   6.133  12.789 -0.5851  0.2127 -0.0735
13408TIP3    H161639   2.734   6.207  12.732  0.1205 -0.0792 -0.2089
13408TIP3    H261640   2.783   6.070  12.772  1.0221  1.0388  2.8406
13409TIP3   OH261641   2.858   3.798  15.291 -0.0364  0.1022 -0.2836
13409TIP3    H161642   2.793   3.729  15.278  0.6141 -0.6139  0.1827
13409TIP3    H261643   2.930   3.755  15.337  0.1940  1.2007  0.4245
13410TIP3   OH261644   3.996   0.793  11.689 -0.3165 -0.0126 -0.1175
13410TIP3    H161645   3.905   0.762  11.691 -0.7059  1.0231 -1.1582
13410TIP3    H261646   4.036   0.753  11.767 -1.8990  0.2463  0.8751
13411TIP3   OH261647   5.923   0.773  11.770 -0.6240  0.3635  0.3549
13411TIP3    H161648   5.852   0.710  11.757 -0.7838  0.7561 -0.8034
13411TIP3    H261649   6.003   0.723  11.757 -0.7031  0.1095  0.8152
13412TIP3   OH261650   0.631   4.330   0.747 -0.3423 -0.3295  0.7832
13412TIP3    H161651   0.606   4.245   0.786  0.0317 -1.0205 -0.4467
13412TIP3    H261652   0.652   4.385   0.823 -1.4905 -1.0318  1.6575
13413TIP3   OH261653   0.428   5.166  14.995 -0.3608  0.2386 -0.2145
13413TIP3    H161654   0.512   5.163  14.948  0.5372 -0.1249  1.3385
13413TIP3    H261655   0.366   5.200  14.930  0.9964  0.6222 -1.3785
13414TIP3   OH261656   0.210   5.103  13.460  0.4808 -0.0409 -0.2553
13414TIP3    H161657   0.259   5.165  13.513 -0.5345 -0.2720  0.9931
13414TIP3    H261658   0.192   5.150  13.378  2.1363  0.2833 -0.4630
13415TIP3   OH261659   3.713   0.203  17.013 -0.4016  0.3194 -0.0316
13415TIP3    H161660   3.623   0.190  16.983 -0.5224  1.9816 -0.4686
13415TIP3    H261661   3.767   0.171  16.941 -0.6831  3.0373 -1.5610
13416TIP3   OH261662   4.218   2.629   2.814  0.5585  0.4260  0.6844
13416TIP3    H161663   4.313   2.619   2.822  0.4992 -0.8019  0.0786
13416TIP3    H261664   4.202   2.721   2.835  2.0265  0.9789 -0.4330
13417TIP3   OH261665   4.331   4.274   2.759  0.2528  0.4747  0.7503
13417TIP3    H161666   4.240   4.268   2.728 -0.4252  2.3722  2.1152
13417TIP3    H261667   4.384   4.275   2.679 -0.9381 -0.4939 -0.0796
13418TIP3   OH261668   3.406   2.441  11.879  0.1996 -0.1233 -0.0527
13418TIP3    H161669   3.429   2.431  11.787 -1.2243  1.8607 -0.6735
13418TIP3    H261670   3.441   2.526  11.904 -0.9668  0.1538  0.7245
13419TIP3   OH261671   5.159   6.349  11.556  0.1538 -0.2371 -0.5916
13419TIP3    H161672   5.114   6.265  11.564  0.5033 -0.2592  1.6885
13419TIP3    H261673   5.234   6.342  11.615  1.8063  0.6916 -2.4700
13420TIP3   OH261674   2.478   1.911   0.578 -0.0030 -0.4478 -0.6239
13420TIP3    H161675   2.524   1.988   0.611  0.7933 -1.3752  0.5116
13420TIP3    H261676   2.546   1.845   0.567 -0.9002 -1.5095  0.0312
13421TIP3   OH261677   6.437   0.175   3.903 -0.0793  0.1087 -0.3515
13421TIP3    H161678   6.446   0.188   3.997 -1.4868 -0.1090 -0.1685
13421TIP3    H261679   6.369   0.237   3.876 -0.0278 -0.1582 -1.1412
13422TIP3   OH261680   4.293   2.695   2.536 -0.2514 -0.1749 -0.7359
13422TIP3    H161681   4.215   2.685   2.590  0.1921 -0.5355 -0.1460
13422TIP3    H261682   4.319   2.786   2.549 -0.0805 -0.2908 -0.2373
13423TIP3   OH261683   4.269   0.224   2.041 -0.1122  0.0576 -0.2125
13423TIP3    H161684   4.352   0.271   2.038  0.2275 -0.5386 -0.1735
13423TIP3    H261685   4.262   0.192   2.131 -0.8058  0.8468  0.0348
13424TIP3   OH261686   2.361   5.781  14.835  0.2674 -0.0036  0.1680
13424TIP3    H161687   2.430   5.746  14.892 -0.3005 -0.5298  0.5386
13424TIP3    H261688   2.377   5.875  14.834  0.6971 -0.0671  0.6442
13425TIP3   OH261689   6.517   3.121  12.008  0.3229 -0.1496  0.1409
13425TIP3    H161690   6.434   3.094  11.969 -0.0267  1.4478 -0.2931
13425TIP3    H261691   6.507   3.215  12.022  1.4054 -0.2486  1.7511
13426TIP3   OH261692   4.462   2.089  16.903  0.1637  0.0092 -0.1398
13426TIP3    H161693   4.550   2.108  16.870 -0.0296  0.6613 -0.2833
13426TIP3    H261694   4.405   2.096  16.827  0.0660 -1.0676 -0.1834
13427TIP3   OH261695   2.961   5.413   1.410  0.3227  0.1647  0.9663
13427TIP3    H161696   2.985   5.446   1.324 -1.3439  0.5569  0.6114
13427TIP3    H261697   2.961   5.490   1.467 -0.6471  0.2856  0.8181
13428TIP3   OH261698   6.386   2.182   4.420  0.2801 -0.3529  0.7722
13428TIP3    H161699   6.457   2.173   4.357  0.2951 -0.8286  0.8508
13428TIP3    H261700   6.382   2.275   4.439 -0.9344  0.0929 -1.3475
13429TIP3   OH261701   4.209   1.090  12.532  0.3584  0.0681  0.0713
13429TIP3    H161702   4.121   1.052  12.534  0.6128 -0.5906 -0.6619
13429TIP3    H261703   4.215   1.134  12.447  0.6947  0.2210  0.1705
13430TIP3   OH261704   4.156   1.763  10.878 -0.0223 -0.0011 -0.0978
13430TIP3    H161705   4.217   1.817  10.828 -1.4757  2.0196  0.1825
13430TIP3    H261706   4.132   1.817  10.953 -0.3508 -1.6987  1.0763
13431TIP3   OH261707   2.728   2.048  16.465 -0.3393  0.0716 -0.0268
13431TIP3    H161708   2.773   1.985  16.521 -0.3255  0.3097  0.2306
13431TIP3    H261709   2.651   2.074  16.516  0.5471  1.5489  0.6037
13432TIP3   OH261710   1.394   4.669   4.636 -0.2778  0.5305  0.3750
13432TIP3    H161711   1.311   4.710   4.612 -0.4996  0.1499  0.4877
13432TIP3    H261712   1.381   4.638   4.725 -0.2312 -0.0907  0.1703
13433TIP3   OH261713   0.512   0.306  16.210 -0.4914  0.4952 -0.1850
13433TIP3    H161714   0.522   0.383  16.155  0.3777 -0.2965 -1.1888
13433TIP3    H261715   0.601   0.287  16.241 -0.7165 -0.0076  0.1757
13434TIP3   OH261716   5.240   1.727   0.474 -0.2838 -0.0667 -0.0640
13434TIP3    H161717   5.284   1.724   0.558 -0.0650  1.9238 -0.0422
13434TIP3    H261718   5.263   1.645   0.431 -0.6295 -1.2488  1.9026
13435TIP3   OH261719   3.212   4.661   1.060 -0.7214 -0.2315 -0.0918
13435TIP3    H161720   3.159   4.606   1.002 -1.8197 -0.4834  1.1127
13435TIP3    H261721   3.210   4.616   1.145  3.8056 -1.8105 -0.5532
13436TIP3   OH261722   5.663   1.728  13.264  0.4724  0.7809 -0.1603
13436TIP3    H161723   5.739   1.736  13.206  0.3989 -2.4677 -0.9046
13436TIP3    H261724   5.696   1.754  13.350  2.7490 -1.2701 -0.3041
13437TIP3   OH261725   1.221   5.302  15.698  0.0968  0.3420  0.1145
13437TIP3    H161726   1.198   5.302  15.791  1.1140  2.0546  0.3892
13437TIP3    H261727   1.310   5.338  15.695 -0.7885  2.5827 -1.6980
13438TIP3   OH261728   0.595   4.231  12.373 -0.5211 -0.6269 -0.2157
13438TIP3    H161729   0.654   4.305  12.387 -1.6640  0.5914 -1.5158
13438TIP3    H261730   0.617   4.198  12.286 -0.1185 -1.7588  0.2909
13439TIP3   OH261731   6.582   6.435  15.955  0.1588 -0.3009 -0.1080
13439TIP3    H161732   6.564   6.361  16.012  0.3356 -1.3352 -1.3558
13439TIP3    H261733   6.565   6.402  15.866 -2.3111  1.8887 -0.5722
13440TIP3   OH261734   3.028   5.602   0.928  0.2895 -0.0526  0.1601
13440TIP3    H161735   3.113   5.630   0.962 -0.2354  1.7900  0.1001
13440TIP3    H261736   3.029   5.633   0.837 -0.8528  0.9923  0.4859
13441TIP3   OH261737   5.125   6.502  12.467 -0.1421  0.1509  0.0182
13441TIP3    H161738   5.043   6.463  12.437 -1.2858  0.7655  2.1910
13441TIP3    H261739   5.184   6.427  12.478 -0.2082 -0.2564 -1.9583
13442TIP3   OH261740   4.136   4.911  16.543 -0.8329 -0.5240  0.2496
13442TIP3    H161741   4.111   4.821  16.520 -0.9351 -0.3373 -0.3909
13442TIP3    H261742   4.084   4.966  16.485  1.2401 -0.1381 -1.3511
13443TIP3   OH261743   5.839   0.809   0.866 -0.9393 -0.2948 -0.0126
13443TIP3    H161744   5.855   0.730   0.814  1.1901 -2.0568  3.0229
13443TIP3    H261745   5.926   0.840   0.892 -1.8511  0.3193  2.6322
13444TIP3   OH261746   5.895   3.227   1.364 -0.7449 -0.3963  0.3893
13444TIP3    H161747   5.926   3.159   1.424 -1.0928 -0.8878  0.0216
13444TIP3    H261748   5.825   3.184   1.314  1.3913 -0.9572 -2.3632
13445TIP3   OH261749   4.402   5.381  11.027  0.1534  0.1235  0.5133
13445TIP3    H161750   4.311   5.370  10.998  0.3555  1.7571 -0.8941
13445TIP3    H261751   4.420   5.303  11.079 -1.9608 -0.3744  0.5890
13446TIP3   OH261752   3.526   3.681   3.691  0.3683  0.1169 -0.3628
13446TIP3    H161753   3.450   3.657   3.639  0.8512 -1.4235 -0.3959
13446TIP3    H261754   3.553   3.767   3.657 -0.8227  0.2841 -0.9165
13447TIP3   OH261755   2.862   1.330  15.600 -0.2869 -0.3211 -0.0393
13447TIP3    H161756   2.778   1.301  15.565 -0.5579 -0.2976  0.5846
13447TIP3    H261757   2.900   1.251  15.638 -0.1793 -0.2594 -0.0187
13448TIP3   OH261758   3.908   2.452  11.518  0.0122 -0.1068  0.6360
13448TIP3    H161759   3.925   2.391  11.446 -1.0842  0.1779  0.1044
13448TIP3    H261760   3.945   2.410  11.595  0.8599 -0.6017 -0.0273
13449TIP3   OH261761   4.044   5.240   4.526 -0.5964  0.4694  0.0233
13449TIP3    H161762   4.138   5.246   4.547 -0.1613  0.2684 -1.7102
13449TIP3    H261763   4.013   5.330   4.527 -0.3437  0.5526  0.4567
13450TIP3   OH261764   2.233   3.493  11.396  0.0824 -0.2926  0.0511
13450TIP3    H161765   2.154   3.521  11.350  0.1799  0.8585  0.5468
13450TIP3    H261766   2.305   3.513  11.336  0.0227 -1.2169 -0.3451
13451TIP3   OH261767   6.261   1.920   5.476 -0.6741  0.6279  0.2850
13451TIP3    H161768   6.304   1.967   5.404 -1.8363  0.9269 -0.2326
13451TIP3    H261769   6.296   1.831   5.471  0.0764  0.9300  0.0398
13452TIP3   OH261770   4.050   6.347  15.793 -0.5585  0.0797  0.1335
13452TIP3    H161771   4.027   6.266  15.838  1.3832 -1.2190 -1.0371
13452TIP3    H261772   4.058   6.412  15.863 -0.5854 -1.1381  1.3068
13453TIP3   OH261773   6.057   5.591   2.887  0.0588  0.2178  0.0008
13453TIP3    H161774   6.035   5.613   2.977 -0.9577  0.5792 -0.3268
13453TIP3    H261775   5.982   5.541   2.855  0.9156 -0.9351 -0.2958
13454TIP3   OH261776   5.517   2.091   4.825  0.2142  0.4969  0.0444
13454TIP3    H161777   5.515   2.091   4.921  0.5891 -3.1874  0.2026
13454TIP3    H261778   5.532   2.182   4.801 -0.8653  1.6948  3.4326
13455TIP3   OH261779   1.560   3.462  13.848  0.1039  0.7855 -0.1514
13455TIP3    H161780   1.623   3.494  13.914  0.1138  0.6832 -0.1124
13455TIP3    H261781   1.519   3.542  13.814  1.2794  0.9721 -1.2125
13456TIP3   OH261782   5.935   3.916  13.477 -0.5370 -0.2552 -0.5599
13456TIP3    H161783   5.977   3.978  13.536  0.4258  0.2336 -1.7064
13456TIP3    H261784   6.003   3.851  13.459 -0.0842  0.7062 -2.6721
13457TIP3   OH261785   1.596   2.928   3.548  0.6720  0.9744 -0.4453
13457TIP3    H161786   1.526   2.971   3.500 -0.1785 -1.5993 -1.6878
13457TIP3    H261787   1.676   2.974   3.519  0.0414  0.4885 -3.2921
13458TIP3   OH261788   6.225   1.665   0.839  0.2014  0.2647  0.1550
13458TIP3    H161789   6.273   1.583   0.846 -1.4728 -0.9350 -1.4330
13458TIP3    H261790   6.208   1.691   0.929  0.5269 -1.2727  0.6904
13459TIP3   OH261791   0.911   2.681  15.836  0.2155  0.0717  0.3195
13459TIP3    H161792   0.967   2.611  15.870  1.0314  0.7517  0.4086
13459TIP3    H261793   0.832   2.678  15.890  0.4409 -0.4707  0.6208
13460TIP3   OH261794   4.063   6.458  16.285 -0.1391 -0.3241 -0.4033
13460TIP3    H161795   4.142   6.482  16.236  0.3373  1.3779  1.0845
13460TIP3    H261796   4.010   6.538  16.285 -1.5272 -1.2108 -0.6920
13461TIP3   OH261797   5.134   3.099  11.355  0.2046  0.4260  0.7006
13461TIP3    H161798   5.158   3.169  11.416 -0.9254  0.5661  1.0199
13461TIP3    H261799   5.157   3.133  11.269  1.2561  0.4737  0.9857
13462TIP3   OH261800   5.624   6.784   1.310  0.2514  0.1031  0.1071
13462TIP3    H161801   5.534   6.817   1.307  0.0796 -0.4381 -1.0062
13462TIP3    H261802   5.616   6.692   1.334  0.4767 -0.0403 -0.3547
13463TIP3   OH261803   1.230   5.286   0.139 -0.3706 -0.2514  0.0354
13463TIP3    H161804   1.225   5.326   0.052 -0.4522  0.0688  0.1900
13463TIP3    H261805   1.271   5.352   0.194 -2.6851  0.5881  0.8584
13464TIP3   OH261806   6.468   4.388  12.680 -0.7456  0.5013  0.7992
13464TIP3    H161807   6.412   4.458  12.648 -0.4449  0.4034  0.0489
13464TIP3    H261808   6.479   4.329  12.606  0.0897  0.3583  1.0240
13465TIP3   OH261809   2.309   3.016  14.701 -0.6285 -0.1300 -0.0362
13465TIP3    H161810   2.239   3.058  14.752  0.0805  0.5900  0.3684
13465TIP3    H261811   2.387   3.027  14.755 -0.1247 -0.5987 -0.6563
13466TIP3   OH261812   3.862   6.741  15.309  0.3863 -0.2894  0.6190
13466TIP3    H161813   3.919   6.803  15.264  0.7755 -2.0316 -1.4271
13466TIP3    H261814   3.826   6.686  15.240  1.1971 -3.3124  2.4053
13467TIP3   OH261815   0.659   3.743   1.092 -0.0162  0.5125 -0.0273
13467TIP3    H161816   0.610   3.726   1.173  1.2954  0.5832  0.8132
13467TIP3    H261817   0.631   3.830   1.065 -1.3963 -0.0145 -0.3570
13468TIP3   OH261818   4.578   5.112  10.375 -0.3660  0.9985 -0.1612
13468TIP3    H161819   4.637   5.086  10.446 -0.3848  0.8973 -0.1821
13468TIP3    H261820   4.635   5.154  10.311  0.0560 -0.9159 -1.1337
13469TIP3   OH261821   6.610   1.726   2.509 -0.2737  0.1839 -0.2945
13469TIP3    H161822   6.549   1.662   2.545  0.2275  0.5868  1.3967
13469TIP3    H261823   6.690   1.676   2.492 -0.0881  0.2094  0.4358
13470TIP3   OH261824   4.149   1.344  16.473 -0.2862  0.5981  0.4481
13470TIP3    H161825   4.084   1.377  16.534 -0.1163  0.8782  0.4770
13470TIP3    H261826   4.104   1.273  16.426  0.0355 -0.6815  1.9591
13471TIP3   OH261827   3.480   1.476  13.407  0.0340 -0.2341  0.4753
13471TIP3    H161828   3.510   1.385  13.399 -0.6676 -0.8326  3.4095
13471TIP3    H261829   3.451   1.483  13.498  0.1377  2.9808  0.3488
13472TIP3   OH261830   4.111   6.015   1.402  0.2735  0.5145 -0.1610
13472TIP3    H161831   4.093   5.965   1.322  0.8241  1.4886 -0.9250
13472TIP3    H261832   4.033   6.071   1.412  0.4166  0.7370 -0.2904
13473TIP3   OH261833   4.925   5.970  14.926 -0.2141  0.5451  0.3397
13473TIP3    H161834   4.833   5.962  14.947 -0.0836 -0.0530  0.6931
13473TIP3    H261835   4.970   5.913  14.988  0.1557 -1.5594 -1.7106
13474TIP3   OH261836   1.363   6.659   5.091  0.5081  0.0942  0.5570
13474TIP3    H161837   1.440   6.651   5.034 -0.6202  0.2080 -1.0464
13474TIP3    H261838   1.356   6.753   5.109  2.2679 -0.1458  2.9850
13475TIP3   OH261839   1.423   6.666   4.611 -0.1953 -0.1850 -0.5742
13475TIP3    H161840   1.413   6.578   4.647 -0.4901 -0.3573 -1.0676
13475TIP3    H261841   1.503   6.699   4.651 -0.0457 -0.7012 -0.4375
13476TIP3   OH261842   1.726   6.622   1.058  0.4727  0.4389  0.5179
13476TIP3    H161843   1.725   6.570   0.977  2.6854  0.7894  0.2116
13476TIP3    H261844   1.692   6.707   1.031  0.7030  0.3956  0.0652
13477TIP3   OH261845   2.186   1.924   1.398  0.5945  0.1631 -0.4494
13477TIP3    H161846   2.269   1.970   1.387  1.6790 -1.0988  1.7947
13477TIP3    H261847   2.209   1.831   1.395 -0.7911 -0.2233 -0.1221
13478TIP3   OH261848   4.078   4.589  14.309 -0.6308  0.0874 -0.2309
13478TIP3    H161849   4.062   4.575  14.402 -1.1240 -0.1360 -0.3430
13478TIP3    H261850   4.043   4.676  14.291  2.8877  1.8546  0.5704
13479TIP3   OH261851   6.431   2.643   3.724  0.2007  0.1385 -0.7914
13479TIP3    H161852   6.405   2.605   3.640  1.5446  1.3758 -1.8227
13479TIP3    H261853   6.524   2.621   3.732  0.1125  0.1423  0.3237
13480TIP3   OH261854   4.938   6.677  12.040  0.3575 -0.2785  0.0303
13480TIP3    H161855   4.849   6.641  12.038  0.5571 -0.8157  0.4489
13480TIP3    H261856   4.956   6.687  12.134  0.1621  1.2961 -0.0831
13481TIP3   OH261857   0.306   6.650  10.984 -0.4760 -0.5620  0.9308
13481TIP3    H161858   0.295   6.555  10.993 -0.6646 -0.9131 -2.0238
13481TIP3    H261859   0.267   6.671  10.900  2.9867  1.5005 -0.3749
13482TIP3   OH261860   5.506   4.633  11.430  0.3932  0.9717 -0.4719
13482TIP3    H161861   5.486   4.548  11.391 -2.1834  0.8527  0.8702
13482TIP3    H261862   5.487   4.696  11.361 -2.5984  0.6762 -0.0597
13483TIP3   OH261863   3.042   2.545   4.231 -0.1558  0.4014  0.9664
13483TIP3    H161864   2.978   2.488   4.273 -1.3027 -0.1171 -1.3521
13483TIP3    H261865   3.127   2.506   4.253 -0.8905 -2.2235 -0.4795
13484TIP3   OH261866   0.598   0.153   5.489 -0.2986 -0.7063  0.2964
13484TIP3    H161867   0.590   0.060   5.468 -1.6610 -0.8768  1.3825
13484TIP3    H261868   0.692   0.172   5.480 -0.1268 -1.9473 -0.8163
13485TIP3   OH261869   1.066   0.974  13.429 -0.0406 -0.2147  0.1354
13485TIP3    H161870   1.152   0.975  13.388 -0.2089 -0.5923 -0.2319
13485TIP3    H261871   1.019   0.903  13.385 -0.1710 -0.7376  1.0879
13486TIP3   OH261872   3.669   6.099  13.057 -0.0540 -0.7144 -0.0775
13486TIP3    H161873   3.696   6.169  13.116 -1.2053  0.4145 -0.8432
13486TIP3    H261874   3.676   6.137  12.970 -0.4452 -1.6426 -0.5264
13487TIP3   OH261875   5.921   6.133   2.981 -0.4802  0.0762  0.0651
13487TIP3    H161876   5.866   6.079   3.038  0.3622 -2.0252 -1.0370
13487TIP3    H261877   5.976   6.071   2.934 -0.4989  1.7810 -2.3802
13488TIP3   OH261878   3.689   3.497  10.890  0.7967 -0.2742 -0.2878
13488TIP3    H161879   3.705   3.590  10.873 -0.2141  0.2832  1.5355
13488TIP3    H261880   3.695   3.489  10.985  2.0115 -2.3351 -0.4803
13489TIP3   OH261881   6.236   6.361  14.994 -0.4147 -0.0151 -0.2864
13489TIP3    H161882   6.300   6.363  15.066 -0.4093  0.0268 -0.2926
13489TIP3    H261883   6.267   6.427  14.933 -1.0419  0.7473  0.2105
13490TIP3   OH261884   4.126   2.930  14.423 -0.1335  0.4384 -0.1779
13490TIP3    H161885   4.036   2.940  14.455  0.8027  0.1748  2.8338
13490TIP3    H261886   4.173   3.004  14.461  1.1734 -0.0587 -0.7645
13491TIP3   OH261887   0.353   5.658  15.996 -0.1184  0.1917 -0.6000
13491TIP3    H161888   0.267   5.619  16.012 -0.3130 -0.2541 -2.4659
13491TIP3    H261889   0.335   5.750  15.976 -0.0725  0.2900 -0.1963
13492TIP3   OH261890   3.404   1.888  14.355  0.1075 -1.0838  0.3729
13492TIP3    H161891   3.333   1.906  14.417 -0.1464 -0.0520 -0.1883
13492TIP3    H261892   3.361   1.840  14.284 -0.2351  0.2890 -0.3753
13493TIP3   OH261893   4.060   3.902  14.642  0.4192  0.0483  0.0127
13493TIP3    H161894   3.980   3.867  14.603  0.6613  0.3303 -0.7603
13493TIP3    H261895   4.030   3.961  14.711 -0.2149  2.8208 -2.4349
13494TIP3   OH261896   1.478   3.272   5.841 -0.8828 -0.0138 -0.2238
13494TIP3    H161897   1.538   3.340   5.869 -1.1866  0.2403 -0.1865
13494TIP3    H261898   1.531   3.192   5.839 -0.9940 -0.1783  1.7551
13495TIP3   OH261899   6.233   6.681  17.108 -0.1634 -0.2924 -0.1489
13495TIP3    H161900   6.296   6.659  17.039 -0.0985  0.2860 -0.2758
13495TIP3    H261901   6.158   6.718  17.062  0.1009  0.6002  0.1191
13496TIP3   OH261902   0.182   6.608  16.836  0.0361 -0.1494 -0.1507
13496TIP3    H161903   0.164   6.571  16.750 -0.5501  0.7099 -0.4112
13496TIP3    H261904   0.257   6.558  16.869  0.3132 -0.4386 -1.1901
13497TIP3   OH261905   3.836   3.291  13.899  0.2385 -0.2829 -0.4150
13497TIP3    H161906   3.849   3.346  13.977 -2.6466 -1.7429  1.2303
13497TIP3    H261907   3.768   3.336  13.849 -1.0770 -1.5267  0.1984
13498TIP3   OH261908   1.924   4.484   3.590 -0.1473 -0.1967  0.2723
13498TIP3    H161909   1.990   4.486   3.521  0.3761 -1.0412  0.7140
13498TIP3    H261910   1.843   4.460   3.546  0.1849 -0.7335 -0.0625
13499TIP3   OH261911   6.364   2.699  17.022  0.2827  0.2105  0.5879
13499TIP3    H161912   6.370   2.626  17.084  1.8327 -3.0115 -2.9713
13499TIP3    H261913   6.448   2.743  17.029  0.2522  0.1984  1.0918
13500TIP3   OH261914   4.535   2.961  17.015 -0.6278  0.0893  0.4935
13500TIP3    H161915   4.483   2.932  17.089  0.0559  0.3855  1.1051
13500TIP3    H261916   4.528   3.057  17.017  2.1386  0.3690  2.3011
13501TIP3   OH261917   4.551   2.794  15.260 -0.5314 -0.0515 -0.1822
13501TIP3    H161918   4.580   2.839  15.340  1.5548 -0.2063 -0.7889
13501TIP3    H261919   4.481   2.736  15.289  0.1024 -0.0145  1.5275
13502TIP3   OH261920   0.707   2.171  11.870  0.2751 -0.7634 -0.5484
13502TIP3    H161921   0.689   2.110  11.798  2.6363 -2.0359 -0.1565
13502TIP3    H261922   0.690   2.120  11.949  0.6679 -0.3786 -0.2136
13503TIP3   OH261923   3.297   3.668   3.940  0.1640 -0.0401 -0.0240
13503TIP3    H161924   3.261   3.665   4.028 -0.1423 -0.1433 -0.1498
13503TIP3    H261925   3.367   3.733   3.944  0.6884 -0.6214  0.4914
13504TIP3   OH261926   5.857   4.238  17.019  0.1946  0.2437 -0.0408
13504TIP3    H161927   5.768   4.217  16.991  0.6657 -0.3172 -1.1393
13504TIP3    H261928   5.855   4.333  17.031 -0.1212  0.4700 -1.6718
13505TIP3   OH261929   1.691   6.241   5.285 -0.3033 -0.6391  0.1872
13505TIP3    H161930   1.687   6.303   5.357 -2.9067 -1.3288  0.7344
13505TIP3    H261931   1.748   6.171   5.317  0.5266  0.2144  0.5956
13506TIP3   OH261932   0.401   6.058  15.186  0.1409  0.3485  0.2324
13506TIP3    H161933   0.464   6.003  15.233  0.0767 -0.9275 -1.0885
13506TIP3    H261934   0.385   6.132  15.244 -0.7735 -1.6629  2.7378
13507TIP3   OH261935   1.617   5.472  13.898 -0.8644 -0.2234  0.2339
13507TIP3    H161936   1.693   5.461  13.840  0.3739 -3.0057  2.1328
13507TIP3    H261937   1.652   5.519  13.974 -2.3379  2.8951 -0.8816
13508TIP3   OH261938   5.752   0.674   5.893  0.4031  0.4988 -0.0907
13508TIP3    H161939   5.717   0.651   5.979 -2.7676 -1.2282 -1.6174
13508TIP3    H261940   5.717   0.761   5.875  0.8374  0.7447  0.2589
13509TIP3   OH261941   0.951   5.626   3.484 -0.3928  0.3497  0.0816
13509TIP3    H161942   0.987   5.708   3.449 -1.0847  0.4668 -0.3851
13509TIP3    H261943   0.923   5.648   3.573  1.7207 -0.0461  0.8940
13510TIP3   OH261944   0.417   6.134  16.144  0.2389 -0.0195 -0.5967
13510TIP3    H161945   0.443   6.047  16.174 -2.4299 -0.7526 -0.0716
13510TIP3    H261946   0.464   6.195  16.202  1.4137 -1.1381 -0.3418
13511TIP3   OH261947   4.281   2.144   0.963 -0.2183 -0.4669  0.2279
13511TIP3    H161948   4.254   2.063   0.920 -1.4127 -0.8565  1.6387
13511TIP3    H261949   4.372   2.156   0.936 -0.7531 -0.9038 -2.0254
13512TIP3   OH261950   5.938   1.678   5.855  0.1828  0.2947 -0.1334
13512TIP3    H161951   5.861   1.685   5.912 -0.2295  1.1731 -0.7943
13512TIP3    H261952   5.911   1.717   5.772  1.6655  1.6221 -0.0433
13513TIP3   OH261953   5.958   4.085  10.775 -0.1288 -0.0731  0.0910
13513TIP3    H161954   5.933   4.105  10.685  1.3823  1.7888  0.0385
13513TIP3    H261955   5.986   3.993  10.772 -1.5132 -0.4906 -0.9784
13514TIP3   OH261956   6.063   1.084  12.618  0.2485  0.0896  0.3626
13514TIP3    H161957   6.038   1.051  12.531  0.2351  1.7548 -0.3024
13514TIP3    H261958   6.155   1.060  12.626  1.4502  3.2297 -1.8783
13515TIP3   OH261959   0.862   2.019  16.504 -0.0171  0.4923 -0.0505
13515TIP3    H161960   0.920   1.967  16.559 -1.1644 -0.8339 -0.0358
13515TIP3    H261961   0.829   2.088  16.563  0.3403  0.3261  0.3534
13516TIP3   OH261962   0.528   2.647   0.834  0.0198  0.1228  0.5981
13516TIP3    H161963   0.443   2.617   0.865  0.1763  0.0275  0.9345
13516TIP3    H261964   0.577   2.667   0.913  0.1421  0.6513  0.3967
13517TIP3   OH261965   5.780   3.503  16.879  0.3708  0.0964  0.6834
13517TIP3    H161966   5.840   3.452  16.824 -1.7502 -1.1182 -0.5974
13517TIP3    H261967   5.760   3.446  16.952  0.4101  0.3351  0.8836
13518TIP3   OH261968   2.091   5.396  11.088  0.9297  0.4065  0.1850
13518TIP3    H161969   2.140   5.367  11.165  1.1692  0.7745  0.1729
13518TIP3    H261970   2.090   5.320  11.030 -0.5254 -0.3719  1.1654
13519TIP3   OH261971   3.692   5.723  12.831 -0.5398 -0.0085  0.2756
13519TIP3    H161972   3.780   5.700  12.802 -0.2901  0.0495  0.9739
13519TIP3    H261973   3.665   5.794  12.772 -0.3592 -0.4192 -0.3171
13520TIP3   OH261974   3.413   2.212   0.008  0.5357 -0.8763 -0.1399
13520TIP3    H161975   3.332   2.171   0.037 -0.4654 -0.1402 -1.8154
13520TIP3    H261976   3.428   2.178  -0.080  1.5271 -0.2609 -0.2282
13521TIP3   OH261977   3.740   3.655   2.693 -0.6346 -0.6694 -0.2134
13521TIP3    H161978   3.696   3.678   2.611  0.8806  0.3366 -0.7953
13521TIP3    H261979   3.698   3.710   2.759 -0.7054 -0.2238 -0.6254
13522TIP3   OH261980   1.058   6.024  14.165  0.2442  0.1864  0.4958
13522TIP3    H161981   1.137   5.970  14.177 -0.8904 -1.4706  0.8869
13522TIP3    H261982   1.068   6.060  14.077  0.9727 -0.8355  0.1256
13523TIP3   OH261983   2.909   2.269  11.619 -0.2080  0.1162 -0.0954
13523TIP3    H161984   2.841   2.202  11.618 -1.8699  1.6739  1.3674
13523TIP3    H261985   2.907   2.307  11.532 -0.7058 -0.3444 -0.2865
13524TIP3   OH261986   6.245   5.666   0.005  0.1923  0.2948 -0.4836
13524TIP3    H161987   6.305   5.690  -0.066  2.6634 -0.9957  1.0678
13524TIP3    H261988   6.175   5.617  -0.039  0.6162  1.1746 -2.2433
13525TIP3   OH261989   1.478   1.972  13.439 -0.1355 -0.5076 -0.1188
13525TIP3    H161990   1.415   1.902  13.425 -0.5871 -0.4664  1.4739
13525TIP3    H261991   1.437   2.050  13.400 -0.6260 -0.6865  0.0373
13526TIP3   OH261992   2.893   0.137   5.001 -0.0593 -0.3205  0.6599
13526TIP3    H161993   2.980   0.115   4.969 -0.1781 -1.2737  0.9527
13526TIP3    H261994   2.907   0.202   5.069  0.2017  1.7392 -1.2722
13527TIP3   OH261995   0.097   2.595   2.124 -0.4938  0.5137 -0.6379
13527TIP3    H161996   0.126   2.640   2.044  1.8590 -0.3171 -0.3271
13527TIP3    H261997   0.132   2.647   2.195 -0.2849 -0.2038 -0.2068
13528TIP3   OH261998   2.953   2.119  13.845  0.2349  0.6371 -0.0029
13528TIP3    H161999   2.923   2.209  13.832 -1.6656 -0.0477 -0.8144
13528TIP3    H262000   2.941   2.078  13.759 -0.1944 -0.7138  0.6800
13529TIP3   OH262001   4.727   5.703   6.136 -0.1588  0.0942 -0.4885
13529TIP3    H162002   4.716   5.698   6.041 -1.4247 -1.6727 -0.3020
13529TIP3    H262003   4.816   5.670   6.151 -0.0547  0.1068 -1.0389
13530TIP3   OH262004   0.307   0.136   4.479  0.7444 -0.2441 -0.3287
13530TIP3    H162005   0.333   0.067   4.540  0.6371  0.0530  0.0562
13530TIP3    H262006   0.390   0.169   4.444  0.9800  1.2811  1.5410
13531TIP3   OH262007   0.222   6.617  11.911  0.3572  0.0083  0.1153
13531TIP3    H162008   0.268   6.608  11.995 -0.0011  0.3138  0.3425
13531TIP3    H262009   0.257   6.697  11.873 -1.9599  1.8194  1.5475
13532TIP3   OH262010   3.904   3.139  13.562  0.4710  0.0224 -0.3878
13532TIP3    H162011   3.891   3.221  13.515  1.4296 -1.0244 -2.5914
13532TIP3    H262012   3.850   3.075  13.516  0.4897 -0.8165  0.6939
13533TIP3   OH262013   5.687   5.107  13.438  0.2515 -0.0470 -0.4006
13533TIP3    H162014   5.595   5.133  13.438 -0.4260 -2.0709  1.7952
13533TIP3    H262015   5.689   5.030  13.380  0.5541 -0.0038 -0.4465
13534TIP3   OH262016   4.429   6.134   1.891 -0.0935 -0.1828 -0.7109
13534TIP3    H162017   4.459   6.084   1.815  1.1974 -0.9187  0.2456
13534TIP3    H262018   4.423   6.070   1.961 -0.5149  0.6194  0.0023
13535TIP3   OH262019   3.454   6.478  16.961  0.0974 -0.2311  0.3760
13535TIP3    H162020   3.461   6.564  16.919  3.3202 -1.3979 -1.8317
13535TIP3    H262021   3.391   6.430  16.908  1.1826 -0.3962 -0.8249
13536TIP3   OH262022   2.258   0.897   4.850  0.5066 -0.1681 -0.6497
13536TIP3    H162023   2.297   0.810   4.857  1.0194  0.0005 -1.3440
13536TIP3    H262024   2.215   0.911   4.935  1.5723 -0.5409 -0.0299
13537TIP3   OH262025   0.389   1.954  14.206  0.2862 -0.2327 -0.5229
13537TIP3    H162026   0.302   1.978  14.173 -0.1671  1.0399  1.4539
13537TIP3    H262027   0.449   2.008  14.154 -0.2026 -0.0782 -0.9414
13538TIP3   OH262028   4.311   4.807   0.498  0.2607  0.0741  0.4034
13538TIP3    H162029   4.391   4.838   0.541 -0.0371  1.1397  0.2097
13538TIP3    H262030   4.255   4.779   0.571  0.2360  0.7230  0.6405
13539TIP3   OH262031   0.705   0.263  13.520  0.3505  0.5617  0.3237
13539TIP3    H162032   0.738   0.331  13.579 -0.9978 -0.3271  2.2055
13539TIP3    H262033   0.612   0.257  13.541 -0.3598  0.6525 -2.4289
13540TIP3   OH262034   4.727   1.383   4.512 -0.1766  0.2522  0.3777
13540TIP3    H162035   4.709   1.421   4.598  0.5612 -0.2103  0.7530
13540TIP3    H262036   4.752   1.458   4.458 -1.4529  0.6587  0.3243
13541TIP3   OH262037   4.145   3.368   3.573 -0.1336  0.5493 -0.2749
13541TIP3    H162038   4.095   3.428   3.628  0.4272  1.6992 -0.9709
13541TIP3    H262039   4.086   3.348   3.500  0.6632  2.5930 -1.5475
13542TIP3   OH262040   6.078   0.372  13.254 -0.2361 -0.3544  0.4563
13542TIP3    H162041   6.103   0.280  13.269  0.3781 -0.5184 -1.4080
13542TIP3    H262042   6.002   0.367  13.196  0.1576  0.3302 -0.1303
13543TIP3   OH262043   5.755   1.099  14.828  0.4321 -0.1285 -0.0044
13543TIP3    H162044   5.677   1.141  14.793 -0.8802 -1.4831  1.1643
13543TIP3    H262045   5.811   1.084  14.752 -1.0977 -0.4586 -1.1156
13544TIP3   OH262046   4.914   4.476  11.470 -0.4743  0.0854  0.2742
13544TIP3    H162047   4.845   4.481  11.403 -1.7173  1.1812  1.5586
13544TIP3    H262048   4.874   4.515  11.547  1.5604  0.5635  1.1328
13545TIP3   OH262049   4.153   0.116   0.008 -0.2749  0.7810  0.0434
13545TIP3    H162050   4.212   0.152  -0.058 -0.7130  2.2719  0.4363
13545TIP3    H262051   4.073   0.167  -0.000 -0.6647  0.3812  1.1162
13546TIP3   OH262052   4.384   1.439   3.198 -0.0728  0.1759  0.3653
13546TIP3    H162053   4.397   1.434   3.293 -0.4933 -0.0171  0.4149
13546TIP3    H262054   4.371   1.533   3.182  1.0620  0.3404  0.3491
13547TIP3   OH262055   5.932   6.134   4.339  0.2373 -0.3644  0.2629
13547TIP3    H162056   5.936   6.228   4.359 -1.8275  0.3803 -2.3323
13547TIP3    H262057   5.933   6.092   4.425  1.9608  1.9401  1.4946
13548TIP3   OH262058   2.295   0.143  15.417 -0.9519 -0.3025 -0.7232
13548TIP3    H162059   2.323   0.176  15.331  2.0327  0.7501  0.5097
13548TIP3    H262060   2.200   0.135  15.410 -1.0999  2.1008 -3.3370
13549TIP3   OH262061   0.401   5.251   1.356 -0.4051 -0.5961 -0.1114
13549TIP3    H162062   0.405   5.192   1.281 -2.0357 -1.5545  0.5087
13549TIP3    H262063   0.492   5.279   1.369 -0.1987  0.4192 -3.0314
13550TIP3   OH262064   2.377   0.365   3.276 -0.2490  0.3454  0.1563
13550TIP3    H162065   2.439   0.382   3.205 -1.4579  1.7398 -0.6247
13550TIP3    H262066   2.385   0.271   3.292  1.0812  0.2475 -0.8303
13551TIP3   OH262067   2.370   0.614  10.772 -0.6579 -0.1735  0.7925
13551TIP3    H162068   2.299   0.674  10.749 -0.9439 -0.8241 -0.0559
13551TIP3    H262069   2.434   0.625  10.703 -1.2590 -1.7143 -0.0501
13552TIP3   OH262070   0.618   0.313   2.677  0.1194  0.6967  0.1453
13552TIP3    H162071   0.704   0.271   2.681 -0.1102 -0.2019 -2.3637
13552TIP3    H262072   0.619   0.361   2.594 -1.3321  1.7723  0.7190
13553TIP3   OH262073   0.741   1.852  12.897 -0.3961 -0.3149  0.2238
13553TIP3    H162074   0.751   1.862  12.992 -2.9111  1.4448  0.3863
13553TIP3    H262075   0.786   1.928  12.859  0.9145 -1.2000 -0.0807
13554TIP3   OH262076   4.059   2.791   1.022  0.0998  0.2003  0.2638
13554TIP3    H162077   4.061   2.887   1.019  0.4587  0.2916  2.2161
13554TIP3    H262078   4.147   2.766   1.053 -0.3540 -0.6762  0.8952
13555TIP3   OH262079   1.951   1.551  15.253 -0.1166  0.1634 -0.3138
13555TIP3    H162080   1.969   1.610  15.326  0.3333 -1.0161  0.5723
13555TIP3    H262081   1.973   1.464  15.287  1.1559 -0.3119 -2.2003
13556TIP3   OH262082   4.686   2.212  13.987 -0.1291 -0.1723  0.0156
13556TIP3    H162083   4.697   2.224  13.892  0.6189 -0.5263  0.0453
13556TIP3    H262084   4.597   2.242  14.005  0.1865  1.2137 -0.5822
13557TIP3   OH262085   4.295   1.098   1.401 -0.2220 -0.2363  0.0523
13557TIP3    H162086   4.346   1.175   1.427  1.3381 -1.4444  0.7588
13557TIP3    H262087   4.313   1.087   1.308  0.2132 -0.2049  0.1290
13558TIP3   OH262088   5.624   1.672   0.843 -0.2211 -0.3273 -0.2415
13558TIP3    H162089   5.578   1.589   0.832  0.2564 -0.3707 -2.0758
13558TIP3    H262090   5.715   1.647   0.860  0.1026 -0.2013 -1.6814
13559TIP3   OH262091   5.785   5.501   5.339  0.4077 -0.0483  0.2359
13559TIP3    H162092   5.813   5.581   5.294  1.1964  1.9791  3.9083
13559TIP3    H262093   5.797   5.521   5.432 -1.7515 -3.6107  1.4590
13560TIP3   OH262094   4.138   0.351  15.702  0.1909 -0.3737 -0.0546
13560TIP3    H162095   4.220   0.369  15.655 -0.8528 -0.6895 -2.1247
13560TIP3    H262096   4.070   0.365  15.636 -1.3115 -1.7642  1.1327
13561TIP3   OH262097   1.083   3.462   3.733  0.5621  0.0051  0.0965
13561TIP3    H162098   1.090   3.541   3.680  1.6345  0.1789  0.4664
13561TIP3    H262099   1.080   3.493   3.823  1.2262 -0.3606  0.2591
13562TIP3   OH262100   2.573   5.821  12.528  0.3199  0.0198 -0.2889
13562TIP3    H162101   2.508   5.766  12.573 -1.0561  2.2706  0.6430
13562TIP3    H262102   2.655   5.800  12.572 -0.2975 -0.7597  0.5525
13563TIP3   OH262103   2.098   4.663  16.420  0.1205  0.5356 -0.2219
13563TIP3    H162104   2.004   4.657  16.439 -0.0528  0.6742 -1.0075
13563TIP3    H262105   2.107   4.623  16.333  0.4175  2.7279 -1.2600
13564TIP3   OH262106   0.072   5.317  15.976 -0.0588 -0.0564 -0.5160
13564TIP3    H162107   0.075   5.222  15.988  0.3815 -0.1541 -1.3175
13564TIP3    H262108   0.133   5.351  16.041  0.4336 -0.3929 -0.7914
13565TIP3   OH262109   4.651   4.658  15.384  0.6224  0.3246  0.8952
13565TIP3    H162110   4.712   4.666  15.457  1.2019  1.7401  0.2996
13565TIP3    H262111   4.681   4.723  15.320 -0.1659 -0.5229 -0.3950
13566TIP3   OH262112   2.970   3.813   5.514  0.1116 -0.0981  0.0488
13566TIP3    H162113   2.964   3.750   5.442 -0.9920 -2.4410  2.0414
13566TIP3    H262114   2.881   3.846   5.525  0.9067  2.9582 -1.8120
13567TIP3   OH262115   3.962   3.603  15.315  0.0060 -0.7482 -0.2000
13567TIP3    H162116   3.879   3.644  15.341 -0.3409 -0.5676 -1.5157
13567TIP3    H262117   4.003   3.668  15.257  1.1390 -0.7827  0.5407
13568TIP3   OH262118   3.233   4.110  13.876 -0.1498 -0.1269  0.0760
13568TIP3    H162119   3.321   4.122  13.841 -0.0168 -0.0167  0.4473
13568TIP3    H262120   3.194   4.043  13.820  0.2199 -0.2808  0.0019
13569TIP3   OH262121   3.204   5.788   4.875 -0.5129 -0.4082  0.6708
13569TIP3    H162122   3.247   5.854   4.931 -0.8045  2.0591 -1.7800
13569TIP3    H262123   3.113   5.817   4.870 -0.3449 -0.1259 -1.5603
13570TIP3   OH262124   2.096   4.112  15.903 -0.9016 -0.3051 -0.4193
13570TIP3    H162125   2.187   4.100  15.930 -1.3837  0.8503  1.9885
13570TIP3    H262126   2.102   4.158  15.819  0.6831 -2.1972 -1.4437
13571TIP3   OH262127   1.894   4.530   0.400 -0.8788  0.3312 -0.1251
13571TIP3    H162128   1.838   4.452   0.402 -1.1939  0.5513 -0.2402
13571TIP3    H262129   1.837   4.599   0.364  0.0373  0.0942 -2.1660
13572TIP3   OH262130   1.464   3.239  15.095 -0.1738  0.0366 -0.0958
13572TIP3    H162131   1.425   3.282  15.171 -0.5357 -0.5134  0.0351
13572TIP3    H262132   1.390   3.202  15.046  0.1713 -1.2126  0.2735
13573TIP3   OH262133   3.129   6.065  16.326  0.0796  0.4192  0.7262
13573TIP3    H162134   3.185   5.998  16.367 -0.9571 -0.4094  0.8497
13573TIP3    H262135   3.081   6.104  16.400  0.5077  1.1408  0.6276
13574TIP3   OH262136   6.069   6.058  14.680 -0.5187 -0.1464  0.1574
13574TIP3    H162137   6.118   5.981  14.650 -3.1184 -2.3429  1.1875
13574TIP3    H262138   5.993   6.063  14.622 -1.2022  0.7033  1.0871
13575TIP3   OH262139   4.057   1.705  13.899  0.0701 -0.3125 -0.3532
13575TIP3    H162140   4.147   1.674  13.898  0.4796  0.8460 -0.4390
13575TIP3    H262141   4.019   1.668  13.979  1.0697  0.4286  0.4838
13576TIP3   OH262142   5.936   5.508  16.385 -0.0118  0.0855 -0.3841
13576TIP3    H162143   5.998   5.462  16.328 -0.2985  1.7837 -2.1361
13576TIP3    H262144   5.958   5.600  16.375 -1.4806  0.5790  0.6251
13577TIP3   OH262145   1.231   3.013   3.866 -0.2019  0.1304  0.2983
13577TIP3    H162146   1.281   2.933   3.849  1.2183  0.8580  0.8502
13577TIP3    H262147   1.270   3.079   3.808 -0.3078  0.7807  0.9468
13578TIP3   OH262148   0.716   0.767  16.767  0.6428 -0.6706  0.2147
13578TIP3    H162149   0.694   0.744  16.858  0.5280  0.8366  0.5922
13578TIP3    H262150   0.810   0.753  16.761  0.5302 -1.5347  0.3202
13579TIP3   OH262151   2.035   3.744  12.352  0.0515 -0.0537 -0.4216
13579TIP3    H162152   2.083   3.663  12.370 -0.3982 -0.1964  0.1546
13579TIP3    H262153   1.966   3.746  12.417  1.5122  2.0141  1.1876
13580TIP3   OH262154   0.867   4.470   6.120  0.1062  0.0199 -0.2021
13580TIP3    H162155   0.935   4.425   6.070  0.8283  0.7062  0.1380
13580TIP3    H262156   0.879   4.562   6.099 -0.2646  0.2136  0.4123
13581TIP3   OH262157   2.935   6.294  12.440 -0.2243 -0.1200 -0.3859
13581TIP3    H162158   2.892   6.243  12.372 -1.1816 -0.0499  0.1480
13581TIP3    H262159   3.029   6.282  12.424 -0.4369 -0.9351 -1.0798
13582TIP3   OH262160   3.788   6.440   2.220 -0.3603 -0.0503  0.0521
13582TIP3    H162161   3.730   6.377   2.264 -1.4669  0.4845 -0.6064
13582TIP3    H262162   3.730   6.512   2.194  1.0533  1.8830  1.8998
13583TIP3   OH262163   6.597   5.704  15.345  0.3977  0.0241 -0.2937
13583TIP3    H162164   6.599   5.609  15.350 -2.5968 -0.0748  2.1662
13583TIP3    H262165   6.587   5.732  15.436 -0.4769  2.5893 -1.0907
13584TIP3   OH262166   3.145   4.399   3.188  0.3033  0.5768 -0.3774
13584TIP3    H162167   3.217   4.356   3.142 -0.5656 -0.5181 -0.7625
13584TIP3    H262168   3.071   4.394   3.128 -0.7792 -0.6139  0.9678
13585TIP3   OH262169   4.225   0.386   2.889  0.0432 -0.0417  0.1400
13585TIP3    H162170   4.233   0.300   2.847  0.3147  0.8853 -1.8350
13585TIP3    H262171   4.301   0.391   2.948  1.0831 -0.4406 -1.1137
13586TIP3   OH262172   3.766   0.302  15.516 -0.5611  1.0622 -0.2566
13586TIP3    H162173   3.746   0.304  15.610  0.2110  0.9962 -0.0831
13586TIP3    H262174   3.699   0.245  15.478 -1.0384  1.2990  0.2093
13587TIP3   OH262175   3.656   4.762   5.861  0.1775 -0.7010 -0.2661
13587TIP3    H162176   3.747   4.778   5.885  0.4904 -3.6090  1.0062
13587TIP3    H262177   3.605   4.797   5.934  0.2184  1.1386 -1.0895
13588TIP3   OH262178   1.708   3.847  15.659 -0.1567  0.5302 -0.4299
13588TIP3    H162179   1.758   3.894  15.726  0.0532  0.1705 -0.3358
13588TIP3    H262180   1.770   3.836  15.587 -0.1143  0.1097 -0.3252
13589TIP3   OH262181   0.069   3.304  14.498  0.1428  0.4321 -0.3624
13589TIP3    H162182   0.065   3.376  14.436  1.3368  0.1338 -0.8148
13589TIP3    H262183   0.155   3.313  14.540 -0.3299  0.1850  0.7070
13590TIP3   OH262184   4.464   6.472   2.905 -0.5208  0.0600  0.6314
13590TIP3    H162185   4.439   6.505   2.991 -1.7484  0.9484 -0.0156
13590TIP3    H262186   4.383   6.477   2.854 -0.3636 -2.5365  0.0264
13591TIP3   OH262187   6.430   3.045   3.160  0.1408  0.2220  0.4479
13591TIP3    H162188   6.448   2.967   3.107  0.0799 -0.3318  1.2290
13591TIP3    H262189   6.510   3.097   3.154 -0.0663  0.4469 -0.6438
13592TIP3   OH262190   0.516   2.177  14.146 -0.5197  0.8060  0.1458
13592TIP3    H162191   0.604   2.207  14.125 -0.8819  1.2602 -0.7766
13592TIP3    H262192   0.463   2.256  14.149 -1.0396  0.4745 -0.0368
13593TIP3   OH262193   3.828   1.247   2.933 -0.3525  0.6335  0.2448
13593TIP3    H162194   3.879   1.298   2.997  1.4612 -1.3763  0.5072
13593TIP3    H262195   3.843   1.291   2.850 -0.5272  1.7186  0.7693
13594TIP3   OH262196   5.338   6.115   1.599  0.2292 -0.4003 -0.2617
13594TIP3    H162197   5.253   6.104   1.642  1.3386 -0.4161  2.0801
13594TIP3    H262198   5.369   6.026   1.585  1.1399 -0.4518  1.7230
13595TIP3   OH262199   6.049   2.643   2.408  0.2033 -0.0530 -0.2841
13595TIP3    H162200   6.144   2.653   2.402  0.4437  1.1544  3.0916
13595TIP3    H262201   6.016   2.733   2.404 -0.4238 -0.1389  1.9412
13596TIP3   OH262202   0.193   0.660   2.843  0.9518  0.2478 -0.4266
13596TIP3    H162203   0.121   0.598   2.856  0.0208  1.0636 -1.5268
13596TIP3    H262204   0.272   0.606   2.850  0.1722 -1.0780 -1.3663
13597TIP3   OH262205   6.328   2.465   4.437 -0.1730 -0.2438  0.0750
13597TIP3    H162206   6.372   2.485   4.520 -0.9232  1.0072  0.2002
13597TIP3    H262207   6.384   2.505   4.371  0.8690 -1.9553 -0.1349
13598TIP3   OH262208   6.211   6.423   5.739  0.1296  0.3872  0.2455
13598TIP3    H162209   6.179   6.512   5.729 -1.9365 -0.1650  1.4919
13598TIP3    H262210   6.300   6.433   5.773 -0.1684  1.9632  0.6041
13599TIP3   OH262211   5.529   2.272  15.300  0.3313 -0.3648 -0.2359
13599TIP3    H162212   5.495   2.191  15.262 -1.5899  0.2334  0.0873
13599TIP3    H262213   5.576   2.314  15.228 -1.4824 -0.2305 -1.4012
13600TIP3   OH262214   4.028   5.399  10.731  0.0808  0.4733  0.5135
13600TIP3    H162215   4.002   5.491  10.728  0.2961  0.5192  0.0767
13600TIP3    H262216   4.079   5.386  10.652  1.1019  0.2992  1.1828
13601TIP3   OH262217   0.574   6.482  13.818 -0.6540  0.7307  0.2885
13601TIP3    H162218   0.489   6.490  13.775 -0.4542  0.9343 -0.0697
13601TIP3    H262219   0.629   6.436  13.754 -0.1081  1.7982 -0.0252
13602TIP3   OH262220   3.709   4.378   5.242 -0.4485 -0.0201 -0.4645
13602TIP3    H162221   3.668   4.439   5.181  0.9781  0.0035 -1.4368
13602TIP3    H262222   3.706   4.293   5.198 -1.4857 -0.4848  0.4432
13603TIP3   OH262223   0.164   0.573  10.975  0.0304  0.1526 -0.5914
13603TIP3    H162224   0.118   0.507  10.923  0.3503 -0.9925  0.5205
13603TIP3    H262225   0.103   0.647  10.980 -0.7935 -0.4923 -0.9232
13604TIP3   OH262226   1.532   4.097  14.917 -0.0167  0.3689 -1.0977
13604TIP3    H162227   1.539   4.088  15.012 -0.1147 -1.1010 -1.2155
13604TIP3    H262228   1.534   4.192  14.902  2.5758  0.5886  0.1430
13605TIP3   OH262229   1.185   5.038   2.395 -0.6168 -0.4061 -0.0919
13605TIP3    H162230   1.175   5.020   2.488 -0.0435 -0.4481 -0.0330
13605TIP3    H262231   1.263   4.988   2.369 -1.4544 -1.3702 -0.8604
13606TIP3   OH262232   5.289   3.161   0.693 -0.4483 -0.0685 -0.6949
13606TIP3    H162233   5.294   3.164   0.597 -2.0736  1.1475 -0.7954
13606TIP3    H262234   5.195   3.171   0.712 -0.2573 -1.0242  1.0241
13607TIP3   OH262235   3.264   0.026   2.405  1.0174 -0.1530  0.1563
13607TIP3    H162236   3.249   0.021   2.311  2.7604  1.7644 -0.3008
13607TIP3    H262237   3.229  -0.057   2.440 -1.2924 -0.1526 -1.8867
13608TIP3   OH262238   5.491   5.494  13.391 -0.3728 -0.4843  0.5285
13608TIP3    H162239   5.485   5.414  13.443  0.0461  0.2610  1.7741
13608TIP3    H262240   5.585   5.509  13.381 -0.3882 -1.5321 -1.9730
13609TIP3   OH262241   2.787   0.447   2.536  0.4381 -0.3667  0.4335
13609TIP3    H162242   2.743   0.532   2.527  1.5553  0.7519  3.9653
13609TIP3    H262243   2.843   0.441   2.459 -1.0799  1.1666 -0.8720
13610TIP3   OH262244   4.761   1.064   5.732 -0.3163 -0.0006  0.7134
13610TIP3    H162245   4.827   1.025   5.675  0.0870  3.7907 -1.7281
13610TIP3    H262246   4.807   1.081   5.814  0.8770 -0.1263  0.0960
13611TIP3   OH262247   0.349   4.075  10.642 -0.2410 -0.4462  0.5432
13611TIP3    H162248   0.259   4.106  10.628 -0.2055  0.1431  1.5070
13611TIP3    H262249   0.380   4.050  10.555 -1.0716  0.0877  0.0801
13612TIP3   OH262250   4.123   3.694  16.967  0.7631 -0.1531  0.1109
13612TIP3    H162251   4.085   3.696  17.055 -1.5504  0.3317 -0.8264
13612TIP3    H262252   4.217   3.692  16.982  0.4361 -1.8103  2.6139
13613TIP3   OH262253   5.223   1.102   6.328  0.3682 -0.5271 -0.3005
13613TIP3    H162254   5.214   1.192   6.357  0.7816 -0.7010  0.3716
13613TIP3    H262255   5.179   1.100   6.243 -0.1847  0.1565 -0.0364
13614TIP3   OH262256   4.048   2.496  12.312 -0.1645  0.6335  0.0495
13614TIP3    H162257   4.065   2.445  12.233  0.0821 -0.0041  0.4994
13614TIP3    H262258   3.986   2.563  12.285  0.1775  0.6378 -0.7591
13615TIP3   OH262259   6.745   3.860   4.262  0.0232  0.0319 -0.5989
13615TIP3    H162260   6.840   3.864   4.245 -0.2599  0.2641 -2.2796
13615TIP3    H262261   6.739   3.848   4.357  1.7073  2.4412 -0.0681
13616TIP3   OH262262   5.976   2.992  15.605 -0.5253 -0.1189 -0.0607
13616TIP3    H162263   5.996   2.959  15.518  0.7301  0.4195  0.0067
13616TIP3    H262264   6.008   3.082  15.605 -3.4530  1.0369 -0.0809
13617TIP3   OH262265   2.824   3.468   2.363  0.1093 -0.3077  0.1928
13617TIP3    H162266   2.801   3.559   2.383 -3.6454 -1.0799  0.1714
13617TIP3    H262267   2.835   3.466   2.268  2.4293  0.4505  0.3892
13618TIP3   OH262268   6.685   1.642   3.945 -0.3528  0.0051 -0.2968
13618TIP3    H162269   6.744   1.716   3.934 -0.9505  0.3418 -1.4936
13618TIP3    H262270   6.728   1.585   4.008  0.6789  0.8066 -0.2609
13619TIP3   OH262271   3.726   5.317   3.256  0.6559 -0.5415  0.1343
13619TIP3    H162272   3.695   5.298   3.167 -2.1739 -0.9940  1.1022
13619TIP3    H262273   3.676   5.257   3.312  2.7064 -0.5947  2.0273
13620TIP3   OH262274   1.587   2.403   2.973 -0.0267 -0.1428  0.3061
13620TIP3    H162275   1.541   2.487   2.973 -1.5804 -0.9438 -1.0451
13620TIP3    H262276   1.571   2.367   3.060  0.3545  0.7892  0.7766
13621TIP3   OH262277   1.599   3.121   0.915 -0.4138  0.1277 -0.2664
13621TIP3    H162278   1.666   3.183   0.884 -0.6373  1.0842  1.0899
13621TIP3    H262279   1.530   3.177   0.951 -1.5901 -0.8685 -0.9055
13622TIP3   OH262280   5.561   0.722  14.047  0.3190 -0.6111  0.7210
13622TIP3    H162281   5.521   0.635  14.039  0.0185 -0.4050 -0.0596
13622TIP3    H262282   5.493   0.782  14.016  0.8438 -0.1607  0.4388
13623TIP3   OH262283   0.397   4.792  13.726  0.0504  0.3702  0.4781
13623TIP3    H162284   0.490   4.800  13.747  0.7028 -1.9543 -1.0687
13623TIP3    H262285   0.393   4.803  13.631 -1.1789  0.0491  0.4774
13624TIP3   OH262286   6.082   1.526  14.068 -0.4119  0.1495  0.2340
13624TIP3    H162287   6.004   1.471  14.069 -1.0097  0.9850  0.8334
13624TIP3    H262288   6.079   1.575  14.150 -0.0109  1.2289 -0.3685
13625TIP3   OH262289   4.476   3.966  13.507 -0.3890 -0.0027  0.0244
13625TIP3    H162290   4.522   3.945  13.588 -2.0314  0.4550  1.1176
13625TIP3    H262291   4.389   3.994  13.535 -0.5155  1.6682 -1.7889
13626TIP3   OH262292   2.682   1.130  10.365 -0.3422 -0.6691 -0.2891
13626TIP3    H162293   2.640   1.047  10.387  0.7421 -1.3379 -0.6456
13626TIP3    H262294   2.634   1.161  10.288 -2.4288  0.3656  1.3651
13627TIP3   OH262295   5.929   0.145  12.286  0.6637  0.1622  0.3439
13627TIP3    H162296   5.862   0.130  12.220  0.2498  0.0628  0.7779
13627TIP3    H262297   5.897   0.220  12.336  1.1826  0.5085  0.1658
13628TIP3   OH262298   6.065   4.988   1.688  0.0832 -0.1877 -0.6998
13628TIP3    H162299   6.149   5.027   1.714  1.3205 -2.3885 -1.0937
13628TIP3    H262300   6.040   4.934   1.763 -1.7829  1.4922 -0.0106
13629TIP3   OH262301   0.512   1.894   3.203  0.5565 -0.8943  0.2405
13629TIP3    H162302   0.557   1.812   3.183  1.2352 -0.8338  1.4139
13629TIP3    H262303   0.583   1.958   3.212 -0.0419  0.3925 -2.8670
13630TIP3   OH262304   5.593   0.395   2.832 -0.1655  0.2822 -0.1244
13630TIP3    H162305   5.529   0.442   2.884  0.6686  1.6002 -0.2520
13630TIP3    H262306   5.556   0.393   2.744 -0.3330  0.4300 -0.0560
13631TIP3   OH262307   5.326   4.531  16.000 -0.4194  0.1239  0.0588
13631TIP3    H162308   5.380   4.552  15.923 -0.5616  2.5281  0.5257
13631TIP3    H262309   5.390   4.511  16.069 -0.2348 -0.1479 -0.1876
13632TIP3   OH262310   2.975   1.186  11.020 -0.4503 -0.3119  0.6570
13632TIP3    H162311   2.941   1.149  10.939  0.4790  1.1281 -0.4385
13632TIP3    H262312   3.064   1.150  11.028 -0.1854  0.2970  0.5077
13633TIP3   OH262313   4.177   2.664   5.479 -0.7831 -0.0937  0.1682
13633TIP3    H162314   4.223   2.630   5.402 -1.1062  0.7002 -0.3935
13633TIP3    H262315   4.247   2.692   5.538 -0.4880  1.6226 -0.9160
13634TIP3   OH262316   1.182   4.032  10.491 -0.4727  0.2131  0.8076
13634TIP3    H162317   1.213   4.095  10.425  1.4307  0.0696  1.4964
13634TIP3    H262318   1.192   3.947  10.448 -0.4254  0.2015  0.8425
13635TIP3   OH262319   5.417   4.015   0.091  0.0528  0.1438  0.2222
13635TIP3    H162320   5.324   3.995   0.078 -0.3497 -0.4209  3.1349
13635TIP3    H262321   5.463   3.957   0.031 -1.4355  0.0734 -0.9294
13636TIP3   OH262322   4.344   1.510  11.416  0.0010  0.6144  0.3585
13636TIP3    H162323   4.324   1.419  11.438  0.6276  0.8998  2.3490
13636TIP3    H262324   4.289   1.530  11.341 -0.7033 -1.1769  0.3593
13637TIP3   OH262325   3.030   3.135   3.350  0.2514 -0.5055  0.0713
13637TIP3    H162326   2.950   3.168   3.309  0.8596  0.9017 -0.0243
13637TIP3    H262327   3.100   3.159   3.289  1.0708  0.8274  1.4680
13638TIP3   OH262328   5.670   1.286   0.059 -0.6758 -0.3206 -0.9107
13638TIP3    H162329   5.641   1.205   0.101  0.6927 -0.3186  0.1140
13638TIP3    H262330   5.691   1.345   0.131  0.1307  0.2791 -1.6039
13639TIP3   OH262331   4.264   3.421  14.228 -0.0940 -0.1389 -0.4288
13639TIP3    H162332   4.179   3.466  14.221 -0.7852 -1.5883 -1.9455
13639TIP3    H262333   4.280   3.388  14.140  1.9717 -0.0835 -0.1053
13640TIP3   OH262334   1.585   3.384   2.135 -0.4928  0.7156  0.0649
13640TIP3    H162335   1.627   3.437   2.067  0.8573  0.6533  0.8037
13640TIP3    H262336   1.497   3.420   2.144 -0.0336  1.9828 -0.3503
13641TIP3   OH262337   1.026   0.550  14.705  0.1765 -0.2490  0.5134
13641TIP3    H162338   0.971   0.535  14.782 -0.3478  0.9151  0.3837
13641TIP3    H262339   1.003   0.480  14.645 -0.9622  0.0463  0.5782
13642TIP3   OH262340   2.366   3.085  10.657  0.0172 -0.1449 -0.2511
13642TIP3    H162341   2.286   3.125  10.691  1.1926  2.1482 -0.0205
13642TIP3    H262342   2.367   3.109  10.564  0.5565  0.0523 -0.1963
13643TIP3   OH262343   0.181   0.822  13.410 -0.4699  0.0109  0.4371
13643TIP3    H162344   0.092   0.787  13.411 -0.7793  0.3966 -2.9275
13643TIP3    H262345   0.236   0.748  13.383  0.0276  0.1897  0.9273
13644TIP3   OH262346   0.905   3.800   1.691  0.0872 -0.4058 -0.0552
13644TIP3    H162347   0.922   3.707   1.705  1.6423 -0.0901  0.2959
13644TIP3    H262348   0.925   3.814   1.598  1.6688 -0.0789  0.3079
13645TIP3   OH262349   5.780   2.336  14.046 -0.4553 -0.7367  0.5436
13645TIP3    H162350   5.817   2.250  14.064 -2.5511 -1.7613  0.3601
13645TIP3    H262351   5.721   2.321  13.972 -1.5583  0.6512  1.0906
13646TIP3   OH262352   4.436   3.283   0.305 -0.2514  0.4269 -0.0830
13646TIP3    H162353   4.428   3.326   0.219 -0.7366  2.1120  0.7556
13646TIP3    H262354   4.390   3.342   0.365  1.1685 -0.0585  1.5558
13647TIP3   OH262355   6.719   3.756  13.998 -0.1135  0.4923  0.8324
13647TIP3    H162356   6.703   3.714  14.082 -0.6124 -1.5442 -0.1905
13647TIP3    H262357   6.718   3.684  13.935  0.7218  1.8783 -0.8689
13648TIP3   OH262358   5.652   6.275   1.689 -0.1371  0.2865 -0.3678
13648TIP3    H162359   5.708   6.199   1.707  0.4122  0.0312 -2.7962
13648TIP3    H262360   5.578   6.239   1.641  0.5234  1.3305 -2.2562
13649TIP3   OH262361   6.546   1.353   3.719 -0.1009 -0.0333  0.2822
13649TIP3    H162362   6.625   1.312   3.755 -0.3674 -0.7406  0.0810
13649TIP3    H262363   6.505   1.284   3.668 -0.1725  0.7124 -0.6873
13650TIP3   OH262364   4.318   4.931  11.399 -0.4641 -0.0484  0.2406
13650TIP3    H162365   4.274   4.930  11.313 -0.1216 -1.1030  0.0589
13650TIP3    H262366   4.408   4.904  11.380 -0.1765  0.4584  0.8402
13651TIP3   OH262367   4.896   0.704   4.856  0.2199  0.8991  0.6383
13651TIP3    H162368   4.817   0.723   4.805 -0.7591 -0.2417  1.6670
13651TIP3    H262369   4.965   0.693   4.790 -0.8380  0.2390 -0.3892
13652TIP3   OH262370   0.434   0.964   4.242  0.3016  0.2338 -1.1221
13652TIP3    H162371   0.368   0.997   4.303  1.0761  0.0223 -0.1536
13652TIP3    H262372   0.392   0.972   4.156  0.1989  3.1571 -0.9014
13653TIP3   OH262373   4.105   0.091   4.656 -0.0916 -0.2029 -0.4332
13653TIP3    H162374   4.133   0.010   4.698 -2.4390 -0.6061  0.5150
13653TIP3    H262375   4.172   0.108   4.589  2.2508 -1.0890  1.5220
13654TIP3   OH262376   6.525   5.689  10.733  0.1756  0.1631  0.2113
13654TIP3    H162377   6.521   5.767  10.676  2.6185  0.7677  0.7600
13654TIP3    H262378   6.606   5.645  10.707 -0.4978 -1.5043  0.8377
13655TIP3   OH262379   1.904   0.247  12.655  0.1517 -0.2956  0.3657
13655TIP3    H162380   1.821   0.294  12.655  1.7778  2.9943  2.9584
13655TIP3    H262381   1.955   0.288  12.585  0.2422 -1.1197 -0.0727
13656TIP3   OH262382   5.098   1.572   2.373  0.3145  0.3504  0.8411
13656TIP3    H162383   5.060   1.586   2.460  0.5700 -1.2289  1.2422
13656TIP3    H262384   5.162   1.501   2.386  2.3320  1.9052 -0.1184
13657TIP3   OH262385   3.955   1.077   0.126  0.0148  0.0112  0.1576
13657TIP3    H162386   4.030   1.018   0.135 -0.1733 -0.4484 -1.1105
13657TIP3    H262387   3.924   1.064   0.036 -0.5764  1.3979  0.1251
13658TIP3   OH262388   6.100   4.131  16.422 -0.1664  0.7622 -0.1280
13658TIP3    H162389   6.053   4.048  16.421  2.3817 -0.7455 -0.0832
13658TIP3    H262390   6.099   4.159  16.514 -2.0508  1.4895 -0.3068
13659TIP3   OH262391   2.491   4.495   3.289  0.2109  0.2540 -0.0038
13659TIP3    H162392   2.405   4.455   3.295  0.4904 -0.3034  0.3605
13659TIP3    H262393   2.503   4.538   3.374  1.2297 -1.6155  0.8474
13660TIP3   OH262394   3.488   3.267   5.261 -0.4002  0.0038 -0.1830
13660TIP3    H162395   3.417   3.226   5.311  0.2793 -1.1876 -0.1605
13660TIP3    H262396   3.457   3.356   5.243 -2.8098 -1.0793 -1.9219
13661TIP3   OH262397   3.603   3.714   3.400 -0.2065  0.0644 -0.2433
13661TIP3    H162398   3.541   3.681   3.335 -0.0800  1.4337 -1.0997
13661TIP3    H262399   3.649   3.785   3.355  0.3541  0.6011  1.1355
13662TIP3   OH262400   1.055   1.551   2.392 -0.0287  0.8418 -0.3526
13662TIP3    H162401   1.086   1.467   2.356  0.9213  0.4174  1.3294
13662TIP3    H262402   1.066   1.613   2.320  0.0219 -0.3200 -1.3797
13663TIP3   OH262403   4.888   0.334   3.080  0.5906 -0.1392  0.0281
13663TIP3    H162404   4.860   0.255   3.127  1.7204 -1.8291 -1.9405
13663TIP3    H262405   4.983   0.337   3.092  0.6120  0.6771 -0.2784
13664TIP3   OH262406   1.071   4.047  10.751  0.2666  0.3203  0.1366
13664TIP3    H162407   1.088   4.034  10.658  0.3888  1.8414 -0.0709
13664TIP3    H262408   1.073   3.958  10.788  0.5324 -0.2752 -1.2404
13665TIP3   OH262409   4.821   2.300  14.202 -0.1919 -0.4046  0.2207
13665TIP3    H162410   4.749   2.360  14.222 -0.6420 -1.3003  1.4414
13665TIP3    H262411   4.797   2.259  14.119  0.2361  1.2406 -0.7471
13666TIP3   OH262412   0.142   3.700   5.466  0.3149 -0.1863 -0.2737
13666TIP3    H162413   0.219   3.747   5.434 -0.1164  0.4764 -0.3468
13666TIP3    H262414   0.085   3.694   5.390  1.0159 -2.2436 -0.7087
13667TIP3   OH262415   1.394   5.538  12.003 -0.0850 -0.3052 -0.5104
13667TIP3    H162416   1.391   5.568  11.912 -0.9962 -0.5162 -0.5603
13667TIP3    H262417   1.451   5.462  12.001  1.4551  0.8150 -0.5572
13668TIP3   OH262418   2.063   4.421  13.699  0.1942  0.5778 -0.2121
13668TIP3    H162419   2.103   4.369  13.769 -0.7228  1.2354  0.8364
13668TIP3    H262420   2.125   4.493  13.686  0.1467  0.7113  0.2652
13669TIP3   OH262421   5.171   4.771  12.998  0.1003  0.1543 -0.2296
13669TIP3    H162422   5.096   4.806  12.950  0.0390  0.3480  0.0058
13669TIP3    H262423   5.247   4.795  12.944 -0.1108 -1.5061 -1.3473
13670TIP3   OH262424   4.460   5.986   0.272 -0.5941  0.2089  0.9326
13670TIP3    H162425   4.534   6.047   0.281 -0.3971  0.0771  0.2561
13670TIP3    H262426   4.498   5.909   0.231 -1.0007 -0.0804  1.0944
13671TIP3   OH262427   3.617   4.790  16.064 -0.3708  0.4072  0.3859
13671TIP3    H162428   3.571   4.801  15.980 -3.2915 -0.6326  1.7201
13671TIP3    H262429   3.583   4.708  16.099  1.1734  0.5583  2.3702
13672TIP3   OH262430   3.275   6.748  15.788 -0.0063  0.5858 -0.0515
13672TIP3    H162431   3.238   6.699  15.861 -0.8404  0.2979 -0.6487
13672TIP3    H262432   3.200   6.790  15.746 -0.1896 -2.3514 -3.0588
13673TIP3   OH262433   1.049   4.027  14.582 -0.2576 -0.2427 -0.0062
13673TIP3    H162434   1.104   4.047  14.657  2.6886 -0.8383 -1.8377
13673TIP3    H262435   0.972   4.083  14.592  1.7272  2.4087  1.5525
13674TIP3   OH262436   3.324   0.130  17.180  0.3977  0.3006 -0.0968
13674TIP3    H162437   3.228   0.126  17.174  0.5040 -2.0457 -3.2570
13674TIP3    H262438   3.349   0.192  17.111  1.1921  1.0644  0.8546
13675TIP3   OH262439   0.762   5.693   0.605  0.5468  0.0699  0.5103
13675TIP3    H162440   0.726   5.608   0.579 -1.6246  0.3536  2.3091
13675TIP3    H262441   0.853   5.674   0.630  0.3136 -1.5877  0.2001
13676TIP3   OH262442   5.358   6.696   1.729 -0.2129  0.2063  0.4337
13676TIP3    H162443   5.352   6.630   1.799 -1.0252 -2.4245 -1.9228
13676TIP3    H262444   5.421   6.658   1.667 -0.1267  2.0667 -0.6815
13677TIP3   OH262445   5.407   5.831   1.196 -0.7648 -0.1777 -0.3375
13677TIP3    H162446   5.408   5.911   1.143  0.3823  0.6341  0.8580
13677TIP3    H262447   5.448   5.856   1.278  1.2339 -2.4391 -0.5383
13678TIP3   OH262448   0.219   3.133   4.521 -0.1054 -0.6106 -0.5582
13678TIP3    H162449   0.178   3.215   4.547 -0.4317 -1.1603  0.7920
13678TIP3    H262450   0.224   3.136   4.426 -1.6088  0.2712 -0.6257
13679TIP3   OH262451   3.081   3.351   3.872 -0.6091  0.6406 -0.5951
13679TIP3    H162452   3.136   3.421   3.906  0.5701 -0.3985 -0.3246
13679TIP3    H262453   3.064   3.295   3.947 -0.4884 -0.0405 -1.0689
13680TIP3   OH262454   2.306   1.419   0.190  0.0937 -0.1160 -0.3475
13680TIP3    H162455   2.226   1.470   0.199  0.3738  0.6481 -1.9131
13680TIP3    H262456   2.337   1.407   0.280 -0.3430  1.8750  0.1073
13681TIP3   OH262457   6.439   5.400  15.238 -0.6005  0.5614  0.1631
13681TIP3    H162458   6.433   5.386  15.332  1.9055 -2.5628  0.0106
13681TIP3    H262459   6.404   5.321  15.198  2.6726 -0.3361 -1.2950
13682TIP3   OH262460   2.126   0.109   2.346 -0.4016 -0.2562  0.3762
13682TIP3    H162461   2.115   0.092   2.253  1.5085  1.0999 -0.1341
13682TIP3    H262462   2.047   0.157   2.371 -1.2607 -1.2372 -0.3430
13683TIP3   OH262463   6.588   0.802   5.521  0.0995 -0.9430  0.0826
13683TIP3    H162464   6.617   0.855   5.447 -0.9849 -1.0366 -0.4315
13683TIP3    H262465   6.610   0.855   5.598 -2.7716  1.3039 -0.4557
13684TIP3   OH262466   5.119   3.590   3.092 -0.4955  0.0634  0.8646
13684TIP3    H162467   5.156   3.579   3.004 -0.5945 -1.3595  0.9901
13684TIP3    H262468   5.194   3.597   3.150 -0.3957  2.2504  0.5787
13685TIP3   OH262469   2.858   3.468  13.640 -0.3257  0.4212 -0.5681
13685TIP3    H162470   2.827   3.558  13.646  0.3568  0.6166  0.0884
13685TIP3    H262471   2.801   3.428  13.573 -0.6035  1.3399 -0.8972
13686TIP3   OH262472   0.518   5.901  12.098  0.3175 -0.4030  0.5022
13686TIP3    H162473   0.539   5.809  12.112  0.9464 -0.6010 -1.4295
13686TIP3    H262474   0.593   5.936  12.049 -1.1467  0.3760 -1.3254
13687TIP3   OH262475   0.160   2.881   0.832  0.0507  0.7113 -0.2065
13687TIP3    H162476   0.094   2.816   0.807  1.6630 -0.0778 -2.7538
13687TIP3    H262477   0.123   2.964   0.803  0.9048  0.0576 -3.5300
13688TIP3   OH262478   6.175   0.119  16.819 -0.0968 -0.2309  0.0929
13688TIP3    H162479   6.109   0.171  16.866 -1.7608 -2.1013 -0.0289
13688TIP3    H262480   6.147   0.028  16.832  1.2181 -0.9775 -1.8498
13689TIP3   OH262481   3.887   3.792  12.794  0.5310 -0.0388  0.6875
13689TIP3    H162482   3.942   3.733  12.845  0.6355 -1.6948 -1.2283
13689TIP3    H262483   3.802   3.748  12.789 -0.3756  1.4611  1.7522
13690TIP3   OH262484   4.099   3.332  13.721 -0.3731  0.4084  0.0675
13690TIP3    H162485   4.080   3.363  13.632  0.2956 -3.0848 -1.4334
13690TIP3    H262486   4.018   3.292  13.750 -0.2920  0.6765  0.6796
13691TIP3   OH262487   3.434   6.299   4.037 -0.2687 -0.3026  0.1090
13691TIP3    H162488   3.346   6.281   4.068 -0.1436 -0.4575  0.3801
13691TIP3    H262489   3.466   6.216   4.004  0.7086 -0.8925  2.3661
13692TIP3   OH262490   0.586   2.693   5.795  0.1786  0.5490 -0.2038
13692TIP3    H162491   0.672   2.656   5.813  0.2353  0.6838 -0.1951
13692TIP3    H262492   0.532   2.618   5.768  0.1725  0.3908  0.2405
13693TIP3   OH262493   0.638   0.987  12.843  0.2490  0.0284 -0.5331
13693TIP3    H162494   0.598   1.043  12.909  0.4446  0.5620 -0.8575
13693TIP3    H262495   0.634   1.039  12.762 -2.4399 -1.6089 -1.6094
13694TIP3   OH262496   5.103   1.146   5.463 -0.0023 -0.2298  0.5238
13694TIP3    H162497   5.052   1.108   5.534 -0.5542  1.0796  0.8492
13694TIP3    H262498   5.063   1.112   5.383 -1.7805  1.1863  0.7561
13695TIP3   OH262499   0.680   0.509   3.025  0.6436  0.3156  0.1732
13695TIP3    H162500   0.698   0.480   3.114  1.0891  0.3754  0.1055
13695TIP3    H262501   0.739   0.584   3.011  2.7259 -1.4436 -1.1575
13696TIP3   OH262502   5.896   2.862  10.754  0.0999 -0.2530  0.4712
13696TIP3    H162503   5.848   2.928  10.804 -0.4176 -2.2418  2.7763
13696TIP3    H262504   5.830   2.823  10.697 -0.4449 -1.1399  1.6737
13697TIP3   OH262505   3.464   2.145  14.299 -0.4455  0.2041  0.1703
13697TIP3    H162506   3.484   2.177  14.387  0.1761 -0.8735  0.4351
13697TIP3    H262507   3.482   2.051  14.302 -2.1554 -0.1804 -0.6221
13698TIP3   OH262508   2.076   4.931  15.481  0.0380  0.3736  0.5375
13698TIP3    H162509   2.066   5.022  15.452 -2.0941 -0.0137 -0.1089
13698TIP3    H262510   2.123   4.888  15.410 -0.1067  0.6762  0.2540
13699TIP3   OH262511   1.522   5.497  16.826 -0.2233  0.5409  0.0486
13699TIP3    H162512   1.511   5.590  16.842  0.7382  0.4885  1.1079
13699TIP3    H262513   1.523   5.489  16.730 -0.5234  1.5850 -0.0489
13700TIP3   OH262514   3.771   1.320  13.596  0.8317  0.1837 -0.2139
13700TIP3    H162515   3.710   1.262  13.641 -0.8493  0.1065 -2.4190
13700TIP3    H262516   3.772   1.399  13.651 -0.8374 -0.0286  0.2027
13701TIP3   OH262517   6.261   4.940   1.152  0.3549  0.0510 -0.2791
13701TIP3    H162518   6.168   4.947   1.134  0.4482 -0.4546 -0.9808
13701TIP3    H262519   6.276   5.003   1.223 -0.5345  0.0380 -0.0662
13702TIP3   OH262520   6.765   4.800   2.219 -0.1565  0.4119  0.3852
13702TIP3    H162521   6.779   4.895   2.225  1.8894  0.2304 -0.4894
13702TIP3    H262522   6.823   4.763   2.286  2.3789 -0.3290 -2.0060
13703TIP3   OH262523   5.248   3.334   2.703  0.8866  0.1354  0.7279
13703TIP3    H162524   5.324   3.282   2.677  0.1947 -0.5343 -0.0248
13703TIP3    H262525   5.223   3.381   2.624 -0.7624 -1.3064  0.3315
13704TIP3   OH262526   3.281   3.021  14.716 -0.2864  0.4311  0.0655
13704TIP3    H162527   3.271   3.109  14.752 -1.3064  0.7463 -0.9125
13704TIP3    H262528   3.276   3.034  14.621  0.1646 -0.6156 -0.1138
13705TIP3   OH262529   1.989   5.776  14.882  0.3780  0.0002 -0.5753
13705TIP3    H162530   2.050   5.706  14.906 -1.9154 -1.7174  0.6175
13705TIP3    H262531   1.948   5.746  14.802 -0.8981 -0.2489  0.1441
13706TIP3   OH262532   0.622   4.974  10.664  0.3632  0.3407 -0.5263
13706TIP3    H162533   0.639   5.068  10.665  0.4649  0.3202  0.0766
13706TIP3    H262534   0.607   4.953  10.572 -1.6907  1.3169 -0.4642
13707TIP3   OH262535   6.713   5.251  15.409 -0.7227  0.1816 -0.4639
13707TIP3    H162536   6.806   5.228  15.404 -0.9136 -0.9406  0.8179
13707TIP3    H262537   6.696   5.266  15.502 -2.1380 -0.9781 -0.5052
13708TIP3   OH262538   6.542   0.692  15.970  0.4293 -0.9327  0.0182
13708TIP3    H162539   6.618   0.688  16.029 -0.2432 -0.0070  0.9794
13708TIP3    H262540   6.482   0.625  16.003 -0.5697  0.5395  1.3362
13709TIP3   OH262541   0.186   1.645   3.354  0.6213 -0.1594 -0.2514
13709TIP3    H162542   0.118   1.578   3.352 -0.6236  1.0492  0.0857
13709TIP3    H262543   0.243   1.623   3.280  0.5088 -1.8275  0.1245
13710TIP3   OH262544   0.258   6.348   2.830 -0.1346  0.2627  0.5947
13710TIP3    H162545   0.268   6.427   2.777 -2.2528  0.9915  1.1585
13710TIP3    H262546   0.225   6.282   2.769 -1.2504  0.7119  0.6738
13711TIP3   OH262547   2.949   0.741  12.234 -0.4491 -0.5489  0.7099
13711TIP3    H162548   2.968   0.733  12.141 -2.1118  2.8130 -0.0833
13711TIP3    H262549   2.888   0.669  12.252 -1.0135 -0.5725 -1.1069
13712TIP3   OH262550   4.278   4.113  13.306  0.1202 -0.1043  0.1799
13712TIP3    H162551   4.305   4.204  13.318  0.1463 -0.0363 -0.3532
13712TIP3    H262552   4.233   4.090  13.387 -2.7738  1.3932 -0.8487
13713TIP3   OH262553   1.917   6.619  15.657  0.0798 -0.1320  0.2781
13713TIP3    H162554   1.888   6.573  15.736  1.1416 -0.0005  0.7558
13713TIP3    H262555   2.007   6.590  15.644 -0.0627 -0.0904 -0.8503
13714TIP3   OH262556   0.716   5.502  15.304  0.7154 -0.6113 -0.0731
13714TIP3    H162557   0.734   5.496  15.210  0.8238 -1.2576 -0.0153
13714TIP3    H262558   0.689   5.414  15.329  0.5270 -0.4048  0.4747
13715TIP3   OH262559   6.596   0.472   1.152 -0.3151 -0.4662 -0.2491
13715TIP3    H162560   6.611   0.553   1.104 -2.8976  1.4409  1.8561
13715TIP3    H262561   6.517   0.434   1.113 -0.0539 -1.1243 -0.1587
13716TIP3   OH262562   4.117   5.122   5.987  0.0414  0.0441 -0.0388
13716TIP3    H162563   4.106   5.050   6.050 -1.3878  0.0264 -0.2818
13716TIP3    H262564   4.211   5.123   5.969 -0.0264 -2.5079 -0.8790
13717TIP3   OH262565   6.107   1.257   5.213  0.3586  0.0431 -0.0079
13717TIP3    H162566   6.103   1.353   5.218  0.3614  0.0984 -0.8519
13717TIP3    H262567   6.052   1.227   5.285  0.7225  0.6763  0.5472
13718TIP3   OH262568   4.445   6.251  11.575  0.1978 -0.4080 -0.5667
13718TIP3    H162569   4.426   6.333  11.530 -0.2917 -0.2673 -0.1142
13718TIP3    H262570   4.487   6.277  11.657 -1.6833 -0.4837  0.4730
13719TIP3   OH262571   5.302   0.804  11.854  0.2778  0.2864  0.0281
13719TIP3    H162572   5.352   0.743  11.799  0.4485  0.6425 -0.2192
13719TIP3    H262573   5.281   0.754  11.932 -1.1762 -0.7001 -0.9352
13720TIP3   OH262574   0.456   2.917   0.745  0.1030 -0.3486  0.1070
13720TIP3    H162575   0.481   2.825   0.751  3.1742  0.4546  4.6371
13720TIP3    H262576   0.380   2.925   0.801 -0.2599 -0.1176 -0.4116
13721TIP3   OH262577   6.663   2.276   2.874  0.1497  0.1637  0.4435
13721TIP3    H162578   6.664   2.210   2.804  0.5100  0.0436  0.5598
13721TIP3    H262579   6.753   2.309   2.877  0.8080 -1.5922  2.4883
13722TIP3   OH262580   5.493   0.425  10.759 -0.8100  0.4927  0.1759
13722TIP3    H162581   5.510   0.511  10.720 -1.7000  0.1516 -1.0442
13722TIP3    H262582   5.506   0.363  10.687  1.8895 -0.6515  1.5261
13723TIP3   OH262583   5.956   2.385  16.025  0.1397 -0.5781  0.2152
13723TIP3    H162584   5.917   2.467  15.995  1.7073 -0.2744 -1.1420
13723TIP3    H262585   5.979   2.401  16.117  0.9108  0.7051 -0.1883
13724TIP3   OH262586   6.407   1.366  11.702  0.4425 -0.1330 -0.2783
13724TIP3    H162587   6.463   1.414  11.763 -0.7926  1.2133 -0.1651
13724TIP3    H262588   6.423   1.408  11.617 -1.6128  1.4520  0.0447
13725TIP3   OH262589   1.907   6.233  11.987  0.0730 -0.1881 -0.3378
13725TIP3    H162590   1.958   6.252  11.908  2.3295 -1.2281  0.7795
13725TIP3    H262591   1.918   6.311  12.041  0.3177 -0.3399 -0.1699
13726TIP3   OH262592   2.418   5.451  12.204  0.1972 -0.5183  0.5949
13726TIP3    H162593   2.383   5.389  12.141  1.4948 -1.3352  0.6512
13726TIP3    H262594   2.386   5.420  12.289  1.4177 -1.5702  0.7032
13727TIP3   OH262595   1.645   2.822  15.694 -0.0077  0.1761 -0.2920
13727TIP3    H162596   1.694   2.800  15.615  0.3377  0.1575 -0.0791
13727TIP3    H262597   1.564   2.861  15.663  0.2540  0.4389 -0.6541
13728TIP3   OH262598   5.375   5.499   5.599 -0.1640  0.2655 -0.1912
13728TIP3    H162599   5.327   5.416   5.588  0.2065 -0.1125  0.9079
13728TIP3    H262600   5.432   5.504   5.522 -0.2143 -0.5001 -0.2885
13729TIP3   OH262601   2.785   5.747   5.144 -0.0764  0.2738  0.3741
13729TIP3    H162602   2.727   5.822   5.155  0.1936  0.4073  0.9429
13729TIP3    H262603   2.727   5.672   5.139 -0.2946  0.3554  1.3714
13730TIP3   OH262604   6.275   2.705  16.627 -0.1044 -0.6475  0.1045
13730TIP3    H162605   6.217   2.710  16.703  1.2992 -0.6040  1.2190
13730TIP3    H262606   6.337   2.777  16.639  1.5207 -1.9675  0.1382
13731TIP3   OH262607   2.314   1.683  16.595 -0.7049 -0.3125  0.1397
13731TIP3    H162608   2.297   1.604  16.646  0.5457 -0.2085  0.7601
13731TIP3    H262609   2.407   1.677  16.572 -0.9433  0.2752 -1.0561
13732TIP3   OH262610   6.580   0.564   5.123 -0.2230  0.0020  0.9172
13732TIP3    H162611   6.639   0.579   5.196  1.1364  0.4789 -0.2346
13732TIP3    H262612   6.615   0.617   5.052 -1.0427 -1.0431 -0.3237
13733TIP3   OH262613   4.870   6.235   1.828  0.8373  0.6557 -0.1075
13733TIP3    H162614   4.936   6.294   1.864  0.8839  0.5033  0.0628
13733TIP3    H262615   4.799   6.237   1.892 -0.1728  2.2935 -1.2089
13734TIP3   OH262616   5.882   6.793  12.537 -0.1951  0.5256  0.0105
13734TIP3    H162617   5.831   6.723  12.498  0.0917  0.3418 -0.0433
13734TIP3    H262618   5.900   6.853  12.464  1.2015 -0.3265 -0.3958
13735TIP3   OH262619   4.371   0.368  15.530  0.1343 -0.8424 -0.6876
13735TIP3    H162620   4.409   0.448  15.492 -0.6585  0.7382  1.6641
13735TIP3    H262621   4.437   0.337  15.592 -0.0858 -1.3142 -0.6845
13736TIP3   OH262622   0.198   2.413   0.624  0.3685  0.4796 -0.5673
13736TIP3    H162623   0.174   2.416   0.717 -0.1576 -0.6416 -0.6491
13736TIP3    H262624   0.115   2.427   0.577  0.2063 -1.2069 -0.8489
13737TIP3   OH262625   2.837   1.823   5.737  0.3235  0.2059 -0.3203
13737TIP3    H162626   2.866   1.808   5.827  0.7659 -0.1789 -0.5309
13737TIP3    H262627   2.834   1.737   5.697 -0.9731  0.2378 -0.3512
13738TIP3   OH262628   1.613   0.353  16.663  0.2368 -0.4247  0.5915
13738TIP3    H162629   1.604   0.300  16.742 -1.6286 -1.6632 -0.3753
13738TIP3    H262630   1.651   0.294  16.598  0.1400  0.0512  0.0958
13739TIP3   OH262631   0.439   0.200   6.325  0.1416 -0.2011  0.4902
13739TIP3    H162632   0.454   0.287   6.360 -0.0692  0.0448 -0.0187
13739TIP3    H262633   0.518   0.181   6.274 -0.3764  0.2542 -0.5097
13740TIP3   OH262634   6.003   1.412  11.522  0.0158 -0.2559 -0.3616
13740TIP3    H162635   5.943   1.343  11.551  0.2045 -0.0495  0.5640
13740TIP3    H262636   5.949   1.469  11.467 -0.5461 -0.2915  0.1379
13741TIP3   OH262637   2.533   6.465   0.619 -0.6852 -0.5601 -0.0672
13741TIP3    H162638   2.477   6.390   0.639 -0.7488 -0.5467 -0.1952
13741TIP3    H262639   2.555   6.502   0.704 -0.4574 -0.8664  0.0079
13742TIP3   OH262640   0.313   4.822  12.069 -0.3441 -0.2700  0.5075
13742TIP3    H162641   0.312   4.767  11.991  0.4619 -0.9061  0.9287
13742TIP3    H262642   0.258   4.897  12.046 -0.3505 -0.5843 -0.5608
13743TIP3   OH262643   4.411   5.309  17.112  0.0540  0.6726 -0.2919
13743TIP3    H162644   4.342   5.338  17.051 -0.6479  2.5544  1.3250
13743TIP3    H262645   4.492   5.343  17.075  0.4673 -2.6722 -2.9415
13744TIP3   OH262646   3.880   4.821  16.262 -0.7238 -0.2301 -0.4793
13744TIP3    H162647   3.785   4.832  16.266 -0.7711 -0.5592 -0.6387
13744TIP3    H262648   3.915   4.905  16.291 -1.0633 -0.0169 -0.6774
13745TIP3   OH262649   0.504   0.366   6.028  0.1280  0.7631  0.4005
13745TIP3    H162650   0.522   0.296   6.090 -0.8510 -0.3831 -0.5554
13745TIP3    H262651   0.536   0.445   6.071  1.5879 -0.3021  1.3583
13746TIP3   OH262652   5.195   5.651   5.350 -0.2190 -0.3523  0.5162
13746TIP3    H162653   5.183   5.572   5.297  0.2095 -2.0044  2.7398
13746TIP3    H262654   5.279   5.687   5.322 -0.3001 -0.8128 -0.3490
13747TIP3   OH262655   2.446   6.255  10.983 -0.0257  0.4040  0.2267
13747TIP3    H162656   2.495   6.295  10.911  1.5468 -3.1523 -0.9202
13747TIP3    H262657   2.408   6.176  10.944 -0.5252 -0.7622  2.8971
13748TIP3   OH262658   0.978   2.074  12.425 -0.7191  0.2624  0.3067
13748TIP3    H162659   1.063   2.078  12.383 -0.3962 -1.2719  0.7259
13748TIP3    H262660   0.992   2.109  12.513 -0.0582 -1.5098  0.9706
13749TIP3   OH262661   3.638   5.589  13.971  0.1834 -0.3002  0.0811
13749TIP3    H162662   3.551   5.609  13.936  0.2033 -0.0640  0.1621
13749TIP3    H262663   3.622   5.553  14.058  0.1993  0.5755  0.4652
13750TIP3   OH262664   0.682   1.235  14.376 -0.1680 -0.1985 -0.3515
13750TIP3    H162665   0.744   1.163  14.385 -0.7974 -0.7528 -0.3785
13750TIP3    H262666   0.737   1.314  14.372  0.4522 -0.3459  2.7771
13751TIP3   OH262667   4.459   4.672   1.430  0.3095  0.2195 -0.1486
13751TIP3    H162668   4.488   4.656   1.520  1.0567 -0.9892 -0.5821
13751TIP3    H262669   4.535   4.653   1.376 -0.6362 -0.8900 -1.1619
13752TIP3   OH262670   2.688   2.662  11.527  0.0766  0.6565  0.3926
13752TIP3    H162671   2.626   2.696  11.462 -0.0209 -1.2225 -0.5822
13752TIP3    H262672   2.633   2.629  11.598  0.1156  1.4172  0.7870
13753TIP3   OH262673   4.648   5.422   9.848  0.0259  0.4054 -0.4309
13753TIP3    H162674   4.573   5.443   9.792 -0.6232  0.9303  0.5946
13753TIP3    H262675   4.725   5.441   9.795 -0.5230 -1.9766 -2.2067
13754TIP3   OH262676   0.699   5.986  16.742 -0.1714  0.0038 -0.0786
13754TIP3    H162677   0.788   5.986  16.776 -0.5231 -1.2379  0.9685
13754TIP3    H262678   0.649   6.036  16.807 -0.5075 -0.7135  0.2312
13755TIP3   OH262679   0.644   6.087   1.491  0.9844  0.5129  0.8247
13755TIP3    H162680   0.586   6.087   1.567 -0.1661 -1.2780  0.0022
13755TIP3    H262681   0.691   6.004   1.497 -0.4649 -0.5308 -1.3504
13756TIP3   OH262682   1.103   5.723   1.084 -0.0750 -0.1217 -0.1044
13756TIP3    H162683   1.132   5.671   1.160  0.1606 -0.6360 -0.5340
13756TIP3    H262684   1.101   5.660   1.012 -1.0662  0.1850 -0.3603
13757TIP3   OH262685   0.185   6.048  14.989  0.1581  0.2634  0.0810
13757TIP3    H162686   0.267   6.025  15.033 -0.0589  0.3086  0.5162
13757TIP3    H262687   0.195   6.015  14.900 -0.6340 -2.7545  0.9765
13758TIP3   OH262688   1.534   0.418  10.499  0.3603 -0.7005 -0.3471
13758TIP3    H162689   1.471   0.438  10.430  2.2457  0.5300 -1.7872
13758TIP3    H262690   1.488   0.442  10.580 -0.7627  0.9362 -1.4018
13759TIP3   OH262691   6.485   5.181  10.892 -0.5746 -0.7812  0.4603
13759TIP3    H162692   6.518   5.248  10.833 -1.0457 -0.9882 -0.0434
13759TIP3    H262693   6.561   5.156  10.944 -0.2545 -0.2976  0.2310
13760TIP3   OH262694   6.465   0.202  12.280  0.2426 -0.3236 -0.1671
13760TIP3    H162695   6.407   0.256  12.335 -0.9297 -0.2422 -1.4139
13760TIP3    H262696   6.470   0.118  12.325 -0.3709 -0.1390  0.2621
13761TIP3   OH262697   6.131   2.661  12.389 -0.4086 -0.2998 -0.1707
13761TIP3    H162698   6.097   2.592  12.332  0.2058 -1.8246  1.2090
13761TIP3    H262699   6.221   2.633  12.409 -0.2174  0.7915  0.5850
13762TIP3   OH262700   4.029   6.380  10.964 -0.3815 -0.3277  0.2345
13762TIP3    H162701   4.034   6.360  11.058 -0.9232 -0.6221  0.2034
13762TIP3    H262702   3.950   6.335  10.934  0.2153 -0.8926 -0.5287
13763TIP3   OH262703   0.669   1.692   5.795 -0.6335  0.0755  0.5546
13763TIP3    H162704   0.644   1.692   5.888  1.4674  1.6983  1.2029
13763TIP3    H262705   0.744   1.632   5.791  1.9831  3.0633  0.8646
13764TIP3   OH262706   4.378   1.163   3.924 -0.3843  0.4859 -0.6373
13764TIP3    H162707   4.290   1.193   3.948 -0.1797  1.9713 -1.6001
13764TIP3    H262708   4.394   1.087   3.981 -2.4495 -0.1019 -0.7563
13765TIP3   OH262709   0.419   3.135  13.463 -0.0926 -0.3068  0.0745
13765TIP3    H162710   0.400   3.193  13.537  0.9174 -0.3173  0.3663
13765TIP3    H262711   0.497   3.173  13.422 -0.0248 -0.8817 -0.3497
13766TIP3   OH262712   2.302   2.815  10.928 -0.1285 -0.3798  0.1220
13766TIP3    H162713   2.255   2.874  10.987 -0.5516 -0.4980 -0.0909
13766TIP3    H262714   2.377   2.865  10.898 -0.5504  0.0948 -0.1500
13767TIP3   OH262715   5.618   5.934   5.391 -0.4795 -0.7878  0.3187
13767TIP3    H162716   5.665   5.915   5.472  0.0829  1.2715  0.5258
13767TIP3    H262717   5.526   5.940   5.418 -0.6283 -2.4571  0.3284
13768TIP3   OH262718   5.581   2.228   2.391  0.7643  0.1650  0.2627
13768TIP3    H162719   5.602   2.245   2.482  0.3952  2.4413 -0.0243
13768TIP3    H262720   5.539   2.142   2.392 -0.0287  0.5179  2.3567
13769TIP3   OH262721   5.764   3.323   3.688  0.3370  0.1572 -0.7058
13769TIP3    H162722   5.750   3.228   3.687 -1.7259  0.3953  0.3422
13769TIP3    H262723   5.711   3.356   3.615 -0.5762  0.6529  0.1571
13770TIP3   OH262724   4.236   0.600   4.039 -0.2933 -0.6597  0.2427
13770TIP3    H162725   4.190   0.684   4.030 -1.7165 -1.5769 -1.7857
13770TIP3    H262726   4.323   0.618   4.005 -0.2311  0.2353  0.8210
13771TIP3   OH262727   6.084   5.140   0.282 -0.3390  0.3448 -0.3002
13771TIP3    H162728   5.995   5.130   0.316 -0.2628  0.3583 -0.0914
13771TIP3    H262729   6.130   5.062   0.314 -0.4707 -0.0409 -1.0467
13772TIP3   OH262730   1.799   3.457  13.559 -0.2138  0.0719  0.2507
13772TIP3    H162731   1.856   3.460  13.636 -0.7952 -0.5898  0.7165
13772TIP3    H262732   1.825   3.378  13.513 -0.3845  0.0548  0.1812
13773TIP3   OH262733   1.039   2.125  14.358  0.2572  0.3095 -0.2749
13773TIP3    H162734   1.125   2.147  14.325  0.1746  0.0606 -0.6661
13773TIP3    H262735   1.030   2.176  14.439  0.7790  0.3106 -0.2136
13774TIP3   OH262736   2.513   1.204  10.169  0.3133 -0.1173 -0.2545
13774TIP3    H162737   2.458   1.142  10.121  1.8056 -0.9857 -0.9115
13774TIP3    H262738   2.457   1.282  10.180 -0.8111 -0.7102 -1.4539
13775TIP3   OH262739   0.807   2.598   1.573 -0.2289  0.0566 -0.3142
13775TIP3    H162740   0.724   2.551   1.587 -1.1159  0.8639 -2.4802
13775TIP3    H262741   0.868   2.530   1.543 -1.2827  0.0275 -2.6401
13776TIP3   OH262742   2.520   2.431   4.698  0.1719  0.1553  0.0201
13776TIP3    H162743   2.537   2.384   4.780  3.1837 -0.6008 -0.9366
13776TIP3    H262744   2.466   2.370   4.647 -0.6756  0.1169  0.9241
13777TIP3   OH262745   3.004   3.054  16.052  0.3416  0.0055 -0.1822
13777TIP3    H162746   2.958   2.973  16.073 -2.3790  1.4035 -0.2215
13777TIP3    H262747   2.995   3.062  15.957  1.6328 -0.1834 -0.3386
13778TIP3   OH262748   6.576   1.974   5.760  0.0743  0.4919  0.1991
13778TIP3    H162749   6.489   1.941   5.735 -0.0978  0.9572  0.1811
13778TIP3    H262750   6.559   2.058   5.802  0.5229  0.5981  0.1720
13779TIP3   OH262751   6.024   6.140   0.393 -0.0575  0.4745  0.0667
13779TIP3    H162752   6.034   6.114   0.301 -0.7992 -1.9356  0.6137
13779TIP3    H262753   6.112   6.133   0.429  0.5891  3.0532 -0.7561
13780TIP3   OH262754   2.326   4.821  13.553  0.8440 -0.4975  0.2866
13780TIP3    H162755   2.338   4.822  13.458 -0.3527  1.7600  0.0860
13780TIP3    H262756   2.413   4.837  13.588  0.7920  2.2157 -0.6229
13781TIP3   OH262757   0.477   1.846  12.615 -0.0817 -0.5476  0.3711
13781TIP3    H162758   0.465   1.803  12.700  0.1206 -2.5982 -0.5863
13781TIP3    H262759   0.571   1.839  12.597 -0.1811 -0.4728 -0.1963
13782TIP3   OH262760   2.222   1.559  10.747 -0.1819 -0.1721  0.7001
13782TIP3    H162761   2.311   1.567  10.712 -0.2431 -1.4670  0.2034
13782TIP3    H262762   2.222   1.476  10.794 -1.2582 -0.4275  0.2813
13783TIP3   OH262763   2.042   0.194   5.564  0.1332 -0.1057 -0.1422
13783TIP3    H162764   1.978   0.127   5.541 -0.0744  0.0007  0.1183
13783TIP3    H262765   2.006   0.236   5.642 -0.1213  0.8152 -0.7394
13784TIP3   OH262766   3.817   6.518   0.321 -0.0879 -0.0545 -0.1748
13784TIP3    H162767   3.831   6.458   0.247  0.4627 -0.8479  0.5415
13784TIP3    H262768   3.895   6.574   0.321  0.1288 -0.3494  0.0604
13785TIP3   OH262769   3.732   0.015   2.635 -0.8090  0.3426  0.8410
13785TIP3    H162770   3.727  -0.036   2.555  0.4248  1.4617  0.0137
13785TIP3    H262771   3.642   0.045   2.650 -0.8312  1.2443 -0.9053
13786TIP3   OH262772   1.554   5.079   6.116  0.5757  0.1646 -0.5177
13786TIP3    H162773   1.579   4.991   6.090 -1.0704  0.0416 -1.8816
13786TIP3    H262774   1.476   5.098   6.064 -0.3883  1.6027  1.3180
13787TIP3   OH262775   3.424   3.811  14.861  0.2566  0.1047  0.2390
13787TIP3    H162776   3.437   3.896  14.903 -2.5513  0.6746  0.1659
13787TIP3    H262777   3.488   3.810  14.790  1.8178  1.1906  1.5682
13788TIP3   OH262778   2.336   4.164  14.046 -0.3585  0.2316 -0.2405
13788TIP3    H162779   2.414   4.109  14.034  0.1013  0.8205  0.0067
13788TIP3    H262780   2.359   4.222  14.118 -1.9257 -1.2281  1.5624
13789TIP3   OH262781   1.464   0.987   2.050 -0.4392 -0.5027 -0.0344
13789TIP3    H162782   1.369   0.975   2.055 -0.2854 -2.1637 -0.4984
13789TIP3    H262783   1.490   0.943   1.969  0.6107  0.8274 -0.4500
13790TIP3   OH262784   5.211   2.386   6.758 -0.2203  0.1367  0.2901
13790TIP3    H162785   5.185   2.473   6.786 -1.0031  0.1426 -0.4114
13790TIP3    H262786   5.285   2.401   6.698 -0.7014  0.3663 -0.2541
13791TIP3   OH262787   0.462   3.384  16.712 -0.3384 -0.6124 -0.2738
13791TIP3    H162788   0.477   3.455  16.775  2.9892  0.0146 -1.6009
13791TIP3    H262789   0.467   3.425  16.626 -0.1994 -2.1480 -1.0453
13792TIP3   OH262790   1.630   2.320  15.669  0.0387  0.0232  0.1935
13792TIP3    H162791   1.593   2.405  15.695 -0.3003  0.6776 -2.1858
13792TIP3    H262792   1.575   2.291  15.597  1.4380 -1.1878 -0.4421
13793TIP3   OH262793   0.134   3.141  16.751  0.3791  0.5912 -0.1849
13793TIP3    H162794   0.087   3.059  16.735  2.6088 -0.6463 -0.7045
13793TIP3    H262795   0.109   3.197  16.678 -1.9671  0.8528  0.6941
13794TIP3   OH262796   5.410   3.496   3.620  0.1301 -0.1458 -0.3409
13794TIP3    H162797   5.471   3.437   3.576  1.8696 -0.2870  2.0628
13794TIP3    H262798   5.434   3.583   3.590 -1.1654 -0.4277 -2.3993
13795TIP3   OH262799   3.567   4.330   3.474  0.6055  0.0215  0.2782
13795TIP3    H162800   3.486   4.363   3.434  0.9144  0.9297  0.3973
13795TIP3    H262801   3.630   4.328   3.402  0.4130 -0.9634  0.1197
13796TIP3   OH262802   1.730   1.007   0.110 -0.7215  0.8169 -0.6862
13796TIP3    H162803   1.756   1.014   0.202 -0.1866  0.2845 -0.7886
13796TIP3    H262804   1.652   0.952   0.111 -0.2260  0.1050 -0.6209
13797TIP3   OH262805   1.234   6.239  16.073  0.1670  0.4415  0.8160
13797TIP3    H162806   1.156   6.266  16.024  0.4694  1.3845  0.8405
13797TIP3    H262807   1.293   6.204  16.006 -0.3606 -0.4887  0.8258
13798TIP3   OH262808   4.476   1.247   4.261  0.1349 -0.0979  0.5518
13798TIP3    H162809   4.537   1.286   4.198  0.7589  0.0123  1.2061
13798TIP3    H262810   4.391   1.251   4.218  0.4294  0.6536  0.0119
13799TIP3   OH262811   0.528   5.999  10.461  0.2604 -0.2948 -0.5935
13799TIP3    H162812   0.438   5.966  10.458  0.2087 -0.1944 -0.2337
13799TIP3    H262813   0.521   6.080  10.511  0.2018  0.8457 -2.3547
13800TIP3   OH262814   2.685   1.906  15.491  0.0749  0.4420 -0.4617
13800TIP3    H162815   2.722   1.954  15.565 -0.9504  0.4493  0.0684
13800TIP3    H262816   2.761   1.875  15.441  0.7555  1.5597 -0.1376
13801TIP3   OH262817   6.716   4.296   4.807 -0.0626  0.8018  0.2241
13801TIP3    H162818   6.714   4.389   4.827  0.0705  0.7063  0.6862
13801TIP3    H262819   6.655   4.286   4.733  0.3013  1.3284 -0.1509
13802TIP3   OH262820   0.882   6.210   3.080  0.0632 -0.1106  0.0971
13802TIP3    H162821   0.886   6.136   3.020 -0.9507 -0.4353  0.3994
13802TIP3    H262822   0.848   6.282   3.026 -1.0076 -0.4453  0.2900
13803TIP3   OH262823   4.079   1.145   4.603  0.7017 -0.6996 -0.9866
13803TIP3    H162824   4.057   1.052   4.610  0.3813 -0.7524 -2.3434
13803TIP3    H262825   4.169   1.146   4.570  0.7257 -0.5335 -0.9167
13804TIP3   OH262826   6.007   4.746  16.582 -0.3051 -0.3696  0.1371
13804TIP3    H162827   6.033   4.671  16.635  1.2856  0.8772  1.2183
13804TIP3    H262828   6.050   4.732  16.498 -1.6144 -1.6023 -0.3707
13805TIP3   OH262829   5.169   4.749   1.717 -0.3354 -0.2982 -0.3936
13805TIP3    H162830   5.162   4.680   1.651 -1.3597 -1.2303  0.6467
13805TIP3    H262831   5.241   4.722   1.773 -0.9053 -0.6823  0.1692
13806TIP3   OH262832   4.925   1.204   1.943  0.1570  0.4031  0.1475
13806TIP3    H162833   4.892   1.231   2.029  0.1376 -1.9278  0.9481
13806TIP3    H262834   4.864   1.136   1.915  0.0179  1.2914 -1.8767
13807TIP3   OH262835   1.895   1.221   1.418 -0.2108 -0.2615  0.5360
13807TIP3    H162836   1.877   1.299   1.471  0.6073 -0.2253  0.7709
13807TIP3    H262837   1.984   1.234   1.386 -0.9036  0.0479 -1.4302
13808TIP3   OH262838   0.383   5.987   2.363 -0.3737 -0.3780 -0.0167
13808TIP3    H162839   0.349   5.945   2.284 -1.1693  0.6844 -0.2517
13808TIP3    H262840   0.459   5.934   2.387 -0.1790 -0.7801 -1.4345
13809TIP3   OH262841   1.505   0.543   3.528 -0.0474  0.5205  0.6933
13809TIP3    H162842   1.517   0.637   3.511  0.5921  0.2783 -0.3064
13809TIP3    H262843   1.590   0.504   3.505 -0.9919 -0.5830 -1.1902
13810TIP3   OH262844   2.076   0.095  15.928 -0.2888 -0.0626  0.0900
13810TIP3    H162845   2.008   0.035  15.957  0.8384 -0.9816  0.9629
13810TIP3    H262846   2.054   0.179  15.970 -1.0304 -0.2702  0.1166
13811TIP3   OH262847   1.398   2.192   3.172 -0.2247  0.3358 -0.2965
13811TIP3    H162848   1.475   2.148   3.206  1.8025  2.6257 -1.5980
13811TIP3    H262849   1.392   2.163   3.081 -1.7580 -0.8086  0.1175
13812TIP3   OH262850   3.783   6.106   1.963 -0.1151 -0.0927  0.4939
13812TIP3    H162851   3.818   6.018   1.975  2.1871  1.0002  2.3882
13812TIP3    H262852   3.819   6.136   1.880  1.2754 -0.0023  1.1143
13813TIP3   OH262853   2.542   6.758  15.399  0.3614 -0.1037 -0.1957
13813TIP3    H162854   2.495   6.841  15.404  3.4835  1.8284 -0.0373
13813TIP3    H262855   2.528   6.729  15.309 -1.8730 -0.1884  0.1164
13814TIP3   OH262856   3.906   6.284  16.902  0.3741  0.3023 -0.4422
13814TIP3    H162857   3.973   6.235  16.950 -0.0974 -0.0172 -0.0974
13814TIP3    H262858   3.939   6.373  16.897  0.3607  0.3762  0.6224
13815TIP3   OH262859   1.841   1.672   5.111 -0.4848  0.1711  0.2572
13815TIP3    H162860   1.909   1.727   5.150 -0.4042 -0.9383  1.8013
13815TIP3    H262861   1.773   1.733   5.083  0.2588  1.1494  0.5543
13816TIP3   OH262862   0.950   5.619   3.044  0.0572 -0.3561 -0.3283
13816TIP3    H162863   0.903   5.543   3.079 -0.2033 -0.4467 -0.8528
13816TIP3    H262864   0.905   5.695   3.081 -0.1822 -0.4499 -0.4249
13817TIP3   OH262865   4.948   2.912  14.686 -0.4490 -0.7505  0.1841
13817TIP3    H162866   4.885   2.874  14.747 -0.5996 -0.3111  0.3103
13817TIP3    H262867   4.927   2.872  14.602 -1.6636  0.2234 -0.0177
13818TIP3   OH262868   6.283   6.749  15.028 -0.2095  0.7326  0.6742
13818TIP3    H162869   6.263   6.659  15.003 -0.7661  1.1998 -0.7160
13818TIP3    H262870   6.202   6.797  15.011  0.4786  1.7263  0.0830
13819TIP3   OH262871   0.471   1.062   3.741 -0.4635 -0.0842 -0.3631
13819TIP3    H162872   0.496   1.039   3.651  0.4837  2.0869 -0.7282
13819TIP3    H262873   0.396   1.121   3.731 -0.5553 -0.0836  0.2875
13820TIP3   OH262874   2.350   2.091  14.634  0.1294  0.3146  0.2473
13820TIP3    H162875   2.296   2.065  14.559  1.1961  1.9014 -1.1571
13820TIP3    H262876   2.384   2.009  14.669 -0.6607 -0.4867 -0.7953
13821TIP3   OH262877   3.663   3.934   1.078  0.0643 -0.1411  0.5018
13821TIP3    H162878   3.691   3.849   1.044 -0.3048 -0.4259  0.9024
13821TIP3    H262879   3.739   3.967   1.124  0.5554  0.2254 -0.5469
13822TIP3   OH262880   3.753   3.655   2.143 -0.3654 -0.1285  0.1026
13822TIP3    H162881   3.800   3.721   2.195 -0.1022  0.3093 -0.6714
13822TIP3    H262882   3.670   3.697   2.120 -0.4590 -0.3014  0.1220
13823TIP3   OH262883   0.416   2.325  12.122  0.2701 -0.2046 -0.0943
13823TIP3    H162884   0.377   2.378  12.192  1.4450  0.1957  0.2880
13823TIP3    H262885   0.504   2.361  12.111  0.7104 -1.3636 -0.5957
13824TIP3   OH262886   1.735   3.951  12.986 -0.0384  0.4046  0.4883
13824TIP3    H162887   1.728   3.913  13.073 -0.9139  0.0742  0.2864
13824TIP3    H262888   1.738   4.045  13.001 -2.6024  0.5224  0.8182
13825TIP3   OH262889   4.925   4.728   4.934 -0.5474 -0.0000  0.0787
13825TIP3    H162890   4.890   4.812   4.902 -0.5008 -0.6314 -1.7688
13825TIP3    H262891   4.988   4.702   4.866  1.6487 -0.1494  2.0452
13826TIP3   OH262892   5.810   2.188  13.272  0.4387 -0.1109 -0.1453
13826TIP3    H162893   5.870   2.198  13.198 -0.5040 -1.7950 -1.1883
13826TIP3    H262894   5.843   2.111  13.319 -0.1301 -0.2403  0.0457
13827TIP3   OH262895   5.122   3.682  15.495 -0.1062 -0.0798  0.6657
13827TIP3    H162896   5.056   3.629  15.451 -0.5227 -0.1745  1.3878
13827TIP3    H262897   5.140   3.753  15.434  0.4434 -1.0254 -0.3049
13828TIP3   OH262898   1.691   6.714   5.235 -0.3461 -0.0826  0.2515
13828TIP3    H162899   1.737   6.643   5.190 -0.5113 -0.5368  0.7899
13828TIP3    H262900   1.675   6.779   5.167 -1.3359 -1.1204 -0.5467
13829TIP3   OH262901   4.805   0.993   3.658  0.1339 -0.5744 -0.1363
13829TIP3    H162902   4.877   1.053   3.638 -0.8000 -0.0114 -2.0440
13829TIP3    H262903   4.759   0.983   3.575 -1.9721 -0.9389  1.0149
13830TIP3   OH262904   4.372   4.028   4.819  0.5166  0.0883 -0.1659
13830TIP3    H162905   4.436   4.032   4.891  0.4254  0.7602 -0.1193
13830TIP3    H262906   4.303   4.088   4.845 -0.7296 -1.4785  0.3290
13831TIP3   OH262907   6.769   0.052  16.885 -0.1573 -0.5326  0.6761
13831TIP3    H162908   6.733  -0.006  16.818 -0.2542  1.2943 -0.9061
13831TIP3    H262909   6.737   0.015  16.968 -1.9279 -1.5288 -0.3939
13832TIP3   OH262910   0.122   3.132   5.498  0.4091 -0.0209 -0.7255
13832TIP3    H162911   0.098   3.077   5.423  1.2089 -0.3304 -0.7663
13832TIP3    H262912   0.047   3.128   5.556  1.1866 -2.8231  0.2352
13833TIP3   OH262913   4.403   5.066   2.411  0.2213  0.5200 -0.3899
13833TIP3    H162914   4.459   5.110   2.476 -0.1429  0.1138  0.2126
13833TIP3    H262915   4.318   5.109   2.422 -0.4366 -1.0422  0.9728
13834TIP3   OH262916   6.316   6.273   4.858 -0.2573  0.1851 -0.1481
13834TIP3    H162917   6.371   6.216   4.804  0.1822  0.7899 -0.3542
13834TIP3    H262918   6.263   6.213   4.910  1.3682 -0.4533  0.8647
13835TIP3   OH262919   3.578   0.113  16.592  0.5273 -0.3477 -0.0817
13835TIP3    H162920   3.556   0.185  16.651  1.4585 -0.7173  0.7421
13835TIP3    H262921   3.493   0.078  16.565  0.0759  0.4184  0.2944
13836TIP3   OH262922   4.410   3.226  15.364  0.2669  0.3992 -0.3836
13836TIP3    H162923   4.370   3.289  15.424  1.6841  0.8460  0.1494
13836TIP3    H262924   4.503   3.251  15.363  0.6273 -0.9019 -1.1539
13837TIP3   OH262925   3.161   0.070  12.888  0.1106 -0.1107  0.3720
13837TIP3    H162926   3.183   0.141  12.949 -1.0455 -0.5156  1.2988
13837TIP3    H262927   3.070   0.049  12.908 -0.0296 -0.8419 -0.9284
13838TIP3   OH262928   4.396   5.231   1.721  1.0091 -0.0202  0.1334
13838TIP3    H162929   4.312   5.186   1.710  1.7167 -1.1928 -0.6218
13838TIP3    H262930   4.372   5.322   1.739 -0.4081 -0.1685 -0.8725
13839TIP3   OH262931   4.978   5.804  15.325 -0.1240 -0.3032  0.2776
13839TIP3    H162932   4.930   5.869  15.375 -1.7259 -0.2183 -1.2564
13839TIP3    H262933   5.037   5.855  15.269 -1.5258 -0.0854 -1.0733
13840TIP3   OH262934   5.160   5.025  16.021 -0.4182 -0.1850  0.2908
13840TIP3    H162935   5.077   5.035  15.974 -0.1772 -2.9812 -0.8703
13840TIP3    H262936   5.221   5.082  15.973 -0.9785 -0.4038 -0.7222
13841TIP3   OH262937   6.460   2.843   5.574  0.1193 -0.2408 -0.0749
13841TIP3    H162938   6.435   2.848   5.666 -2.1803 -0.0733 -0.6504
13841TIP3    H262939   6.457   2.933   5.543  0.7205 -0.3162 -0.3747
13842TIP3   OH262940   5.436   4.703  16.946 -0.7326  0.4072  0.2703
13842TIP3    H162941   5.365   4.638  16.944 -2.6384  2.3989 -1.0213
13842TIP3    H262942   5.454   4.714  17.039 -1.4471 -0.8400  0.5886
13843TIP3   OH262943   0.618   2.684   2.132  0.0986 -0.3523 -0.5739
13843TIP3    H162944   0.579   2.766   2.163 -1.6137 -1.5683  0.6929
13843TIP3    H262945   0.553   2.650   2.070  0.8422 -0.7204 -1.1614
13844TIP3   OH262946   5.204   4.811  11.019 -1.0044  0.2435  0.1937
13844TIP3    H162947   5.110   4.830  11.013 -0.7138  1.2890 -1.3581
13844TIP3    H262948   5.243   4.855  10.944  0.6963 -0.5100  0.5875
13845TIP3   OH262949   1.204   0.371   0.020  0.5937  0.4047  0.3684
13845TIP3    H162950   1.224   0.311   0.092  1.7394  0.1944 -0.1128
13845TIP3    H262951   1.146   0.437   0.059  0.4065 -0.2503  1.2333
13846TIP3   OH262952   1.829   5.891  15.078 -0.1448 -0.2813 -0.5888
13846TIP3    H162953   1.810   5.798  15.092 -0.7966  0.0848  1.2100
13846TIP3    H262954   1.897   5.891  15.011 -1.9893 -1.9132 -2.6185
13847TIP3   OH262955   2.026   2.556   1.021 -0.1524 -0.2288 -0.2811
13847TIP3    H162956   2.098   2.493   1.030  0.2576  0.0921 -1.1284
13847TIP3    H262957   1.964   2.532   1.089  0.8224 -0.4358  0.5571
13848TIP3   OH262958   0.621   5.392   3.424  0.1356 -0.6821 -0.0357
13848TIP3    H162959   0.594   5.403   3.333  0.3474  1.4275  0.1172
13848TIP3    H262960   0.693   5.453   3.436 -1.3795  0.8021  2.1306
13849TIP3   OH262961   1.330   3.831   0.495 -0.3807 -0.1498  0.2014
13849TIP3    H162962   1.373   3.892   0.555 -1.6447  1.6837 -0.6833
13849TIP3    H262963   1.380   3.749   0.505  1.2906  0.9575  1.5177
13850TIP3   OH262964   6.714   1.944   6.004  0.1404  0.1494 -0.1871
13850TIP3    H162965   6.686   1.920   5.916 -0.1504  0.0325 -0.0626
13850TIP3    H262966   6.636   1.933   6.059  0.5310 -0.5939  0.2362
13851TIP3   OH262967   6.261   5.276   5.088 -0.3840 -0.1490  0.0518
13851TIP3    H162968   6.321   5.241   5.022 -0.7042  0.1687 -0.4197
13851TIP3    H262969   6.184   5.221   5.082 -0.9009  0.6351 -0.7136
13852TIP3   OH262970   4.956   0.825  13.242 -0.2503  0.4091 -0.9119
13852TIP3    H162971   5.010   0.896  13.207  0.6853 -0.3328 -1.0178
13852TIP3    H262972   5.006   0.746  13.222 -0.0386 -0.1148  1.4291
13853TIP3   OH262973   4.560   0.536  16.523  0.3441  0.5607  0.2691
13853TIP3    H162974   4.518   0.476  16.461  0.7572  0.8371 -0.2833
13853TIP3    H262975   4.510   0.526  16.603  1.1187 -1.4323  0.5643
13854TIP3   OH262976   0.873   4.766  14.749 -0.1234  0.7305 -0.0980
13854TIP3    H162977   0.875   4.861  14.739  1.8325  0.7986  0.5390
13854TIP3    H262978   0.954   4.745  14.795 -0.3893 -1.2758 -0.4555
13855TIP3   OH262979   0.025   5.949  11.638  0.5877 -0.2331 -0.1318
13855TIP3    H162980   0.064   5.871  11.679  2.0072  0.8902  0.7530
13855TIP3    H262981   0.075   5.962  11.558  0.5059 -0.1105 -0.1636
13856TIP3   OH262982   2.353   5.487  11.545 -0.0157 -0.3214 -0.1305
13856TIP3    H162983   2.327   5.412  11.599  2.3570 -0.9784  0.2332
13856TIP3    H262984   2.316   5.468  11.459 -0.3604 -1.3680  0.2306
13857TIP3   OH262985   5.280   6.540  15.022  0.7581 -0.5673  0.4067
13857TIP3    H162986   5.188   6.555  15.003  0.2687 -1.3142  2.0026
13857TIP3    H262987   5.296   6.584  15.105  1.9506 -0.1285 -0.0238
13858TIP3   OH262988   5.020   6.287  12.729  0.1589 -0.7122 -0.0500
13858TIP3    H162989   4.928   6.306  12.711 -0.7162 -2.2202  2.3033
13858TIP3    H262990   5.058   6.371  12.754 -0.6433 -0.1121 -0.7897
13859TIP3   OH262991   0.469   3.346  14.130  0.5486  0.3847 -0.3952
13859TIP3    H162992   0.401   3.333  14.196  0.2663  0.6751 -0.6255
13859TIP3    H262993   0.544   3.381  14.179  0.4836  0.2018 -0.1641
13860TIP3   OH262994   0.603   2.944   2.844  0.2296 -0.0774 -0.0463
13860TIP3    H162995   0.552   3.012   2.887  0.3367 -0.4560  0.6928
13860TIP3    H262996   0.694   2.965   2.863  0.2776 -0.2665 -0.0597
13861TIP3   OH262997   0.026   1.995  15.201 -0.1065 -0.3060  0.2168
13861TIP3    H162998   0.054   1.963  15.115 -1.0841  0.2865 -0.3318
13861TIP3    H262999  -0.040   2.061  15.182  0.5217  0.7022  1.3930
13862TIP3   OH263000   4.848   2.826  16.825  0.1596  0.4676 -0.2771
13862TIP3    H163001   4.887   2.870  16.901 -0.2384 -0.3409  0.4164
13862TIP3    H263002   4.908   2.846  16.753  1.6251 -0.3344  0.6570
13863TIP3   OH263003   4.620   2.373  11.485 -0.0834  0.5688 -0.1750
13863TIP3    H163004   4.610   2.319  11.563 -1.5453 -0.0886 -0.7704
13863TIP3    H263005   4.691   2.434  11.506  0.2084 -0.2293  1.2808
13864TIP3   OH263006   1.070   0.413   2.027  0.4101 -0.0303  0.1198
13864TIP3    H163007   1.008   0.419   2.100 -0.2995 -0.4342 -0.4234
13864TIP3    H263008   1.035   0.474   1.962  1.0439  0.3348  0.1180
13865TIP3   OH263009   3.837   1.835   3.165  0.5465 -0.2346 -0.3038
13865TIP3    H163010   3.751   1.815   3.127 -0.0935 -1.0411  1.4679
13865TIP3    H263011   3.821   1.911   3.221  1.2024  0.2070 -0.7151
13866TIP3   OH263012   5.833   3.383   1.610 -0.0188 -0.3020 -0.1216
13866TIP3    H163013   5.865   3.328   1.539 -0.6417 -0.0781 -0.5903
13866TIP3    H263014   5.900   3.450   1.621  0.3401 -0.6553 -0.1236
13867TIP3   OH263015   4.742   2.800   4.134  0.2962 -0.6168  0.4078
13867TIP3    H163016   4.679   2.824   4.202 -1.3568  0.8182 -1.5112
13867TIP3    H263017   4.821   2.849   4.157 -0.6119  0.7685  0.6905
13868TIP3   OH263018   3.548   4.368   5.531  0.1178 -0.5029 -0.4678
13868TIP3    H163019   3.506   4.322   5.458  0.0866 -0.8256 -0.2470
13868TIP3    H263020   3.558   4.301   5.599  1.2151 -0.4988 -0.6097
13869TIP3   OH263021   6.569   3.157   3.954 -0.3879 -0.4295  0.0036
13869TIP3    H163022   6.535   3.174   4.042 -1.1593 -0.0229 -0.3663
13869TIP3    H263023   6.657   3.122   3.969  0.3112  1.5754  0.8771
13870TIP3   OH263024   0.120   4.794   1.345  0.0979  0.3908 -0.1105
13870TIP3    H163025   0.145   4.809   1.253  1.9141 -0.5171  0.1876
13870TIP3    H263026   0.035   4.835   1.353  0.9508  2.6389 -1.5765
13871TIP3   OH263027   4.739   2.136  14.952  0.5796  0.5921 -0.4003
13871TIP3    H163028   4.758   2.048  14.985 -0.7754  0.5213  0.2575
13871TIP3    H263029   4.774   2.135  14.863  1.4869 -0.2673 -0.0556
13872TIP3   OH263030   1.075   4.326  11.803  0.1452  0.3995 -0.2874
13872TIP3    H163031   1.038   4.337  11.715  2.1658  0.3231 -1.2166
13872TIP3    H263032   1.163   4.291  11.787  1.3300  2.2935  1.6536
13873TIP3   OH263033   4.248   6.163   3.022 -0.3721 -0.0043  0.5385
13873TIP3    H163034   4.305   6.217   3.077  0.1130 -1.9061  2.0321
13873TIP3    H263035   4.297   6.082   3.007 -1.1882 -0.2136 -1.3500
13874TIP3   OH263036   1.666   5.584  11.926  0.0140  0.2541 -0.8347
13874TIP3    H163037   1.661   5.668  11.881  1.0722  1.1451  0.6293
13874TIP3    H263038   1.756   5.553  11.910  0.7142  1.0131  1.2871
13875TIP3   OH263039   0.438   5.676   4.206  0.1735  0.2896  0.1594
13875TIP3    H163040   0.359   5.720   4.172  0.6510  1.1891  0.1821
13875TIP3    H263041   0.442   5.702   4.298  0.5892  0.3863  0.1138
13876TIP3   OH263042   5.486   4.319  15.559  0.6206  0.1597 -0.0878
13876TIP3    H163043   5.453   4.312  15.648  1.0540  2.2747  0.2991
13876TIP3    H263044   5.409   4.304  15.504 -0.3860  1.9398  0.7327
13877TIP3   OH263045   1.280   2.447  10.819 -0.6483 -0.6228 -0.3221
13877TIP3    H163046   1.294   2.370  10.764  0.6410 -0.6136 -0.0383
13877TIP3    H263047   1.368   2.481  10.835 -1.1306  0.3173  0.4032
13878TIP3   OH263048   0.392   1.994  15.719  0.6492  1.0117 -0.5843
13878TIP3    H163049   0.344   2.054  15.776  0.7167  0.5840 -0.0634
13878TIP3    H263050   0.458   1.955  15.777  0.5251  0.3449 -0.8809
13879TIP3   OH263051   0.894   2.415  12.666 -0.5956 -0.4381  0.2571
13879TIP3    H163052   0.896   2.385  12.757 -1.7171  0.2520  0.5251
13879TIP3    H263053   0.868   2.507  12.671  0.1913 -0.1431 -0.7218
13880TIP3   OH263054   4.398   0.491  11.049  0.0618  0.0524 -0.4573
13880TIP3    H163055   4.440   0.412  11.014  0.8883  0.3324 -0.1458
13880TIP3    H263056   4.339   0.520  10.980 -1.0483 -1.4057 -0.1820
13881TIP3   OH263057   5.457   1.178  13.498 -0.3358 -0.8377 -0.3262
13881TIP3    H163058   5.547   1.170  13.529 -1.0267 -1.1633  1.7523
13881TIP3    H263059   5.444   1.272  13.487 -0.1523 -0.6569  0.8073
13882TIP3   OH263060   1.176   2.095  17.080  0.3782 -0.2352  0.0274
13882TIP3    H163061   1.165   2.103  17.175  0.4259 -1.6460  0.1713
13882TIP3    H263062   1.113   2.027  17.055  0.6094 -0.1113 -0.9036
13883TIP3   OH263063   1.123   5.096   4.281  0.0807  0.6847 -0.2476
13883TIP3    H163064   1.067   5.036   4.232 -1.4111  1.0190  0.9908
13883TIP3    H263065   1.209   5.087   4.240 -0.5168 -0.9766 -1.2181
13884TIP3   OH263066   5.715   0.696   1.584 -0.1091  0.5659 -0.3579
13884TIP3    H163067   5.656   0.640   1.635 -1.5835  0.2794 -2.2792
13884TIP3    H263068   5.748   0.759   1.648 -0.3125 -0.9546  1.3535
13885TIP3   OH263069   0.294   2.461  14.570 -0.4324  0.4264  0.4795
13885TIP3    H163070   0.232   2.388  14.567 -1.9198  1.6432 -0.3153
13885TIP3    H263071   0.257   2.521  14.635  0.8960  0.3990  1.2971
13886TIP3   OH263072   1.718   0.752   5.041  0.4393 -0.3452 -0.0410
13886TIP3    H163073   1.727   0.783   5.131  0.9870 -0.6582  0.0201
13886TIP3    H263074   1.783   0.681   5.034 -0.2487 -0.9464 -0.4052
13887TIP3   OH263075   0.841   2.621  14.561 -0.0669  0.5858 -0.3322
13887TIP3    H163076   0.764   2.575  14.528 -0.4433  0.4850  0.6817
13887TIP3    H263077   0.812   2.663  14.642  0.6803  1.3599 -0.4434
13888TIP3   OH263078   3.592   2.406  17.100 -0.7423  0.1155 -0.3304
13888TIP3    H163079   3.629   2.387  17.013  0.0770 -0.4662  0.1285
13888TIP3    H263080   3.521   2.342  17.110 -1.7067  1.0344 -1.0911
13889TIP3   OH263081   0.001   4.750   4.140  0.3837  0.3627 -0.6229
13889TIP3    H163082  -0.003   4.799   4.058 -0.0434 -0.4671 -1.1175
13889TIP3    H263083   0.008   4.817   4.208  0.8029  1.0652 -1.3333
13890TIP3   OH263084   5.563   5.578  11.023  0.9618 -0.2077 -0.0407
13890TIP3    H163085   5.610   5.659  11.043  0.6108 -0.1217  0.4541
13890TIP3    H263086   5.632   5.515  11.001  1.1961  0.3860 -1.0202
13891TIP3   OH263087   3.587   6.115   2.191 -0.6769 -0.2492 -0.9723
13891TIP3    H163088   3.549   6.202   2.198 -0.0797 -0.0579  0.2259
13891TIP3    H263089   3.640   6.118   2.111 -1.5057  0.1280 -1.5213
13892TIP3   OH263090   2.844   6.722   5.168  0.0910  0.4787 -0.0505
13892TIP3    H163091   2.930   6.680   5.158 -0.0440  0.1739  0.0755
13892TIP3    H263092   2.857   6.810   5.133 -0.1978 -0.3466 -2.3642
13893TIP3   OH263093   4.662   3.554  15.929 -0.4640 -0.3655  0.0236
13893TIP3    H163094   4.709   3.572  15.847  0.4940 -2.1661  0.1419
13893TIP3    H263095   4.681   3.630  15.984 -0.8943  0.7474 -1.2998
13894TIP3   OH263096   2.431   1.757   3.326  0.1854 -0.0374 -0.4277
13894TIP3    H163097   2.415   1.795   3.239 -0.6429  0.8907  0.1017
13894TIP3    H263098   2.522   1.777   3.345  0.4155 -0.3695 -1.1281
13895TIP3   OH263099   1.300   5.468  16.603 -0.7351  0.1041 -0.5141
13895TIP3    H163100   1.292   5.522  16.683  2.6287  0.4803 -0.2637
13895TIP3    H263101   1.324   5.531  16.535  1.5162 -0.7608 -0.6049
13896TIP3   OH263102   3.560   5.444   6.043 -0.0150 -0.6189  0.2826
13896TIP3    H163103   3.651   5.473   6.050  0.1358 -0.8490 -0.6057
13896TIP3    H263104   3.561   5.355   6.079 -0.1199 -0.2177  1.3142
13897TIP3   OH263105   5.344   6.061   1.087  0.1239  0.2190 -0.0565
13897TIP3    H163106   5.411   6.120   1.052 -0.4744  1.3321  0.6349
13897TIP3    H263107   5.264   6.086   1.040  0.2253 -1.3223 -1.1207
13898TIP3   OH263108   3.673   3.209   1.089  1.1069  0.6234 -0.2618
13898TIP3    H163109   3.628   3.290   1.115 -1.3971 -0.3833 -1.1834
13898TIP3    H263110   3.707   3.227   1.002 -0.0126  0.4907 -0.7329
13899TIP3   OH263111   5.235   6.621  10.357 -0.0196  0.0750  0.3195
13899TIP3    H163112   5.197   6.664  10.433 -2.0705  1.8911 -1.5936
13899TIP3    H263113   5.176   6.643  10.284  2.0528 -1.1783 -1.9062
13900TIP3   OH263114   5.022   5.277   3.369  0.3671  0.1204  0.0950
13900TIP3    H163115   5.039   5.330   3.448  0.4360 -0.7798  0.6983
13900TIP3    H263116   4.972   5.335   3.312  0.8414  0.9972  0.5471
13901TIP3   OH263117   1.290   5.175  13.120  0.4767  0.1244  0.1716
13901TIP3    H163118   1.264   5.154  13.210  2.8962  1.8398  1.4132
13901TIP3    H263119   1.358   5.110  13.099 -2.0110 -2.0983 -1.6557
13902TIP3   OH263120   1.491   1.676  11.736 -0.6111 -0.0179 -0.2302
13902TIP3    H163121   1.444   1.758  11.723 -0.3977  0.2846  0.8158
13902TIP3    H263122   1.583   1.702  11.746 -0.7128 -0.2069  1.5631
13903TIP3   OH263123   4.326   0.166   1.201  0.3613 -0.2050 -0.0559
13903TIP3    H163124   4.352   0.258   1.200  1.2441 -0.4101  1.2871
13903TIP3    H263125   4.233   0.167   1.180  0.3838  0.9836 -0.1644
13904TIP3   OH263126   5.485   2.903  16.417 -0.1591 -0.3132 -0.0379
13904TIP3    H163127   5.482   2.975  16.353  0.5647 -0.4394 -0.2253
13904TIP3    H263128   5.501   2.947  16.501 -0.3651 -0.2063 -0.0543
13905TIP3   OH263129   6.686   5.164  13.417 -0.0859 -0.7515  0.3678
13905TIP3    H163130   6.644   5.118  13.490  2.0983  2.4202  4.0124
13905TIP3    H263131   6.748   5.101  13.380 -0.2797 -2.0828  2.2150
13906TIP3   OH263132   6.492   0.108  16.683 -0.3547  0.0180  0.6105
13906TIP3    H163133   6.447   0.123  16.600  2.4616  1.7727 -0.7594
13906TIP3    H263134   6.538   0.190  16.700  1.5395 -1.3062  2.3316
13907TIP3   OH263135   0.643   2.457   2.620 -0.1343 -0.1740 -0.8980
13907TIP3    H163136   0.569   2.514   2.639 -0.0358 -0.1296 -0.6475
13907TIP3    H263137   0.676   2.488   2.535 -0.3139 -0.1030 -0.9413
13908TIP3   OH263138   6.265   6.400   5.231  0.2410 -0.0554 -0.1214
13908TIP3    H163139   6.248   6.493   5.246  0.6645 -0.2966  2.2358
13908TIP3    H263140   6.360   6.390   5.242  0.1347 -0.8464  0.1643
13909TIP3   OH263141   6.416   0.941  11.576  0.2529  0.3048 -0.1794
13909TIP3    H163142   6.494   0.991  11.550  0.6149 -0.2459 -0.1789
13909TIP3    H263143   6.366   1.002  11.630  2.1107 -0.1955  2.3132
13910TIP3   OH263144   4.786   1.084   4.937 -0.5816 -0.6312 -0.3889
13910TIP3    H163145   4.770   1.049   4.850  0.0087  1.5280 -1.4341
13910TIP3    H263146   4.801   1.178   4.923 -0.2611 -0.2581  2.0092
13911TIP3   OH263147   5.200   5.338   0.245 -0.0843 -0.1651  0.0579
13911TIP3    H163148   5.191   5.260   0.300  2.1283  0.5895  1.6350
13911TIP3    H263149   5.131   5.397   0.274 -0.0604 -0.4927  0.7986
13912TIP3   OH263150   4.248   3.133  11.082 -0.6659  0.2463 -0.4172
13912TIP3    H163151   4.234   3.039  11.072  0.8599  0.1763 -2.6088
13912TIP3    H263152   4.331   3.150  11.038 -1.6735  2.8680 -1.5438
13913TIP3   OH263153   3.235   2.176   4.368 -0.0904  0.0641  0.2559
13913TIP3    H163154   3.172   2.228   4.417  0.7529  0.2717  1.1513
13913TIP3    H263155   3.281   2.239   4.313 -0.0884  0.0398  0.2294
13914TIP3   OH263156   3.699   0.750  16.277 -0.6008  0.7195  0.3453
13914TIP3    H163157   3.660   0.678  16.327 -3.7032  0.8117 -1.6569
13914TIP3    H263158   3.626   0.811  16.261  0.4298  1.2796 -3.1515
13915TIP3   OH263159   4.487   5.172  14.045  0.8010  0.3015 -0.1004
13915TIP3    H163160   4.523   5.194  14.131 -1.0783 -0.1555  0.8666
13915TIP3    H263161   4.393   5.188  14.054  0.2407 -1.8707 -1.3491
13916TIP3   OH263162   1.638   2.986   1.439 -0.3724 -0.3414  0.2380
13916TIP3    H163163   1.572   2.994   1.507  0.8173 -1.8941  1.6474
13916TIP3    H263164   1.721   3.001   1.483  0.2885  3.7777 -1.8820
13917TIP3   OH263165   6.547   5.634   1.436  0.3840 -0.5826 -0.0762
13917TIP3    H163166   6.604   5.571   1.393 -0.7698 -1.5291 -0.2618
13917TIP3    H263167   6.458   5.604   1.416 -0.1891  0.8090  0.2621
13918TIP3   OH263168   2.305   6.314   3.873 -0.3776  0.1936 -0.7025
13918TIP3    H163169   2.257   6.268   3.942  0.5160  0.6925  0.2777
13918TIP3    H263170   2.362   6.248   3.835  0.7645  0.4096  0.5727
13919TIP3   OH263171   1.927   5.018  14.332  0.1444 -0.5937  0.3176
13919TIP3    H163172   1.916   4.927  14.307 -0.0292 -0.7201  0.8387
13919TIP3    H263173   2.021   5.030  14.340  0.2390 -0.4061 -0.8945
13920TIP3   OH263174   5.499   0.258  12.559 -0.4839  1.1934  0.1691
13920TIP3    H163175   5.556   0.305  12.619  0.5771 -0.1338  0.2712
13920TIP3    H263176   5.501   0.167  12.590 -2.5664  1.0607  0.0831
13921TIP3   OH263177   4.884   6.035   3.412  0.1989  0.0554  0.2162
13921TIP3    H163178   4.853   6.110   3.362  0.9746 -0.2311 -0.7395
13921TIP3    H263179   4.815   6.017   3.476 -0.1492  1.3517  0.2284
13922TIP3   OH263180   1.893   1.151  15.125  0.0602  0.3157  0.0121
13922TIP3    H163181   1.967   1.202  15.158 -0.4315  0.8061  0.3503
13922TIP3    H263182   1.819   1.211  15.126  0.2606  0.7963 -3.1974
13923TIP3   OH263183   0.715   2.654  16.027 -0.0092 -0.0285 -0.3292
13923TIP3    H163184   0.647   2.589  16.044  1.6665 -1.5546  0.9201
13923TIP3    H263185   0.729   2.697  16.111  1.2404 -0.4320 -0.3101
13924TIP3   OH263186   5.972   3.820  11.202  0.7065 -0.3743 -0.1570
13924TIP3    H163187   5.910   3.827  11.275  0.2662 -2.5644 -0.2643
13924TIP3    H263188   5.919   3.792  11.128  1.4163  0.2745 -0.9266
13925TIP3   OH263189   4.561   5.902  16.103 -0.1170 -0.5833 -0.0049
13925TIP3    H163190   4.594   5.990  16.083 -0.5260  0.1335  2.1614
13925TIP3    H263191   4.469   5.916  16.127  0.4872 -1.1183  2.9914
13926TIP3   OH263192   0.659   3.297   2.535 -0.2510 -0.2706  0.2689
13926TIP3    H163193   0.711   3.364   2.580  0.2646 -0.2165 -0.3919
13926TIP3    H263194   0.632   3.338   2.452 -1.3120 -0.3142  0.5705
13927TIP3   OH263195   2.874   4.053   1.640  0.2063  0.4658  0.1413
13927TIP3    H163196   2.799   4.010   1.599  0.1450  1.3822 -0.7170
13927TIP3    H263197   2.949   3.997   1.616  0.0408  0.4873 -0.4339
13928TIP3   OH263198   5.562   0.964  10.637  0.1451  0.4161 -1.0470
13928TIP3    H163199   5.535   1.056  10.636  1.7256  0.9870  0.7227
13928TIP3    H263200   5.640   0.961  10.581  0.9005  0.5038 -0.0462
13929TIP3   OH263201   3.202   1.067  11.614 -0.1688 -0.7071  0.1501
13929TIP3    H163202   3.266   1.053  11.684 -0.3821  0.4479  0.6012
13929TIP3    H263203   3.157   0.982  11.605 -1.2184 -0.4843  2.5226
13930TIP3   OH263204   5.053   2.791  15.505 -0.6418 -0.0817 -0.4388
13930TIP3    H163205   5.123   2.726  15.509  1.9506  2.3625 -2.2721
13930TIP3    H263206   4.981   2.746  15.462  0.6601 -2.0117 -0.7384
13931TIP3   OH263207   1.765   4.927  12.593 -0.0831  0.3699 -0.6485
13931TIP3    H163208   1.843   4.983  12.601  0.9675 -1.2681  1.6104
13931TIP3    H263209   1.770   4.892  12.504  1.5038  0.6968 -0.7234
13932TIP3   OH263210   1.594   0.973   4.931  0.2988  0.7744 -0.3902
13932TIP3    H163211   1.646   0.904   4.972 -0.4309  0.4661  0.0180
13932TIP3    H263212   1.660   1.032   4.893  0.9307 -0.0520 -0.6169
13933TIP3   OH263213   5.149   6.763   4.126 -0.2842  0.4851  0.5520
13933TIP3    H163214   5.238   6.747   4.094 -0.1679 -0.0039  1.1019
13933TIP3    H263215   5.152   6.850   4.165 -0.2469  0.7902 -0.1214
13934TIP3   OH263216   4.198   6.098   0.275  0.3445 -0.1416  0.1094
13934TIP3    H163217   4.161   6.163   0.214 -0.1528  0.3764  0.9415
13934TIP3    H263218   4.292   6.107   0.264  0.3166 -1.7262 -2.3058
13935TIP3   OH263219   2.926   2.759   2.541  0.6014 -0.3589 -0.1627
13935TIP3    H163220   3.013   2.799   2.549  0.3333  0.1823  0.1259
13935TIP3    H263221   2.941   2.679   2.490  1.2329 -0.1585 -0.3056
13936TIP3   OH263222   1.368   6.403   3.194 -0.5638 -0.2768 -0.4647
13936TIP3    H163223   1.274   6.414   3.210 -0.9465  0.3316 -2.7799
13936TIP3    H263224   1.410   6.447   3.268 -2.0900  0.3200  0.0966
13937TIP3   OH263225   4.689   0.169  16.817  0.8139 -0.0696  0.2433
13937TIP3    H163226   4.709   0.225  16.742  0.2999  0.3721  0.4268
13937TIP3    H263227   4.721   0.219  16.893 -2.3689  1.5007  0.7503
13938TIP3   OH263228   2.189   6.517  12.225  0.4732  0.2204  0.1716
13938TIP3    H163229   2.145   6.567  12.157 -1.7054 -0.3219  1.1140
13938TIP3    H263230   2.158   6.554  12.307 -0.8875 -2.3139  0.8985
13939TIP3   OH263231   0.995   5.177   3.859  0.4063 -0.6101 -0.0669
13939TIP3    H163232   0.932   5.159   3.789  0.1155  0.2783 -0.0481
13939TIP3    H263233   0.989   5.271   3.873 -0.2135 -0.8721  1.7691
13940TIP3   OH263234   4.665   0.743  15.443  0.1806  0.1297 -0.0948
13940TIP3    H163235   4.585   0.693  15.430  0.7865 -0.7734 -0.4752
13940TIP3    H263236   4.704   0.750  15.356  1.6461 -1.4403  0.3703
13941TIP3   OH263237   1.211   1.075  16.927 -0.2671  0.3079 -0.1673
13941TIP3    H163238   1.224   0.992  16.972  2.3703  0.4331 -0.5679
13941TIP3    H263239   1.246   1.141  16.987 -0.2260  0.8899 -0.8093
13942TIP3   OH263240   5.206   5.228   4.882  0.1938  0.2683 -0.2001
13942TIP3    H163241   5.300   5.211   4.880  0.2104  0.2775  0.4896
13942TIP3    H263242   5.184   5.247   4.790  0.9294  0.6212 -0.3173
13943TIP3   OH263243   0.406   3.618  15.058  0.1444  0.0242 -0.0063
13943TIP3    H163244   0.480   3.660  15.016  0.7403 -0.0295  0.9730
13943TIP3    H263245   0.388   3.672  15.135 -0.3594 -0.3823  0.1665
13944TIP3   OH263246   0.936   6.593   2.130  0.3402  0.1951 -0.0790
13944TIP3    H163247   0.846   6.562   2.138  0.0866  1.1048  0.8037
13944TIP3    H263248   0.981   6.558   2.207  0.1120  1.7345  0.7911
13945TIP3   OH263249   3.530   1.776   1.139 -0.2862 -0.0858 -0.0029
13945TIP3    H163250   3.483   1.769   1.057  0.9753  0.2414 -0.7865
13945TIP3    H263251   3.469   1.745   1.205 -2.4009  2.3750 -0.6427
13946TIP3   OH263252   0.258   5.831   5.692  0.0317  0.7309 -0.4799
13946TIP3    H163253   0.294   5.897   5.633 -0.4437  0.3790 -1.1861
13946TIP3    H263254   0.331   5.805   5.748  1.0035 -0.2194 -2.0971
13947TIP3   OH263255   3.284   3.106  15.233 -0.1337 -0.1018  0.0364
13947TIP3    H163256   3.259   3.059  15.153 -0.4110 -1.0518  0.6586
13947TIP3    H263257   3.333   3.042  15.284  2.1793  1.2082 -0.3893
13948TIP3   OH263258   5.403   4.396   0.385 -0.1015  0.5051 -0.9265
13948TIP3    H163259   5.335   4.421   0.323 -1.7649  1.1080  1.0364
13948TIP3    H263260   5.370   4.317   0.427  2.3866 -1.7122 -2.8155
13949TIP3   OH263261   1.923   6.675  16.948 -0.3394 -0.6010  0.1738
13949TIP3    H163262   1.828   6.683  16.958 -0.0885  3.1653  0.8511
13949TIP3    H263263   1.957   6.684  17.037  0.6978 -2.9841  0.0895
13950TIP3   OH263264   2.481   5.391  14.289  0.3416  0.2860 -0.2470
13950TIP3    H163265   2.499   5.299  14.271  2.0103  0.4366  0.4734
13950TIP3    H263266   2.565   5.428  14.314 -0.3948  1.8960  0.0126
13951TIP3   OH263267   2.189   5.102  14.603 -1.0732 -0.1728 -0.6376
13951TIP3    H163268   2.229   5.172  14.653  1.2718  0.1363 -2.7205
13951TIP3    H263269   2.216   5.021  14.647 -1.6559  0.1578  0.3312
13952TIP3   OH263270   2.930   5.291  15.846  0.1715 -0.4590 -0.0219
13952TIP3    H163271   3.007   5.234  15.853  1.5269  1.3057  0.5085
13952TIP3    H263272   2.917   5.324  15.935  0.3453  1.1163 -0.5387
13953TIP3   OH263273   6.132   2.819   4.138 -0.0544 -0.0034 -0.5582
13953TIP3    H163274   6.063   2.755   4.151  0.0965 -0.1301 -0.3709
13953TIP3    H263275   6.196   2.775   4.081  0.0844 -0.0480 -0.3704
13954TIP3   OH263276   0.662   6.626   5.096 -0.3125  0.2106 -0.3152
13954TIP3    H163277   0.677   6.533   5.107  1.1817  0.2621 -1.5592
13954TIP3    H263278   0.567   6.635   5.086 -0.6065 -0.9879  1.1057
13955TIP3   OH263279   3.992   4.805   1.083 -0.1634  0.0625  0.3336
13955TIP3    H163280   3.977   4.719   1.122  0.3109 -0.5064 -0.7053
13955TIP3    H263281   4.062   4.843   1.136  0.6078 -0.7788 -0.0466
13956TIP3   OH263282   5.402   0.245  14.417 -0.4907  0.0387 -0.1688
13956TIP3    H163283   5.428   0.169  14.366 -1.2592  0.7732 -1.7162
13956TIP3    H263284   5.402   0.214  14.508  0.6549 -1.3711 -0.6180
13957TIP3   OH263285   5.617   3.324   3.956  0.3759  0.3253 -0.1828
13957TIP3    H163286   5.660   3.386   3.898 -1.5414  0.9771 -0.9606
13957TIP3    H263287   5.533   3.305   3.915 -0.0488 -1.0415  1.1892
13958TIP3   OH263288   4.944   5.373   1.189 -0.6454 -0.3489 -0.3586
13958TIP3    H163289   4.971   5.438   1.254  2.6922 -2.3628  0.5124
13958TIP3    H263290   4.855   5.349   1.216 -0.7495  1.5059  1.2135
13959TIP3   OH263291   1.453   2.995  11.311  0.4947  0.0876 -0.9639
13959TIP3    H163292   1.418   3.003  11.222  0.9387 -0.3217 -1.1802
13959TIP3    H263293   1.396   2.932  11.354 -1.5048  2.4049 -0.0276
13960TIP3   OH263294   6.338   5.773   0.415  0.0363  0.1060  0.1127
13960TIP3    H163295   6.289   5.849   0.445  1.2591  0.5692  1.0025
13960TIP3    H263296   6.406   5.809   0.359 -1.3279 -0.6332 -2.1496
13961TIP3   OH263297   5.870   3.246  12.480  0.1031 -0.9271 -0.0378
13961TIP3    H163298   5.837   3.330  12.449  0.0049  0.2576  2.9234
13961TIP3    H263299   5.792   3.199  12.510  0.3466 -1.2565  0.0872
13962TIP3   OH263300   0.394   4.752   1.984 -0.0445 -0.0934 -0.0245
13962TIP3    H163301   0.391   4.675   2.040 -1.5229  0.2217  0.3842
13962TIP3    H263302   0.356   4.822   2.038  1.8296  1.0988 -0.1543
13963TIP3   OH263303   2.908   5.606  16.822 -0.1353  0.1217 -0.1669
13963TIP3    H163304   2.919   5.701  16.830 -0.4966  0.2251 -0.7752
13963TIP3    H263305   2.840   5.596  16.754  0.0610 -0.5745 -0.2676
13964TIP3   OH263306   0.654   0.282   0.855  0.3205  0.6949  0.1844
13964TIP3    H163307   0.641   0.333   0.775  1.6038 -0.7879 -1.0128
13964TIP3    H263308   0.725   0.327   0.901  1.6882 -0.1246 -1.0338
13965TIP3   OH263309   6.732   3.762  16.894 -0.5271 -0.2217  0.3770
13965TIP3    H163310   6.788   3.693  16.857  1.0366  0.7562  0.8093
13965TIP3    H263311   6.776   3.787  16.975 -0.8371  1.5140  0.0596
13966TIP3   OH263312   4.460   6.517   1.757 -0.0955  1.2600 -0.0129
13966TIP3    H163313   4.521   6.519   1.683  0.1598  1.0119  0.1889
13966TIP3    H263314   4.376   6.492   1.718  0.2609  0.1201 -0.0774
13967TIP3   OH263315   2.822   2.887   3.035  0.0013  0.1191 -0.2545
13967TIP3    H163316   2.844   2.922   2.949 -1.8792 -0.6676 -1.1288
13967TIP3    H263317   2.759   2.949   3.071  0.4157  0.1923  0.3680
13968TIP3   OH263318   6.597   5.160  14.027  0.1048  0.4072 -0.1778
13968TIP3    H163319   6.534   5.146  13.956 -0.4225 -0.8551  0.5117
13968TIP3    H263320   6.615   5.073  14.062  0.4486  0.9823  1.1697
13969TIP3   OH263321   0.167   3.345  17.107 -0.4644  0.3670  0.3517
13969TIP3    H163322   0.125   3.259  17.096 -0.2364  0.2778  0.1838
13969TIP3    H263323   0.238   3.329  17.168  0.6911  0.0630 -1.0237
13970TIP3   OH263324   3.900   0.296   0.022  0.0944 -0.0577  0.3068
13970TIP3    H163325   3.817   0.274  -0.021  0.2101 -0.1092  0.1051
13970TIP3    H263326   3.875   0.324   0.110 -0.2592  1.1909 -0.1691
13971TIP3   OH263327   0.899   0.290   2.637  0.0679  0.0689 -0.2473
13971TIP3    H163328   0.885   0.362   2.575  0.1117  2.2073  2.0811
13971TIP3    H263329   0.924   0.216   2.582  0.3651  1.8920 -2.7445
13972TIP3   OH263330   5.177   1.266   2.361  0.2520  0.2814 -0.5102
13972TIP3    H163331   5.125   1.187   2.347  0.3221 -0.3175  2.0152
13972TIP3    H263332   5.267   1.233   2.371  0.2532  0.5970  0.7456
13973TIP3   OH263333   2.931   0.105  13.068 -0.0729  0.4490  0.3721
13973TIP3    H163334   2.879   0.034  13.106  0.1441 -0.7906 -1.5410
13973TIP3    H263335   2.910   0.181  13.123 -0.3830 -1.0345  2.4188
13974TIP3   OH263336   2.513   5.246   2.126 -0.3786  0.1886  0.8572
13974TIP3    H163337   2.451   5.214   2.061  1.1352 -0.1106 -0.4820
13974TIP3    H263338   2.471   5.325   2.162 -2.1289 -0.7534  0.9987
13975TIP3   OH263339   5.277   6.649   2.904 -0.1726  0.0799 -0.5165
13975TIP3    H163340   5.305   6.724   2.852  1.4475 -0.6435 -0.7459
13975TIP3    H263341   5.289   6.574   2.846 -2.6129 -0.3258 -0.6135
13976TIP3   OH263342   5.515   2.986   0.283 -0.1962 -0.7561  0.3044
13976TIP3    H163343   5.605   2.967   0.256  0.2941  1.2972  0.3029
13976TIP3    H263344   5.523   3.010   0.375  0.0812  3.7485 -0.6740
13977TIP3   OH263345   5.850   3.381   6.031  0.3844  0.6377 -0.3363
13977TIP3    H163346   5.787   3.453   6.034  0.3450  0.6520 -1.1385
13977TIP3    H263347   5.833   3.338   5.947 -1.0740 -1.6768  1.0355
13978TIP3   OH263348   0.764   6.397  11.560  0.2441  0.6827 -0.0159
13978TIP3    H163349   0.709   6.322  11.582  0.2918  0.6368 -0.0525
13978TIP3    H263350   0.778   6.389  11.465 -0.1427  1.0007 -0.1013
13979TIP3   OH263351   0.369   4.975  11.675  0.0021  0.4162  0.6378
13979TIP3    H163352   0.352   4.890  11.632  0.0407  0.7877 -0.1410
13979TIP3    H263353   0.284   5.001  11.709  0.1553 -0.3233  1.6293
13980TIP3   OH263354   0.227   0.899   2.683 -0.4993 -0.7531 -0.5041
13980TIP3    H163355   0.173   0.821   2.671 -0.9375 -0.5484  0.1137
13980TIP3    H263356   0.314   0.864   2.705 -0.6205 -1.0647 -0.5153
13981TIP3   OH263357   1.835   5.716  11.204  0.6354 -0.3275  0.5201
13981TIP3    H163358   1.788   5.655  11.260  2.3451  0.6970  3.2497
13981TIP3    H263359   1.812   5.803  11.236  0.9937  0.3644 -0.9719
13982TIP3   OH263360   5.918   3.044  11.799 -0.1663  0.0540 -0.0984
13982TIP3    H163361   5.898   3.134  11.773 -1.7545 -0.0728  0.5541
13982TIP3    H263362   5.876   3.034  11.884 -0.1516 -1.3439 -0.2295
13983TIP3   OH263363   4.881   6.734   3.328  0.3386  0.0773 -0.2368
13983TIP3    H163364   4.786   6.727   3.321  0.2896  0.9134 -0.5914
13983TIP3    H263365   4.895   6.811   3.383  0.8142 -0.8745  1.0360
13984TIP3   OH263366   4.698   1.612  15.063 -0.1263 -0.3355  0.1024
13984TIP3    H163367   4.603   1.619  15.071 -0.2538 -0.4740 -1.0327
13984TIP3    H263368   4.716   1.519  15.075 -0.1372 -0.3070  0.3317
13985TIP3   OH263369   4.360   0.220   4.504 -0.0497 -0.0277 -0.3653
13985TIP3    H163370   4.376   0.249   4.594  0.0031 -1.8196  0.2447
13985TIP3    H263371   4.345   0.301   4.455 -4.2646  0.9612  1.9999
13986TIP3   OH263372   4.819   0.326   0.648 -0.0061 -0.5333  0.4335
13986TIP3    H163373   4.903   0.296   0.683  0.7915  0.9233 -0.1510
13986TIP3    H263374   4.760   0.326   0.724  1.2912  1.1600  1.5227
13987TIP3   OH263375   1.110   4.808   5.430 -0.4598 -0.1129 -0.5278
13987TIP3    H163376   1.015   4.813   5.446 -0.4087  1.2188 -0.5105
13987TIP3    H263377   1.137   4.899   5.422  0.8912 -0.4642 -0.1833
13988TIP3   OH263378   5.862   0.636   5.505 -0.1963 -0.1921 -0.2671
13988TIP3    H163379   5.784   0.666   5.552  1.5915  0.3604  2.5810
13988TIP3    H263380   5.912   0.716   5.488  1.0508 -0.7591  0.5631
13989TIP3   OH263381   4.333   3.924  12.574 -0.4297  0.3441  0.1638
13989TIP3    H163382   4.359   3.850  12.628 -0.2936  0.6105  0.4626
13989TIP3    H263383   4.324   3.997  12.635 -0.4378  0.6054 -0.1474
13990TIP3   OH263384   4.429   1.512   5.914  0.0873 -0.2085  0.2678
13990TIP3    H163385   4.364   1.494   5.846  1.2655 -1.3421 -0.6162
13990TIP3    H263386   4.400   1.461   5.989 -1.2179  1.0346  0.6608
13991TIP3   OH263387   2.919   2.714  14.329  0.5793 -0.8542 -0.0159
13991TIP3    H163388   2.946   2.640  14.384  2.4808  0.5787  1.0730
13991TIP3    H263389   2.971   2.705  14.249 -0.6151 -1.7193 -0.7425
13992TIP3   OH263390   0.763   4.200   1.228  0.3062 -0.1006  0.2915
13992TIP3    H163391   0.672   4.229   1.221  0.3559  0.2694  1.1199
13992TIP3    H263392   0.780   4.196   1.322  1.1138 -0.2645  0.1428
13993TIP3   OH263393   6.197   5.963  14.910  0.1661  0.4846  0.7378
13993TIP3    H163394   6.155   5.879  14.928  0.1446  0.0772 -1.0214
13993TIP3    H263395   6.144   6.002  14.840  0.8273  1.4595  0.7500
13994TIP3   OH263396   2.306   3.063  10.002 -0.0361 -0.0675 -0.1553
13994TIP3    H163397   2.284   2.992  10.062  0.8836 -0.0004  0.2706
13994TIP3    H263398   2.235   3.127  10.014  0.5533  0.3297  1.4879
13995TIP3   OH263399   6.627   3.364   1.699  0.1805 -0.5474  0.7001
13995TIP3    H163400   6.533   3.379   1.703  0.3526  1.2995 -0.7523
13995TIP3    H263401   6.636   3.270   1.681 -1.4461 -0.5254 -0.4693
13996TIP3   OH263402   5.207   1.142  14.220  0.2092  0.0737 -0.2071
13996TIP3    H163403   5.123   1.163  14.260 -0.1918  0.4420 -1.1994
13996TIP3    H263404   5.270   1.199  14.264 -0.0392 -0.2914  0.6249
13997TIP3   OH263405   1.728   5.163  11.063 -0.5831 -0.7777  0.2563
13997TIP3    H163406   1.763   5.099  11.001  0.2958  2.3391 -2.7691
13997TIP3    H263407   1.638   5.176  11.034 -0.6509 -0.4121  0.6394
13998TIP3   OH263408   1.678   3.795  14.122 -0.1619 -0.0687  0.4023
13998TIP3    H163409   1.749   3.859  14.125  0.6735 -1.0162  1.5940
13998TIP3    H263410   1.611   3.837  14.068  0.9160  1.2316  0.0155
13999TIP3   OH263411   3.021   4.096  14.395 -0.1207 -0.4309 -0.1277
13999TIP3    H163412   3.085   4.163  14.373  0.5070 -0.5980  1.1400
13999TIP3    H263413   2.993   4.116  14.484 -2.2574 -0.0464 -0.8204
14000TIP3   OH263414   6.516   0.980  11.848 -0.2987 -0.2490 -0.6856
14000TIP3    H163415   6.458   1.052  11.825 -0.1967  0.7523  1.8696
14000TIP3    H263416   6.459   0.913  11.887 -0.0218 -0.1039 -0.0006
14001TIP3   OH263417   0.137   3.751  11.521  0.6398  0.5593 -0.4597
14001TIP3    H163418   0.219   3.754  11.571  0.3702  2.9995 -0.0405
14001TIP3    H263419   0.072   3.716  11.582  0.7089  1.7806  0.3530
14002TIP3   OH263420   5.364   1.577   3.936  0.3438  0.6814 -0.0287
14002TIP3    H163421   5.457   1.560   3.953  0.8651  2.0938 -1.2618
14002TIP3    H263422   5.351   1.668   3.964 -0.5758  0.6163 -0.2260
14003TIP3   OH263423   4.654   3.987   0.321  0.3184 -0.0433  0.3093
14003TIP3    H163424   4.719   3.971   0.253 -0.1425 -2.0359  0.2825
14003TIP3    H263425   4.644   3.903   0.365 -1.0157  0.6497  1.4215
14004TIP3   OH263426   0.579   2.352  12.711  0.2769 -0.6869  0.6457
14004TIP3    H163427   0.492   2.390  12.719 -0.4957 -2.2742  0.3449
14004TIP3    H263428   0.600   2.359  12.617  1.0519  0.8267  0.9052
14005TIP3   OH263429   3.502   4.313  11.366  0.2589  0.4012  0.2859
14005TIP3    H163430   3.464   4.279  11.285  0.4811  1.9925 -0.5238
14005TIP3    H263431   3.563   4.381  11.337  0.2569  1.0905  1.8042
14006TIP3   OH263432   6.378   3.102  14.664  0.0367 -0.3764 -0.8401
14006TIP3    H163433   6.309   3.125  14.725 -0.4138 -0.7107 -1.2129
14006TIP3    H263434   6.339   3.034  14.608  0.7123 -0.6848 -0.9536
14007TIP3   OH263435   0.170   5.527   2.826  0.0701 -0.3731 -0.3816
14007TIP3    H163436   0.188   5.545   2.918  0.4778  1.0681 -0.7068
14007TIP3    H263437   0.076   5.544   2.816  0.1029 -0.1355 -0.3046
14008TIP3   OH263438   3.474   5.914  16.980 -0.3477  0.3583 -0.5198
14008TIP3    H163439   3.555   5.898  17.026  0.8592 -2.2577 -3.2301
14008TIP3    H263440   3.451   6.004  17.003  2.1683  0.5093  1.9211
14009TIP3   OH263441   4.015   2.125   4.319 -0.5622 -0.2161 -0.6220
14009TIP3    H163442   3.922   2.111   4.336 -0.7876  1.8727  0.0556
14009TIP3    H263443   4.050   2.162   4.401  0.4440  0.8094 -1.4804
14010TIP3   OH263444   1.639   6.110  10.424 -0.3233 -0.0197 -0.1156
14010TIP3    H163445   1.594   6.029  10.397 -0.8660 -0.4658  2.0037
14010TIP3    H263446   1.570   6.177  10.423 -0.7752 -0.4076  1.7546
14011TIP3   OH263447   6.335   2.121  11.846  0.2151 -0.5353  0.0792
14011TIP3    H163448   6.304   2.039  11.806 -0.0088  0.3940 -1.7687
14011TIP3    H263449   6.429   2.121  11.830  0.2726 -0.5986  0.4138
14012TIP3   OH263450   3.021   2.268  16.754 -0.3208  0.2871  0.1623
14012TIP3    H163451   2.961   2.273  16.828 -1.3838 -0.4404 -0.6087
14012TIP3    H263452   3.047   2.359  16.738 -1.2249  0.6253  0.5210
14013TIP3   OH263453   4.697   4.978  15.851  0.2749  0.0138  0.2839
14013TIP3    H163454   4.620   4.980  15.909 -0.4219  0.2332 -0.6274
14013TIP3    H263455   4.750   5.053  15.880  0.9823 -1.0857  1.9875
14014TIP3   OH263456   3.006   5.117  16.097 -0.1964  0.2682  0.3250
14014TIP3    H163457   2.960   5.099  16.179  0.9475 -1.7812  0.5817
14014TIP3    H263458   3.067   5.044  16.087  0.4076  0.9928 -1.8585
14015TIP3   OH263459   5.950   4.974  11.888 -0.3306 -0.1488 -0.2127
14015TIP3    H163460   6.034   4.981  11.843 -0.2963 -0.4800 -0.2058
14015TIP3    H263461   5.901   5.051  11.860 -0.0077  0.0691 -0.1814
14016TIP3   OH263462   1.692   0.925  12.289  0.0599 -0.2107  0.0476
14016TIP3    H163463   1.605   0.893  12.266 -0.6724  2.1517 -0.8222
14016TIP3    H263464   1.693   0.925  12.384 -1.0575  0.1096  0.0712
14017TIP3   OH263465   6.763   1.395  15.620  0.2759 -0.1623  0.0017
14017TIP3    H163466   6.781   1.359  15.707  0.0212  0.6153  0.3755
14017TIP3    H263467   6.763   1.490  15.632  0.9984 -0.0137 -0.9956
14018TIP3   OH263468   6.554   6.492  16.747  0.1179  0.2084 -0.3038
14018TIP3    H163469   6.556   6.416  16.688  2.1297 -0.2168  0.2265
14018TIP3    H263470   6.609   6.557  16.703  2.2212 -0.3578  1.3380
14019TIP3   OH263471   2.930   5.253   4.572  0.0923  0.0488  0.0285
14019TIP3    H163472   2.949   5.331   4.625 -0.2002  0.0883  0.0772
14019TIP3    H263473   2.940   5.180   4.633  3.4945 -0.2664 -0.7103
14020TIP3   OH263474   1.334   1.653   6.039  0.1807 -0.2452  0.0871
14020TIP3    H163475   1.258   1.624   6.090 -0.4110  1.4811  0.2406
14020TIP3    H263476   1.381   1.711   6.098  2.5657 -2.4736  0.5794
14021TIP3   OH263477   0.446   6.244   2.530 -0.1746 -0.4328  0.0579
14021TIP3    H163478   0.429   6.167   2.585 -0.2743  0.5501  1.4300
14021TIP3    H263479   0.474   6.207   2.446 -1.9567 -2.0046  0.0958
14022TIP3   OH263480   5.844   5.044  10.828  0.1415 -0.2708  0.3763
14022TIP3    H163481   5.793   4.973  10.788  0.1406 -0.6896  1.1060
14022TIP3    H263482   5.837   5.117  10.766  0.3904 -1.0009 -0.5354
14023TIP3   OH263483   4.786   4.029  13.195 -0.1652 -0.4104 -0.1502
14023TIP3    H163484   4.872   3.996  13.221 -0.3038 -0.6847 -0.0351
14023TIP3    H263485   4.803   4.084  13.118  0.3259  0.9345  0.8921
14024TIP3   OH263486   4.224   5.009   5.219  0.5289  0.2989  0.2663
14024TIP3    H163487   4.306   5.009   5.170  1.0523 -2.0914  1.0180
14024TIP3    H263488   4.212   5.101   5.245  0.7450  1.4895 -3.3321
14025TIP3   OH263489   1.653   0.022   2.834  0.1158 -0.6571  0.5602
14025TIP3    H163490   1.620   0.070   2.758 -0.6578 -2.9526 -0.6758
14025TIP3    H263491   1.581   0.023   2.897 -0.2083 -0.9129  0.1936
14026TIP3   OH263492   4.613   6.130  13.876  0.0148 -0.7516 -0.0301
14026TIP3    H163493   4.570   6.115  13.960 -0.7101 -0.3704 -0.3321
14026TIP3    H263494   4.582   6.059  13.820 -0.2961 -0.4163 -0.2798
14027TIP3   OH263495   0.477   0.791   2.717  0.0370  0.0345  0.5378
14027TIP3    H163496   0.459   0.730   2.788  1.5684  0.9120  1.7380
14027TIP3    H263497   0.564   0.826   2.736  0.0027  1.1840 -1.1395
14028TIP3   OH263498   5.744   4.914  13.245 -0.1203 -0.3480 -0.6096
14028TIP3    H163499   5.745   4.917  13.149  0.0814 -0.8593 -0.6280
14028TIP3    H263500   5.738   4.821  13.266  0.2068 -0.2620 -0.1226
14029TIP3   OH263501   5.434   2.634  15.082  0.3395  0.2391  0.1723
14029TIP3    H163502   5.493   2.691  15.033 -0.8119  1.7083  0.4184
14029TIP3    H263503   5.481   2.551  15.090  1.2188  0.4685 -2.0011
14030TIP3   OH263504   1.737   5.792  14.209  0.3082  0.2649 -0.6242
14030TIP3    H163505   1.832   5.804  14.209  0.0419  3.4935  0.6774
14030TIP3    H263506   1.703   5.879  14.187 -2.3398 -0.5917 -0.1655
14031TIP3   OH263507   5.781   0.893  13.993 -0.2273  0.3903 -0.3023
14031TIP3    H163508   5.777   0.912  14.087 -2.0731  1.2450 -0.4978
14031TIP3    H263509   5.703   0.839  13.977  1.4240 -1.9521 -0.9352
14032TIP3   OH263510   0.185   0.215  12.685  0.4043  0.0041  0.0202
14032TIP3    H163511   0.203   0.160  12.760 -1.0084  0.9048  1.0785
14032TIP3    H263512   0.091   0.204  12.669  0.4198  0.8467 -0.7668
14033TIP3   OH263513   3.294   0.962   5.884  0.1552 -0.2129 -0.0385
14033TIP3    H163514   3.321   0.932   5.971  0.4229 -0.7396 -0.3053
14033TIP3    H263515   3.343   1.043   5.871  1.1663 -0.8468 -0.2669
14034TIP3   OH263516   0.396   1.894   0.929  0.5132  0.2332  0.2183
14034TIP3    H163517   0.329   1.829   0.907 -1.5255  1.2598  2.8459
14034TIP3    H263518   0.358   1.978   0.903  1.1220  0.7662  0.9945
14035TIP3   OH263519   0.140   4.396  12.741 -0.0260 -0.4246  0.2386
14035TIP3    H163520   0.150   4.462  12.672  0.7743  0.1562  0.8822
14035TIP3    H263521   0.229   4.380  12.772 -0.2690 -1.4477  0.4387
14036TIP3   OH263522   4.896   2.279   3.188  0.4866 -0.7063 -0.0750
14036TIP3    H163523   4.897   2.363   3.233  2.3655 -1.1112  0.7379
14036TIP3    H263524   4.988   2.259   3.171  0.1211 -2.6908 -0.0545
14037TIP3   OH263525   0.449   5.353   2.515  0.5036 -0.1787 -0.2546
14037TIP3    H163526   0.447   5.405   2.595  1.6829 -0.6687  0.1132
14037TIP3    H263527   0.539   5.362   2.483  0.1980 -0.4479 -1.2197
14038TIP3   OH263528   4.709   3.262  16.907 -0.4280 -0.3468 -0.0528
14038TIP3    H163529   4.703   3.222  16.820 -0.1470 -1.4732  0.4380
14038TIP3    H263530   4.707   3.357  16.890 -0.6829 -0.5561 -1.2560
14039TIP3   OH263531   5.150   2.611   2.562 -1.0628 -0.2367  0.1294
14039TIP3    H163532   5.056   2.608   2.543 -1.5335 -1.9681  2.3324
14039TIP3    H263533   5.158   2.675   2.633 -0.6634 -0.5348  0.3561
14040TIP3   OH263534   3.719   1.338  15.565  0.1028  0.3792  0.4933
14040TIP3    H163535   3.734   1.383  15.648  0.5907  2.1675 -0.5089
14040TIP3    H263536   3.624   1.332  15.557  0.0531  0.4064  1.0759
14041TIP3   OH263537   0.976   2.919   4.538 -0.6779  0.5994  0.0208
14041TIP3    H163538   0.978   2.985   4.607 -1.7983  1.6654 -0.9350
14041TIP3    H263539   1.008   2.964   4.460  0.1853 -0.4774 -0.2772
14042TIP3   OH263540   3.078   2.531  13.809  0.0996 -0.0082 -0.1074
14042TIP3    H163541   2.990   2.505  13.838 -0.6207  2.0769 -0.2576
14042TIP3    H263542   3.127   2.449  13.805 -1.7274 -1.1864  0.3516
14043TIP3   OH263543   3.477   1.858  12.450 -0.1297 -0.3822 -0.3341
14043TIP3    H163544   3.542   1.798  12.414  0.4845  1.0602 -1.7293
14043TIP3    H263545   3.397   1.841  12.400 -0.7600 -1.8085  1.0493
14044TIP3   OH263546   0.505   2.314   3.706  0.0985  0.4965 -0.3731
14044TIP3    H163547   0.418   2.309   3.747 -0.3782  1.7041 -1.1763
14044TIP3    H263548   0.503   2.244   3.640  0.4508 -0.7030  0.8433
14045TIP3   OH263549   2.789   5.823   4.621  0.4579  0.2093 -0.2903
14045TIP3    H163550   2.833   5.818   4.536 -1.2448  0.0402 -1.1994
14045TIP3    H263551   2.714   5.880   4.606 -0.9271 -1.3067  0.5900
14046TIP3   OH263552   5.566   2.204  13.376 -0.5481 -0.7817 -0.2212
14046TIP3    H163553   5.596   2.172  13.462 -0.4136 -0.8385 -0.2880
14046TIP3    H263554   5.647   2.212  13.325 -0.3020  1.6705  0.4371
14047TIP3   OH263555   0.501   5.972  13.440 -0.0885  0.3797 -0.6900
14047TIP3    H163556   0.565   5.902  13.433  0.4523  0.9788 -2.3117
14047TIP3    H263557   0.432   5.949  13.378 -0.8657  0.3347  0.1737
14048TIP3   OH263558   2.111   1.245  12.926  0.1557 -0.4386 -0.3565
14048TIP3    H163559   2.155   1.163  12.949  0.0276 -1.5201 -3.5285
14048TIP3    H263560   2.182   1.308  12.916  0.3269 -0.3344  1.1893
14049TIP3   OH263561   6.466   1.460  17.169  0.3009 -0.6021 -0.0533
14049TIP3    H163562   6.488   1.551  17.152  0.3312 -0.4965  0.5519
14049TIP3    H263563   6.483   1.448  17.262 -1.1728 -0.8099  0.2044
14050TIP3   OH263564   1.604   1.289   1.834 -0.1309 -0.3931 -0.1581
14050TIP3    H163565   1.610   1.311   1.927  0.9617 -1.3448  0.0253
14050TIP3    H263566   1.559   1.363   1.794  0.2477  0.4647  0.9734
14051TIP3   OH263567   0.159   2.867  15.976 -0.1817  0.2114 -0.4993
14051TIP3    H163568   0.200   2.950  15.999  2.4941 -1.4145  1.1714
14051TIP3    H263569   0.173   2.858  15.882 -1.0264  1.8381 -0.8221
14052TIP3   OH263570   3.157   3.001   5.103  0.4132 -0.1707 -0.9307
14052TIP3    H163571   3.242   2.964   5.127 -0.0431 -1.0901 -0.6591
14052TIP3    H263572   3.134   3.058   5.176  1.4705  1.3017 -1.6980
14053TIP3   OH263573   1.001   2.849   5.274  0.0976  0.5003  0.1783
14053TIP3    H163574   0.910   2.848   5.304 -0.4414 -1.4093 -1.3523
14053TIP3    H263575   0.996   2.828   5.181  2.1715 -1.1924  0.3867
14054TIP3   OH263576   5.422   3.430   0.551 -0.0728  0.2302  0.6868
14054TIP3    H163577   5.338   3.474   0.563  0.1066  0.5882  0.6250
14054TIP3    H263578   5.481   3.471   0.614 -0.0661 -0.3519  1.0685
14055TIP3   OH263579   4.007   3.416   3.999  0.2349  0.9896 -0.0816
14055TIP3    H163580   4.015   3.326   3.967 -0.5112 -0.0903  2.5339
14055TIP3    H263581   4.091   3.433   4.043  0.6054  1.8268 -1.0749
14056TIP3   OH263582   0.505   6.623  15.310 -0.1399 -0.4655 -0.5508
14056TIP3    H163583   0.498   6.694  15.246  0.5680  0.2114  0.0800
14056TIP3    H263584   0.595   6.631  15.343 -0.2817 -1.2206  0.0349
14057TIP3   OH263585   3.324   1.976  11.665 -0.0349 -0.4622 -0.1526
14057TIP3    H163586   3.330   2.067  11.694  1.9731 -0.4037 -0.5724
14057TIP3    H263587   3.308   1.982  11.571  3.5921 -0.3371 -0.9326
14058TIP3   OH263588   2.716   4.524  12.207 -0.3934 -0.3531  0.4780
14058TIP3    H163589   2.750   4.459  12.269  2.7014  0.0883 -0.6066
14058TIP3    H263590   2.764   4.508  12.126 -2.3294  0.8860 -1.0061
14059TIP3   OH263591   1.265   5.680   0.098 -0.2542 -0.0402 -0.3377
14059TIP3    H163592   1.316   5.670   0.178 -0.4372 -0.3149 -0.2527
14059TIP3    H263593   1.330   5.703   0.031  0.1350 -1.3213 -0.4294
14060TIP3   OH263594   3.724   3.018  16.320  0.1546 -0.8240 -0.0146
14060TIP3    H163595   3.644   3.062  16.292  0.2223  1.1720  2.5095
14060TIP3    H263596   3.695   2.931  16.349 -0.7893 -0.7441 -0.6596
14061TIP3   OH263597   6.683   6.203  16.406  0.2528  0.0525  0.1172
14061TIP3    H163598   6.619   6.146  16.448  1.4169 -1.1003  0.4134
14061TIP3    H263599   6.702   6.271  16.470  1.1789 -1.0545  1.0823
14062TIP3   OH263600   0.202   2.801  13.752 -0.5595  0.1496  0.0417
14062TIP3    H163601   0.237   2.747  13.681  0.1302 -0.4514  0.8110
14062TIP3    H263602   0.279   2.839  13.794 -0.9109  0.0868  0.7760
14063TIP3   OH263603   1.848   5.370   4.137 -0.0662  0.3024  0.6991
14063TIP3    H163604   1.867   5.463   4.124  1.2763 -0.1723 -1.2870
14063TIP3    H263605   1.884   5.327   4.059 -2.5292 -1.6744  0.5112
14064TIP3   OH263606   1.168   5.965   0.858 -0.7540 -0.0669 -0.1019
14064TIP3    H163607   1.219   5.884   0.851 -0.0897  0.4919 -2.3273
14064TIP3    H263608   1.182   5.994   0.948  1.3030 -0.9588 -0.0867
14065TIP3   OH263609   3.984   1.255  12.419  0.2211  0.1788 -0.0074
14065TIP3    H163610   4.021   1.311  12.487  0.9277  2.1803 -1.9479
14065TIP3    H263611   3.891   1.274  12.420  0.1488 -0.1842  0.7178
14066TIP3   OH263612   6.242   6.358  13.665  0.4535  0.0226  0.4413
14066TIP3    H163613   6.159   6.376  13.711 -0.9873  1.7011 -2.5240
14066TIP3    H263614   6.263   6.268  13.689 -1.3712  0.0607  2.5419
14067TIP3   OH263615   5.696   4.783   5.271 -0.4250  0.2318  0.2152
14067TIP3    H163616   5.611   4.812   5.237 -0.0729  1.4619  0.3235
14067TIP3    H263617   5.680   4.694   5.302 -1.2755 -0.1618 -1.2224
14068TIP3   OH263618   0.606   5.864  11.282  0.2051  0.1004 -0.4870
14068TIP3    H163619   0.629   5.836  11.371 -0.1444  0.0540 -0.4094
14068TIP3    H263620   0.683   5.912  11.251 -0.8733  3.1364  1.1126
14069TIP3   OH263621   2.543   1.845   3.872 -0.2316 -0.8816  0.7048
14069TIP3    H163622   2.545   1.782   3.800 -0.6313  0.8004 -0.8507
14069TIP3    H263623   2.452   1.876   3.874  0.1323  0.1998  0.9176
14070TIP3   OH263624   4.316   5.236   4.575  0.5099 -0.1834 -0.0385
14070TIP3    H163625   4.326   5.141   4.570 -1.7253 -0.5321  0.6931
14070TIP3    H263626   4.329   5.256   4.667 -0.9068 -0.0860  0.1576
14071TIP3   OH263627   2.023   3.537  15.032 -0.4846 -0.2242  0.0957
14071TIP3    H163628   2.088   3.467  15.033 -0.6887 -0.4261 -0.2731
14071TIP3    H263629   2.002   3.549  14.939 -0.4988  0.2836  0.1609
14072TIP3   OH263630   2.890   5.715  12.365  0.6809  0.6835 -0.2880
14072TIP3    H163631   2.901   5.623  12.339  0.9319  0.7798 -0.5179
14072TIP3    H263632   2.979   5.745  12.383  0.5586  0.7601  0.2011
14073TIP3   OH263633   4.290   5.691   3.037 -0.0400  0.0239  0.6109
14073TIP3    H163634   4.321   5.704   3.126  1.6706  1.8922 -0.1882
14073TIP3    H263635   4.366   5.707   2.981 -1.1747 -0.5750 -1.2308
14074TIP3   OH263636   6.370   4.546   5.280  0.2895  0.0289  0.7322
14074TIP3    H163637   6.435   4.606   5.317 -0.8843  0.2954  2.4410
14074TIP3    H263638   6.419   4.496   5.215  1.1870  3.2000 -1.2462
14075TIP3   OH263639   0.101   1.215  15.193 -0.1808  0.1438 -0.0612
14075TIP3    H163640   0.107   1.273  15.117 -2.9840 -0.9782 -1.3038
14075TIP3    H263641   0.111   1.272  15.269  0.5646  1.6476 -1.2416
14076TIP3   OH263642   2.945   0.613   5.306 -0.0203 -0.3647  0.1227
14076TIP3    H163643   2.875   0.609   5.241  0.4907  0.7010 -0.5188
14076TIP3    H263644   3.020   0.649   5.259  0.9328 -1.3214  0.8414
14077TIP3   OH263645   2.501   3.586  13.645  0.4389 -0.3359  0.0579
14077TIP3    H163646   2.493   3.681  13.644  0.5394 -0.3241  0.3787
14077TIP3    H263647   2.573   3.567  13.586  0.0273 -0.2516 -0.4781
14078TIP3   OH263648   1.545   2.479  14.360 -0.0483 -0.6315 -0.4405
14078TIP3    H163649   1.527   2.385  14.366 -0.2704 -0.7002 -1.8796
14078TIP3    H263650   1.462   2.521  14.381  0.5365 -0.6616  2.2167
14079TIP3   OH263651   4.284   1.909  14.982 -0.2186  0.2038  0.0012
14079TIP3    H163652   4.354   1.943  15.038 -1.1987  0.3407  1.1789
14079TIP3    H263653   4.250   1.986  14.937  1.5338 -0.0823 -2.0010
14080TIP3   OH263654   6.747   3.993   5.488  0.1044 -0.1300 -0.3629
14080TIP3    H163655   6.706   3.944   5.559 -2.3663  1.1405 -0.8184
14080TIP3    H263656   6.801   4.059   5.533 -0.5886 -0.0152  0.3225
14081TIP3   OH263657   2.404   0.936   6.162  0.6463  0.4593 -0.4217
14081TIP3    H163658   2.493   0.969   6.172  1.4480 -1.3295 -1.1164
14081TIP3    H263659   2.382   0.900   6.248  2.1455 -2.4888 -1.1229
14082TIP3   OH263660   2.323   3.532   0.878  0.7778  0.4511 -0.1295
14082TIP3    H163661   2.402   3.481   0.893  1.2894  0.5132 -2.3532
14082TIP3    H263662   2.352   3.623   0.887  0.1557  0.4648  2.4813
14083TIP3   OH263663   2.608   0.173   6.474  0.1064  0.0890 -0.0751
14083TIP3    H163664   2.667   0.118   6.421 -0.3500 -0.9604  0.4912
14083TIP3    H263665   2.596   0.252   6.420 -0.3166 -0.9285 -1.5391
14084TIP3   OH263666   1.561   4.807   6.059 -0.2786  0.1071  0.5815
14084TIP3    H163667   1.482   4.762   6.030 -0.0158  1.1124 -1.8995
14084TIP3    H263668   1.617   4.738   6.095 -1.5821 -0.8575  0.8128
14085TIP3   OH263669   6.445   0.572  12.169 -0.3800  0.8213  0.0050
14085TIP3    H163670   6.467   0.534  12.254 -1.5823  1.5160  0.6642
14085TIP3    H263671   6.392   0.504  12.126 -0.2912  0.7146  0.0619
14086TIP3   OH263672   4.391   2.192  16.052 -0.2631  0.4050 -0.1929
14086TIP3    H163673   4.417   2.167  16.141  0.8352  0.8029 -0.3924
14086TIP3    H263674   4.296   2.205  16.058 -0.1648  0.7288  1.0014
14087TIP3   OH263675   2.387   0.561  15.302 -0.3029 -0.0784 -0.3080
14087TIP3    H163676   2.473   0.581  15.263  0.1895  0.2949  0.9285
14087TIP3    H263677   2.358   0.482  15.256  0.6229 -0.1192 -0.8571
14088TIP3   OH263678   6.334   2.693   3.973 -0.0210 -0.3726 -0.2635
14088TIP3    H163679   6.412   2.724   4.019  0.0297 -0.8862  0.0069
14088TIP3    H263680   6.368   2.660   3.889 -0.3420  2.3986 -1.5910
14089TIP3   OH263681   1.156   1.741  14.921  0.0824  0.1926 -0.6302
14089TIP3    H163682   1.115   1.722  15.006 -3.3141  1.6168 -1.7485
14089TIP3    H263683   1.121   1.674  14.862  1.2831  0.0640 -1.2135
14090TIP3   OH263684   1.986   3.583  16.336  0.1970 -0.2356  0.3683
14090TIP3    H163685   2.001   3.671  16.372 -0.6390 -0.0775  0.3499
14090TIP3    H263686   2.016   3.524  16.405  1.0205  0.0518  0.2722
14091TIP3   OH263687   4.805   3.696  15.457  0.0922 -0.4288 -0.1391
14091TIP3    H163688   4.794   3.699  15.362  2.7831 -2.2992 -0.6222
14091TIP3    H263689   4.839   3.782  15.480  0.4108 -0.3012 -1.0394
14092TIP3   OH263690   5.125   0.798   2.424  0.3149  0.3659 -0.0597
14092TIP3    H163691   5.162   0.870   2.372  2.0963 -1.6038 -1.7257
14092TIP3    H263692   5.166   0.808   2.510  2.8801 -0.2029 -1.0972
14093TIP3   OH263693   2.084   1.651   2.578 -0.3069  0.4223  0.4376
14093TIP3    H163694   2.157   1.712   2.582  0.3049  0.0335 -2.4854
14093TIP3    H263695   2.114   1.574   2.626  1.9407 -0.3291 -1.9562
14094TIP3   OH263696   1.657   3.038   5.834 -0.3473 -0.7492 -0.4923
14094TIP3    H163697   1.684   3.025   5.743  2.3438 -0.5013  0.1788
14094TIP3    H263698   1.688   2.960   5.879  0.5962  0.2262  0.6000
14095TIP3   OH263699   3.788   4.479  11.669 -0.1391 -0.1621  0.2692
14095TIP3    H163700   3.852   4.469  11.599  0.2962 -1.1393  0.7954
14095TIP3    H263701   3.726   4.544  11.635  0.8361  0.4188 -0.4497
14096TIP3   OH263702   1.918   0.599   4.922 -0.3029  0.1945 -0.0348
14096TIP3    H163703   1.953   0.644   4.845 -1.2366  0.1785 -0.4822
14096TIP3    H263704   1.988   0.605   4.987  1.9370 -2.6529 -1.9061
14097TIP3   OH263705   1.167   0.479   0.693  1.0682  0.1010  0.5201
14097TIP3    H163706   1.114   0.411   0.652  1.2080 -1.3013  2.5472
14097TIP3    H263707   1.106   0.527   0.749  1.4262  0.1929  0.8344
14098TIP3   OH263708   0.604   5.699  16.110  0.3489 -0.5112 -0.1883
14098TIP3    H163709   0.527   5.684  16.056  0.3935 -2.5250  0.2174
14098TIP3    H263710   0.677   5.669  16.056  0.5244 -1.3274  0.4812
14099TIP3   OH263711   5.141   2.132  17.082  0.8464 -0.2614 -0.0260
14099TIP3    H163712   5.220   2.182  17.062  1.7332 -1.4830  0.2537
14099TIP3    H263713   5.099   2.180  17.152 -0.4490  2.1918 -2.3292
14100TIP3   OH263714   3.119   6.643  11.720  0.5256  0.3881 -0.4776
14100TIP3    H163715   3.206   6.680  11.705  1.7045 -1.4836  1.2335
14100TIP3    H263716   3.110   6.644  11.815 -1.3352  0.5020 -0.6310
14101TIP3   OH263717   1.823   6.675  14.279 -0.2894 -0.1021 -0.3031
14101TIP3    H163718   1.822   6.619  14.202  0.4613  0.2126 -0.5493
14101TIP3    H263719   1.799   6.617  14.351 -0.2119 -0.5748 -0.6543
14102TIP3   OH263720   4.814   1.768  11.472  0.6764 -0.1274  0.0862
14102TIP3    H163721   4.886   1.746  11.413  2.9103 -2.2166  3.2478
14102TIP3    H263722   4.749   1.699  11.458  1.3011 -0.7487  0.2155
14103TIP3   OH263723   1.013   5.447  12.514  0.1685  0.0336 -0.5691
14103TIP3    H163724   0.971   5.403  12.587  0.8142 -0.0875 -0.2603
14103TIP3    H263725   0.985   5.399  12.436  1.7064 -1.6235 -0.1509
14104TIP3   OH263726   6.092   2.544  15.610 -0.6218 -0.1213 -0.0690
14104TIP3    H163727   6.042   2.484  15.665  1.8260 -1.7079  0.6238
14104TIP3    H263728   6.136   2.486  15.546  0.4118  1.1251 -0.5342
14105TIP3   OH263729   4.921   2.378   5.289 -0.5099 -0.1863  0.3243
14105TIP3    H163730   4.838   2.333   5.275  0.1257 -1.4593  0.5077
14105TIP3    H263731   4.973   2.317   5.341 -0.0366  1.2652  1.6295
14106TIP3   OH263732   3.800   0.810   0.089  0.0789  0.1387  0.3393
14106TIP3    H163733   3.799   0.721   0.124 -0.2352 -0.3466 -0.8621
14106TIP3    H263734   3.853   0.804   0.010  1.7786  1.4719  1.3240
14107TIP3   OH263735   3.849   3.668   3.059  1.0015 -0.0925  0.0503
14107TIP3    H163736   3.755   3.687   3.067  0.7788 -1.3406  0.6453
14107TIP3    H263737   3.885   3.687   3.145  0.9415 -1.3900  0.3777
14108TIP3   OH263738   5.822   0.793   3.424  0.6255  0.0908  0.1908
14108TIP3    H163739   5.753   0.836   3.374 -0.0245 -1.3392 -0.1934
14108TIP3    H263740   5.829   0.845   3.504  0.3157  1.2626 -0.5223
14109TIP3   OH263741   1.971   6.690  16.525 -0.2153  0.1084  0.7114
14109TIP3    H163742   1.951   6.721  16.436 -1.7550  0.2230  1.0693
14109TIP3    H263743   1.972   6.769  16.579  2.7814  0.3036  0.5064
14110TIP3   OH263744   5.116   0.687  11.191 -0.2497  0.0162  0.0893
14110TIP3    H163745   5.172   0.698  11.268 -0.2379 -0.5771  0.1724
14110TIP3    H263746   5.033   0.728  11.216 -0.5373 -0.9199  0.7642
14111TIP3   OH263747   5.135   5.705  15.985 -0.0194 -0.5453 -0.0478
14111TIP3    H163748   5.070   5.658  15.933 -1.2158 -1.3506  2.0445
14111TIP3    H263749   5.097   5.793  15.996  0.0615 -0.4858 -0.2488
14112TIP3   OH263750   4.965   4.767  13.795 -0.1705  0.1094  0.5422
14112TIP3    H163751   4.956   4.850  13.748  0.4778  0.7486  1.4928
14112TIP3    H263752   4.998   4.706  13.730 -1.1809  0.4484 -0.3091
14113TIP3   OH263753   1.512   6.416   1.436  0.0429 -0.0289 -0.5931
14113TIP3    H163754   1.489   6.499   1.393 -0.4364 -1.3617 -3.0850
14113TIP3    H263755   1.427   6.377   1.457  0.2723  0.1832  0.7965
14114TIP3   OH263756   6.307   0.767   1.190 -0.6001  0.6204 -0.1957
14114TIP3    H163757   6.228   0.724   1.158 -0.9598  0.0832  1.3342
14114TIP3    H263758   6.275   0.841   1.242 -0.2462 -0.8610  2.2673
14115TIP3   OH263759   4.168   6.157   5.955 -0.3266 -0.2915 -0.7748
14115TIP3    H163760   4.105   6.141   6.026 -0.0423  0.1800 -0.4042
14115TIP3    H263761   4.117   6.151   5.875 -0.6494 -0.8617 -0.5289
14116TIP3   OH263762   5.431   0.667   3.406 -0.1706 -0.0299 -0.1371
14116TIP3    H163763   5.338   0.647   3.395  0.1404 -1.0888 -0.9654
14116TIP3    H263764   5.439   0.759   3.379 -0.5801 -0.6277 -2.5732
14117TIP3   OH263765   2.433   5.157  13.862 -0.0821 -0.2928 -0.2204
14117TIP3    H163766   2.463   5.247  13.846  1.1742 -0.5586  0.5152
14117TIP3    H263767   2.353   5.168  13.913 -0.0340  0.4148 -0.2815
14118TIP3   OH263768   3.565   0.266   5.526 -0.4636  1.0338  0.2070
14118TIP3    H163769   3.513   0.276   5.606  0.2301  0.0939  0.7947
14118TIP3    H263770   3.501   0.275   5.455 -0.7020  4.6672  0.7037
14119TIP3   OH263771   2.601   1.410   1.269  0.0985  0.0657 -0.0389
14119TIP3    H163772   2.528   1.472   1.269  1.0500  1.2205  0.6915
14119TIP3    H263773   2.559   1.324   1.275 -1.1931  0.7237  0.7267
14120TIP3   OH263774   1.935   3.980   1.219  0.2009 -0.1564  0.2143
14120TIP3    H163775   1.914   3.887   1.223 -0.1588 -0.0555  0.7836
14120TIP3    H263776   2.010   3.991   1.277 -0.8197  0.1829  1.5206
14121TIP3   OH263777   3.984   6.110  15.909  0.0096 -0.8528 -0.5344
14121TIP3    H163778   3.964   6.024  15.871  0.4260 -1.2488  0.1127
14121TIP3    H263779   4.076   6.104  15.933  0.0657 -0.1820 -0.5732
14122TIP3   OH263780   4.418   4.275  13.561 -0.0931 -0.0535  0.8690
14122TIP3    H163781   4.361   4.317  13.496  0.8278 -0.8186 -0.5011
14122TIP3    H263782   4.373   4.194  13.584  0.0531 -0.2852  0.3657
14123TIP3   OH263783   5.028   2.466  14.280 -0.3650 -0.1494  0.5213
14123TIP3    H163784   5.076   2.468  14.197  0.5052 -0.5656  1.0146
14123TIP3    H263785   4.953   2.408  14.262 -1.2654  1.2499 -0.5326
14124TIP3   OH263786   1.316   3.436   2.132 -0.4444 -0.4913 -0.0934
14124TIP3    H163787   1.230   3.405   2.161 -0.4693 -0.5018 -0.1799
14124TIP3    H263788   1.298   3.490   2.056 -0.4143 -0.1536  0.1377
14125TIP3   OH263789   5.995   5.382  13.624  0.4197 -0.4163  0.4074
14125TIP3    H163790   5.977   5.360  13.715 -0.6881  1.0251  0.5651
14125TIP3    H263791   6.013   5.476  13.624 -0.6289 -0.1690 -0.9740
14126TIP3   OH263792   3.612   2.114   6.112  0.4026 -0.1935 -0.6828
14126TIP3    H163793   3.664   2.096   6.190  0.7621  1.5652 -0.4763
14126TIP3    H263794   3.675   2.151   6.050 -0.2102 -0.0300 -1.2138
14127TIP3   OH263795   3.523   2.686  10.525 -0.2342 -0.4000 -0.3652
14127TIP3    H163796   3.563   2.601  10.541  0.7166  0.1369  0.1463
14127TIP3    H263797   3.488   2.713  10.610 -2.2135 -1.1012 -0.9021
14128TIP3   OH263798   5.437   5.537   4.604 -0.1846 -0.1116 -0.3957
14128TIP3    H163799   5.490   5.586   4.541 -0.9369  0.3186 -0.6998
14128TIP3    H263800   5.347   5.561   4.584 -0.4098  0.5279  1.2487
14129TIP3   OH263801   5.923   1.307  16.398 -0.3934  0.0363  0.0387
14129TIP3    H163802   5.885   1.344  16.318  1.0146 -1.9286 -1.6480
14129TIP3    H263803   5.854   1.250  16.432 -0.4855 -0.2780 -0.6476
14130TIP3   OH263804   4.689   0.393   0.904 -0.0586  0.3721 -0.4235
14130TIP3    H163805   4.610   0.429   0.866  0.7306  1.2564 -1.2706
14130TIP3    H263806   4.740   0.469   0.931  3.1421  0.3335 -5.2017
14131TIP3   OH263807   1.327   0.014   2.821  0.1822  0.2810  0.2491
14131TIP3    H163808   1.284   0.094   2.791  1.0766  0.0705 -1.7580
14131TIP3    H263809   1.318  -0.047   2.748  2.1895 -0.4099  0.5015
14132TIP3   OH263810   5.655   0.692  12.945 -0.2973 -0.4098  0.2990
14132TIP3    H163811   5.730   0.644  12.911 -0.4683 -2.0347  2.0242
14132TIP3    H263812   5.624   0.744  12.871  1.4830 -0.9905 -0.9236
14133TIP3   OH263813   0.625   0.887  10.665 -0.2290  0.1789  0.2172
14133TIP3    H163814   0.661   0.963  10.711  0.4073 -0.1891  0.3384
14133TIP3    H263815   0.547   0.920  10.621 -0.0002  0.8835  0.3319
14134TIP3   OH263816   2.999   1.104  16.919 -0.2135  0.1539 -0.6503
14134TIP3    H163817   2.926   1.165  16.934  0.3373  1.0032 -1.3601
14134TIP3    H263818   3.046   1.102  17.002 -0.0657  0.9370 -0.7073
14135TIP3   OH263819   4.395   3.818  17.126  0.1076  0.3055  1.0029
14135TIP3    H163820   4.450   3.747  17.162  1.5705 -0.6926 -2.6896
14135TIP3    H263821   4.458   3.886  17.101 -0.8400  1.0531  0.6067
14136TIP3   OH263822   0.502   5.406  13.427  0.0317 -0.2191  0.0022
14136TIP3    H163823   0.590   5.382  13.397 -0.2284  0.6723 -1.6488
14136TIP3    H263824   0.455   5.323  13.432  1.0060 -0.7323  1.1167
14137TIP3   OH263825   0.807   1.209  14.736 -0.2903  0.1580  0.2917
14137TIP3    H163826   0.888   1.169  14.704 -0.4800 -1.0441  1.2224
14137TIP3    H263827   0.782   1.154  14.811 -2.2290  0.1780 -0.2943
14138TIP3   OH263828   6.469   5.003   0.004 -0.1256 -0.0256  0.2590
14138TIP3    H163829   6.419   4.977  -0.073 -1.3106  0.7915  0.7044
14138TIP3    H263830   6.557   4.969  -0.010  0.2584  1.7759 -2.3724
14139TIP3   OH263831   1.036   0.656  16.994  0.1703 -0.1221  0.2633
14139TIP3    H163832   0.967   0.604  17.036 -0.0038 -0.5620 -0.5579
14139TIP3    H263833   0.990   0.731  16.956  0.0886 -0.5654 -0.5365
14140TIP3   OH263834   6.117   3.572  12.296  0.3228  0.7671 -0.1963
14140TIP3    H163835   6.168   3.652  12.294 -1.2303  1.7986 -0.5390
14140TIP3    H263836   6.076   3.571  12.382  1.9532 -0.7857  0.6354
14141TIP3   OH263837   1.229   2.047  16.730  0.0870  0.2545 -0.3435
14141TIP3    H163838   1.205   2.128  16.686  0.1822 -0.1506 -1.1440
14141TIP3    H263839   1.159   1.986  16.708 -0.5475  0.4005  1.1164
14142TIP3   OH263840   0.034   4.975  12.654 -0.1138 -0.1423  0.3719
14142TIP3    H163841  -0.061   4.979  12.653 -0.2011 -1.0251 -2.3190
14142TIP3    H263842   0.055   4.882  12.650  0.8863  0.0274  1.1208
14143TIP3   OH263843   2.194   5.421   1.065 -0.3836 -0.1011  0.7978
14143TIP3    H163844   2.191   5.359   0.992 -1.9334 -0.2076  0.9175
14143TIP3    H263845   2.287   5.433   1.083  0.2207  1.7020 -2.7145
14144TIP3   OH263846   1.179   6.392  11.704 -0.1404  0.8677  0.0839
14144TIP3    H163847   1.143   6.380  11.616 -0.3030  0.8869  0.1487
14144TIP3    H263848   1.187   6.487  11.713 -0.4753  0.8796  0.2356
14145TIP3   OH263849   4.564   1.062   3.216  0.1373  0.3926  0.7774
14145TIP3    H163850   4.471   1.038   3.210  0.8986 -2.7344 -0.0350
14145TIP3    H263851   4.573   1.137   3.157 -1.8478  0.8177  0.9411
14146TIP3   OH263852   5.869   3.842   0.509  0.5441 -0.2287 -0.6929
14146TIP3    H163853   5.881   3.872   0.418  1.7351 -0.4043 -0.6106
14146TIP3    H263854   5.809   3.906   0.547 -1.1803 -0.9895 -2.0083
14147TIP3   OH263855   5.887   4.961   2.959 -0.3466 -0.3021  0.1780
14147TIP3    H163856   5.885   4.966   2.863  0.8818  0.2228  0.1607
14147TIP3    H263857   5.921   5.046   2.987  2.2837 -1.4645  0.8919
14148TIP3   OH263858   2.297   6.269  12.257  0.0804 -0.0440 -0.6393
14148TIP3    H163859   2.271   6.361  12.260  1.6173  0.4201 -0.8308
14148TIP3    H263860   2.305   6.243  12.349 -0.9123 -0.1684 -0.5773
14149TIP3   OH263861   1.969   3.582   5.111  0.1140 -0.0851  0.7378
14149TIP3    H163862   1.964   3.505   5.055  0.1828  0.2468  0.2700
14149TIP3    H263863   1.984   3.655   5.051  2.3643  0.0349  1.3379
14150TIP3   OH263864   4.093   3.634  14.419  0.7441  0.2442 -0.2449
14150TIP3    H163865   4.149   3.667  14.348 -1.6670 -1.5735 -3.2316
14150TIP3    H263866   4.027   3.702  14.431  0.5147  0.0873 -0.5833
14151TIP3   OH263867   5.422   2.584  14.110 -0.4924  0.3022 -0.3341
14151TIP3    H163868   5.478   2.618  14.040 -1.1073 -0.3765 -1.1816
14151TIP3    H263869   5.334   2.584  14.072 -0.9904  0.8128  0.7763
14152TIP3   OH263870   6.366   4.809   6.329  0.0343  0.4223  0.1523
14152TIP3    H163871   6.403   4.895   6.311 -0.1112  0.1755 -1.4863
14152TIP3    H263872   6.289   4.827   6.383  0.8265  1.1786  1.0621
14153TIP3   OH263873   2.034   6.757   3.793  0.4609  0.0168  0.6331
14153TIP3    H163874   1.986   6.756   3.876 -0.6050 -0.7403  0.0245
14153TIP3    H263875   2.069   6.668   3.785  1.9264  0.5220  1.0181
14154TIP3   OH263876   0.669   5.414  13.691  0.4739 -0.3192 -0.1253
14154TIP3    H163877   0.695   5.356  13.619  1.3893  0.9345 -0.8543
14154TIP3    H263878   0.581   5.444  13.666  0.5094 -0.4261 -0.3848
14155TIP3   OH263879   4.033   1.063   2.473 -0.2568  0.0088  0.0494
14155TIP3    H163880   4.107   1.123   2.487 -0.6830  0.1996  1.6943
14155TIP3    H263881   4.053   0.988   2.528 -0.3254 -0.8544 -1.0661
14156TIP3   OH263882   2.963   4.919  16.602  0.3064  0.2996  0.0684
14156TIP3    H163883   3.015   4.976  16.658  0.3561  0.0572  0.2687
14156TIP3    H263884   3.027   4.864  16.557  0.2197 -0.0917  0.4179
14157TIP3   OH263885   3.980   2.258  14.718  0.2258 -0.3169 -0.6773
14157TIP3    H163886   3.927   2.247  14.796 -0.1284 -1.8922 -1.0958
14157TIP3    H263887   3.918   2.251  14.645  0.9187 -2.1183 -1.1729
14158TIP3   OH263888   4.606   0.793   6.432  0.0040  0.5940 -0.4678
14158TIP3    H163889   4.536   0.760   6.488  1.2483  0.1628  0.8988
14158TIP3    H263890   4.619   0.725   6.366  0.6195 -0.3851  0.6207
14159TIP3   OH263891   5.482   3.587   5.637 -0.9969  0.0303  0.2440
14159TIP3    H163892   5.512   3.651   5.572  0.3748  0.7888  1.5653
14159TIP3    H263893   5.487   3.503   5.591  0.4405  0.4847 -0.5170
14160TIP3   OH263894   1.944   6.376   4.421 -0.1640  0.0923 -0.2208
14160TIP3    H163895   1.926   6.406   4.510  2.2746 -0.5350  0.5635
14160TIP3    H263896   1.933   6.455   4.367  1.2540  1.2804  1.0954
14161TIP3   OH263897   2.503   5.473  11.008 -0.4381  0.5836 -0.2934
14161TIP3    H163898   2.558   5.413  11.058  0.8317  1.5615 -0.4644
14161TIP3    H263899   2.494   5.550  11.063  1.4640  1.9128 -1.7265
14162TIP3   OH263900   1.490   2.440  11.813 -0.1743  0.1691  0.0220
14162TIP3    H163901   1.454   2.456  11.900  0.0407 -0.9247  0.3315
14162TIP3    H263902   1.549   2.514  11.797 -0.6536  0.6761  0.5567
14163TIP3   OH263903   5.030   0.869  10.969  0.0411  0.7504 -0.1071
14163TIP3    H163904   4.987   0.796  11.015  1.1336  1.8757  2.9714
14163TIP3    H263905   4.992   0.947  11.009  2.0736  1.7936 -0.1153
14164TIP3   OH263906   2.749   4.681  11.102 -0.8492  0.3821  0.1083
14164TIP3    H163907   2.708   4.617  11.160 -0.0248 -1.6093 -1.3701
14164TIP3    H263908   2.686   4.753  11.098 -2.3769 -0.8332  0.9547
14165TIP3   OH263909   1.649   0.449  15.266 -0.6714 -0.1298 -0.8792
14165TIP3    H163910   1.674   0.541  15.253 -0.8409  0.2196  0.9493
14165TIP3    H263911   1.728   0.408  15.301 -1.9622  0.7243  3.8521
14166TIP3   OH263912   0.325   0.383  16.385  0.5048 -0.0144 -0.1440
14166TIP3    H163913   0.393   0.382  16.452  1.2256  3.5166 -0.6101
14166TIP3    H263914   0.366   0.342  16.308  1.1725 -0.2500  0.3293
14167TIP3   OH263915   6.389   0.365   3.514  0.0548 -0.4455  0.4029
14167TIP3    H163916   6.353   0.353   3.602 -0.4795  0.7034  0.3608
14167TIP3    H263917   6.452   0.294   3.504  1.1208  0.1654  2.2354
14168TIP3   OH263918   2.286   6.298  11.373 -0.1570 -0.4981 -0.1513
14168TIP3    H163919   2.245   6.229  11.320  0.5602 -0.0922 -1.2647
14168TIP3    H263920   2.333   6.251  11.441 -1.9635 -1.0010  0.8322
14169TIP3   OH263921   5.292   2.513   1.909 -0.2001  0.1818 -0.9558
14169TIP3    H163922   5.385   2.489   1.910 -0.5824 -1.4525 -1.4110
14169TIP3    H263923   5.272   2.534   2.000  0.2095 -1.2374 -0.5108
14170TIP3   OH263924   0.431   5.822  15.421  0.1659  0.1677  0.2686
14170TIP3    H163925   0.461   5.895  15.475  0.2746 -0.0181  0.4651
14170TIP3    H263926   0.509   5.793  15.374  0.7973 -1.5701  2.2447
14171TIP3   OH263927   5.804   3.434  16.395 -0.1365 -0.4270 -0.5030
14171TIP3    H163928   5.789   3.462  16.305 -2.1897  0.5115  0.0666
14171TIP3    H263929   5.836   3.512  16.440  0.6213 -0.8182 -0.3501
14172TIP3   OH263930   6.649   5.509  16.804 -0.2767 -0.2251 -0.5885
14172TIP3    H163931   6.668   5.430  16.853 -0.5687 -0.8978 -1.5321
14172TIP3    H263932   6.643   5.578  16.871  0.8798 -0.8105  0.1562
14173TIP3   OH263933   2.682   3.229  12.695  0.1484  0.0507 -0.5275
14173TIP3    H163934   2.706   3.137  12.693 -1.3700 -0.3632 -1.1402
14173TIP3    H263935   2.662   3.252  12.604  1.3777  1.2498 -0.5290
14174TIP3   OH263936   1.620   2.629  10.587 -0.2648  0.6791 -0.3408
14174TIP3    H163937   1.550   2.608  10.526  0.9361 -2.5325 -0.8260
14174TIP3    H263938   1.701   2.617  10.536  0.7394 -1.0611  1.4773
14175TIP3   OH263939   5.481   5.258   4.587  0.1000  0.3337  0.2460
14175TIP3    H163940   5.419   5.318   4.548  0.2066 -1.5748 -3.3187
14175TIP3    H263941   5.567   5.287   4.555  0.3981 -0.3084  0.4236
14176TIP3   OH263942   5.851   3.574   0.947  0.0205  0.7028  0.4869
14176TIP3    H163943   5.873   3.565   1.039 -0.1752 -2.1629  0.3226
14176TIP3    H263944   5.870   3.666   0.927  0.6056  1.2514  3.2005
14177TIP3   OH263945   1.907   3.035   4.525 -0.2865 -0.5623 -0.3334
14177TIP3    H163946   1.948   2.950   4.539  0.6576 -0.6072 -2.9424
14177TIP3    H263947   1.888   3.038   4.432 -0.1858  2.1537 -0.3541
14178TIP3   OH263948   1.350   0.395   4.709  0.2811  0.0041  0.2260
14178TIP3    H163949   1.320   0.373   4.797 -0.2531 -1.4577 -0.2881
14178TIP3    H263950   1.439   0.361   4.704  0.9613  1.6018  0.7276
14179TIP3   OH263951   6.196   3.412   0.324  0.8445  0.5234  0.0238
14179TIP3    H163952   6.130   3.369   0.378  0.8626  0.4834  0.0139
14179TIP3    H263953   6.237   3.340   0.274  1.0933  0.5128  0.2428
14180TIP3   OH263954   3.546   4.668   3.534 -0.0098  0.4182  0.2115
14180TIP3    H163955   3.618   4.686   3.595 -0.5008 -0.6092  1.1377
14180TIP3    H263956   3.492   4.605   3.581  0.3974 -1.6090 -1.9010
14181TIP3   OH263957   3.388   6.055  14.238  0.4550 -0.0926 -0.7308
14181TIP3    H163958   3.385   6.094  14.151 -0.8379 -0.4182 -0.8496
14181TIP3    H263959   3.316   6.096  14.285  1.4317  0.4353  0.3620
14182TIP3   OH263960   4.192   2.473  16.194 -0.4663  0.3190  0.2098
14182TIP3    H163961   4.234   2.405  16.247 -0.5166  0.8389  0.9509
14182TIP3    H263962   4.145   2.526  16.258  0.3086  1.5752 -0.2207
14183TIP3   OH263963   5.339   6.334  15.431 -0.6638  0.2556 -0.1500
14183TIP3    H163964   5.350   6.410  15.489 -0.6630  0.4180 -0.3618
14183TIP3    H263965   5.300   6.267  15.487 -1.0845  0.5598 -0.0676
14184TIP3   OH263966   4.534   0.516   3.544 -0.2034  0.0435 -0.0180
14184TIP3    H163967   4.527   0.590   3.605 -1.2813  0.3970 -0.5561
14184TIP3    H263968   4.623   0.483   3.558 -0.0746  0.7548  1.0094
14185TIP3   OH263969   2.580   0.853   1.705 -0.1526 -0.6771 -0.2517
14185TIP3    H163970   2.607   0.832   1.615 -1.3348  0.0550 -0.8008
14185TIP3    H263971   2.527   0.779   1.732  2.9908 -2.6194  1.2058
14186TIP3   OH263972   1.570   1.346   1.440 -0.3583 -0.2684 -0.2207
14186TIP3    H163973   1.622   1.291   1.499 -0.5365 -0.0467  0.1491
14186TIP3    H263974   1.489   1.362   1.488 -1.4179 -1.8347 -1.3804
14187TIP3   OH263975   5.717   1.942   4.212  0.3722  0.0778  0.2613
14187TIP3    H163976   5.692   2.015   4.270  1.1458  0.4677  0.1205
14187TIP3    H263977   5.750   1.875   4.272  1.3957  0.5736  0.2687
14188TIP3   OH263978   1.399   3.197   1.949 -0.3613 -0.1823  0.4162
14188TIP3    H163979   1.398   3.260   2.021 -2.3753  0.5501 -0.1933
14188TIP3    H263980   1.394   3.112   1.993  0.5640  0.1287  1.1789
14189TIP3   OH263981   1.972   2.760  14.008 -0.1173 -0.4439 -0.5484
14189TIP3    H163982   2.009   2.820  14.073  0.3333  0.1938 -1.3714
14189TIP3    H263983   1.944   2.684  14.059  1.6902 -0.6618  0.2124
14190TIP3   OH263984   2.589   6.484  13.589  0.0337 -0.3327 -0.2875
14190TIP3    H163985   2.499   6.453  13.585 -0.4355  0.8839  0.2087
14190TIP3    H263986   2.640   6.415  13.547 -1.3243 -0.2296 -2.2347
14191TIP3   OH263987   4.734   4.408   2.588  0.1627  0.1179 -0.2442
14191TIP3    H163988   4.782   4.334   2.626  0.0854 -0.1541 -0.6677
14191TIP3    H263989   4.700   4.456   2.664 -0.2195 -0.5700  0.0284
14192TIP3   OH263990   3.593   2.053  16.123  0.2472 -0.1862  0.2099
14192TIP3    H163991   3.628   2.083  16.039  1.3125  0.0643  0.7281
14192TIP3    H263992   3.663   2.071  16.186  1.0030 -3.7655  0.6029
14193TIP3   OH263993   6.632   4.213   2.612 -0.0180  0.3207  0.4569
14193TIP3    H163994   6.707   4.265   2.639  0.8408 -1.0241  0.7583
14193TIP3    H263995   6.557   4.254   2.656  0.2462  2.6282 -1.0821
14194TIP3   OH263996   0.443   2.920   3.729  0.0875 -0.0954 -0.6391
14194TIP3    H163997   0.369   2.951   3.676 -0.3857 -0.3626 -0.1479
14194TIP3    H263998   0.519   2.962   3.690 -0.4612  1.1776 -0.3746
14195TIP3   OH263999   0.533   1.781   5.238  0.0550 -0.6402  0.1668
14195TIP3    H164000   0.608   1.781   5.298 -1.0926 -2.2813  1.7060
14195TIP3    H264001   0.549   1.708   5.179  0.2470 -0.2179 -0.3131
14196TIP3   OH264002   0.160   5.009  13.107 -0.1439 -0.6260 -0.1745
14196TIP3    H164003   0.240   5.060  13.118  1.3820 -2.7349 -0.8071
14196TIP3    H264004   0.094   5.074  13.083  1.8205  1.0075 -1.6261
14197TIP3   OH264005   6.763   2.639   4.273  0.2237 -0.0875  0.2822
14197TIP3    H164006   6.800   2.551   4.262  2.4874  0.9540 -1.0541
14197TIP3    H264007   6.810   2.693   4.210 -0.9147  2.1691  1.2585
14198TIP3   OH264008   3.243   4.376   0.725  0.2702 -0.8501 -0.7127
14198TIP3    H164009   3.306   4.407   0.661 -0.7902 -1.3541 -2.0459
14198TIP3    H264010   3.213   4.456   0.769  1.8089 -0.6122 -0.0376
14199TIP3   OH264011   3.326   5.669   4.425 -0.0797 -0.4287 -0.3128
14199TIP3    H164012   3.283   5.695   4.344 -0.8783  1.1967  0.5715
14199TIP3    H264013   3.284   5.723   4.492  3.7756  1.8467  0.5582
14200TIP3   OH264014   6.207   1.469   2.242 -0.4575  0.6728  0.5054
14200TIP3    H164015   6.250   1.457   2.326  0.1227 -0.5824  0.0428
14200TIP3    H264016   6.233   1.393   2.190 -3.0219 -0.0141  0.1138
14201TIP3   OH264017   0.800   6.367  12.401 -0.0903  0.1506 -0.2600
14201TIP3    H164018   0.824   6.297  12.463  0.1424  0.2388 -0.2521
14201TIP3    H264019   0.812   6.448  12.450  0.3173  0.2338 -0.4940
14202TIP3   OH264020   5.031   6.174   2.577 -0.0836  0.2269  0.6224
14202TIP3    H164021   5.031   6.166   2.673 -1.6294 -1.7240  0.5201
14202TIP3    H264022   4.945   6.211   2.557 -0.0034  0.0554 -0.0422
14203TIP3   OH264023   5.884   6.266   1.174 -0.3899 -0.1500 -0.2070
14203TIP3    H164024   5.829   6.202   1.220  0.4258 -1.2660 -0.7145
14203TIP3    H264025   5.947   6.294   1.240  0.7881 -1.7602 -0.5769
14204TIP3   OH264026   2.550   6.250   4.350  0.1752  0.3002  0.0264
14204TIP3    H164027   2.623   6.276   4.406  0.1743 -0.7719  0.5416
14204TIP3    H264028   2.495   6.195   4.405 -0.0397 -0.4470 -0.9053
14205TIP3   OH264029   1.860   1.744  13.252 -0.1193  0.3759  0.6171
14205TIP3    H164030   1.798   1.681  13.216  0.1601  0.7868 -0.6743
14205TIP3    H264031   1.908   1.696  13.319 -0.3743 -0.5905  0.1261
14206TIP3   OH264032   5.744   1.214  15.976  0.1596  0.4842  0.3840
14206TIP3    H164033   5.778   1.145  15.919 -0.1349 -0.4856  1.3501
14206TIP3    H264034   5.813   1.229  16.040 -0.4019 -0.0937  1.1550
14207TIP3   OH264035   4.643   2.831   2.664  0.0741  0.9483 -0.1609
14207TIP3    H164036   4.645   2.876   2.580 -0.1480 -0.2165 -0.8158
14207TIP3    H264037   4.710   2.763   2.656 -2.1420 -1.3568 -0.7167
14208TIP3   OH264038   2.560   4.906   2.320 -0.5937 -0.4434  0.2625
14208TIP3    H164039   2.586   4.969   2.387  1.3406 -0.7804 -0.1157
14208TIP3    H264040   2.599   4.939   2.239 -2.3362 -0.4036 -0.6087
14209TIP3   OH264041   4.239   1.276   0.652 -0.2065  0.2772  0.2315
14209TIP3    H164042   4.316   1.311   0.607  0.2453  0.2762  0.9783
14209TIP3    H264043   4.189   1.353   0.679 -0.4227  0.2805 -0.1759
14210TIP3   OH264044   0.171   0.945   2.409  0.1669  0.1173  0.2720
14210TIP3    H164045   0.111   0.998   2.461 -0.5781  0.9789 -1.3932
14210TIP3    H264046   0.216   0.890   2.473 -1.9200 -0.0974  1.6565
14211TIP3   OH264047   2.762   2.044   2.629 -0.4686 -0.0135  0.1620
14211TIP3    H164048   2.803   2.014   2.710  0.3558 -0.1993 -0.3023
14211TIP3    H264049   2.797   2.132   2.615  2.2893 -1.2298 -1.7815
14212TIP3   OH264050   4.616   2.659  13.223  1.1022  0.3536 -0.2024
14212TIP3    H164051   4.550   2.728  13.231  1.6561  1.0641 -1.4949
14212TIP3    H264052   4.642   2.641  13.313  1.5447  2.4449  0.1397
14213TIP3   OH264053   3.707   0.784   3.240 -0.0725 -0.1662  0.5380
14213TIP3    H164054   3.695   0.690   3.248 -1.3557  0.0516  1.4353
14213TIP3    H264055   3.630   0.814   3.192  1.1330  0.2432 -1.2285
14214TIP3   OH264056   6.220   1.818   2.958  0.0785  0.3968  0.8413
14214TIP3    H164057   6.291   1.873   2.993 -0.8954  0.6318  2.5430
14214TIP3    H264058   6.164   1.801   3.033 -0.0256 -2.4210  0.2367
14215TIP3   OH264059   6.441   4.678   1.756 -0.0125  0.0192 -0.5352
14215TIP3    H164060   6.403   4.757   1.795  0.1359 -0.8552  1.4923
14215TIP3    H264061   6.518   4.660   1.809  0.3472 -1.1254 -1.4033
14216TIP3   OH264062   6.508   2.064  14.141 -0.0161  0.3233  0.1280
14216TIP3    H164063   6.527   2.154  14.169  1.4838  0.0499  0.1079
14216TIP3    H264064   6.530   2.010  14.218 -2.7456  0.0746  0.8189
14217TIP3   OH264065   3.654   4.321  15.072  0.0081 -0.4108  0.5028
14217TIP3    H164066   3.737   4.369  15.063 -0.2021 -0.3328 -1.5457
14217TIP3    H264067   3.587   4.385  15.050 -0.5315 -0.7536  1.1214
14218TIP3   OH264068   2.330   6.526   1.239  0.2496 -0.3008 -0.5768
14218TIP3    H164069   2.420   6.543   1.210  1.0062 -1.9633  0.6193
14218TIP3    H264070   2.306   6.445   1.194  0.6951 -1.8002  1.7180
14219TIP3   OH264071   3.962   2.897  11.244 -0.0923  0.4929  0.1262
14219TIP3    H164072   4.024   2.853  11.186  0.6177  2.3248 -0.5708
14219TIP3    H264073   3.999   2.887  11.331 -0.1029 -0.5247  0.0206
14220TIP3   OH264074   2.065   1.830   0.206  0.0027 -0.1684 -0.0177
14220TIP3    H164075   2.122   1.906   0.198  0.6438 -0.7198 -0.7893
14220TIP3    H264076   2.037   1.811   0.116  2.0472 -2.4870 -0.2604
14221TIP3   OH264077   1.357   1.396  14.052 -0.1944  0.2381  0.1247
14221TIP3    H164078   1.337   1.373  14.143 -0.5707  0.6766  0.1575
14221TIP3    H264079   1.344   1.315  14.003 -1.7698  0.4179  0.1970
14222TIP3   OH264080   5.547   4.289   0.040  0.0433 -0.2942 -0.0358
14222TIP3    H164081   5.520   4.208   0.083  1.2993 -0.3885  0.6274
14222TIP3    H264082   5.634   4.269   0.004 -0.0912  0.4352 -0.8035
14223TIP3   OH264083   4.044   5.557  16.979  0.5528 -0.1426  0.5414
14223TIP3    H164084   4.082   5.472  16.955  0.6730  0.3361 -1.1332
14223TIP3    H264085   3.954   5.553  16.948 -0.8822 -1.2138  4.3591
14224TIP3   OH264086   4.007   4.717  10.611  0.1974 -0.2356 -0.3527
14224TIP3    H164087   4.096   4.690  10.632  1.2224  1.1899 -2.5139
14224TIP3    H264088   3.985   4.782  10.678  0.0073 -1.9111  1.2859
14225TIP3   OH264089   0.345   5.798   3.155 -0.1464  1.1175  0.1995
14225TIP3    H164090   0.353   5.818   3.062  2.5808 -0.3992 -0.0047
14225TIP3    H264091   0.411   5.853   3.197  0.3416  0.0220  0.9023
14226TIP3   OH264092   3.775   6.106  11.409 -0.0502  0.1325  0.2639
14226TIP3    H164093   3.707   6.114  11.342 -1.6769  1.3431  1.9352
14226TIP3    H264094   3.813   6.193  11.416  1.8113 -0.5589 -0.7232
14227TIP3   OH264095   6.245   0.616   0.820 -0.0380  0.0823 -0.2954
14227TIP3    H164096   6.248   0.663   0.736  0.6042 -0.7053 -0.7233
14227TIP3    H264097   6.308   0.544   0.810  0.4243  0.2797  1.0540
14228TIP3   OH264098   2.426   3.188  16.144  0.6101  0.3875  0.0745
14228TIP3    H164099   2.354   3.140  16.185  1.3744 -1.0208 -0.1826
14228TIP3    H264100   2.405   3.188  16.051  0.9124  0.0140  0.0042
14229TIP3   OH264101   1.124   2.177  15.258 -0.0847 -0.3968  0.0337
14229TIP3    H164102   1.076   2.115  15.312  0.9025 -2.1551 -1.0056
14229TIP3    H264103   1.214   2.143  15.255  1.6220  3.1629  2.5446
14230TIP3   OH264104   1.943   3.742  15.869  0.8323  0.2745 -0.1729
14230TIP3    H164105   2.030   3.708  15.851  2.3888  1.4375  4.0402
14230TIP3    H264106   1.904   3.677  15.928 -0.1614  0.9871 -0.0205
14231TIP3   OH264107   1.813   2.140   0.256 -0.1233 -0.3536 -0.0379
14231TIP3    H164108   1.770   2.075   0.200 -4.4661  0.1992  2.2256
14231TIP3    H264109   1.760   2.219   0.246 -0.3531  0.1601  3.6836
14232TIP3   OH264110   5.703   6.304  13.205 -0.3428 -0.1395 -0.0100
14232TIP3    H164111   5.718   6.388  13.247  0.4086 -0.2440 -0.0599
14232TIP3    H264112   5.741   6.313  13.117 -1.8342  0.0545 -0.6646
14233TIP3   OH264113   0.648   5.265   1.991  0.0862 -0.3243  0.2055
14233TIP3    H164114   0.619   5.222   1.911 -0.1868  3.6729 -2.1321
14233TIP3    H264115   0.743   5.275   1.980 -0.1271  1.3882 -0.3559
14234TIP3   OH264116   1.472   5.231  14.445 -0.3635  0.2047  0.1886
14234TIP3    H164117   1.487   5.139  14.465 -1.8735 -0.7743 -2.6520
14234TIP3    H264118   1.528   5.250  14.370 -0.1129  1.6337  0.6904
14235TIP3   OH264119   5.619   5.672   3.603 -0.0954  0.0272  0.8258
14235TIP3    H164120   5.579   5.592   3.570  0.2162 -0.9312  2.6414
14235TIP3    H264121   5.651   5.717   3.524 -0.2069 -1.6631 -0.2410
14236TIP3   OH264122   6.571   3.839   5.112  0.1012 -0.3241 -0.1659
14236TIP3    H164123   6.508   3.797   5.054  0.4956 -0.2034 -0.6931
14236TIP3    H264124   6.605   3.912   5.060  0.9697 -0.6303 -0.0412
14237TIP3   OH264125   3.912   0.389  11.224  0.1957 -0.2631 -0.3756
14237TIP3    H164126   3.882   0.474  11.193  1.1810  0.8923  1.6174
14237TIP3    H264127   4.005   0.386  11.202  0.4901 -0.1913  0.7685
14238TIP3   OH264128   5.362   4.613  14.263 -0.2200 -0.3075  0.3811
14238TIP3    H164129   5.455   4.593  14.274  0.0040  0.1242 -0.6204
14238TIP3    H264130   5.343   4.592  14.172 -1.6832 -2.5154  1.1145
14239TIP3   OH264131   0.988   0.915  15.413  0.5123  0.7017  0.3651
14239TIP3    H164132   0.924   0.866  15.465  0.7338 -0.3476 -0.3372
14239TIP3    H264133   1.073   0.887  15.446  0.6581 -0.0196 -0.5763
14240TIP3   OH264134   3.171   2.614   5.823 -0.3421 -0.5634 -0.2113
14240TIP3    H164135   3.243   2.671   5.848  0.3555 -0.9811 -1.2143
14240TIP3    H264136   3.175   2.609   5.728 -1.3270 -1.0832 -0.2484
14241TIP3   OH264137   1.972   2.388  11.491 -0.5340 -0.0298  0.1342
14241TIP3    H164138   1.909   2.402  11.420 -0.2572 -0.4822 -0.2043
14241TIP3    H264139   1.928   2.421  11.569 -1.4502 -0.9628  0.0182
14242TIP3   OH264140   3.768   5.015  17.027 -0.0698  0.3055 -0.3545
14242TIP3    H164141   3.687   4.986  17.068 -0.6764  1.2147 -0.8598
14242TIP3    H264142   3.824   5.043  17.100 -0.4544  0.2482 -0.0389
14243TIP3   OH264143   0.285   6.077   1.229 -0.0203 -0.3378 -0.3301
14243TIP3    H164144   0.261   6.166   1.200  0.6964 -0.0980 -0.1943
14243TIP3    H264145   0.239   6.066   1.312 -0.4468 -0.2566 -0.5486
14244TIP3   OH264146   6.233   2.303  12.061 -0.3860 -0.7078  0.5795
14244TIP3    H164147   6.266   2.265  11.980 -0.1115 -0.1634  0.4335
14244TIP3    H264148   6.279   2.387  12.069 -3.5757  1.4233 -1.0500
14245TIP3   OH264149   5.159   5.152  12.515  0.0850 -0.1424 -0.1951
14245TIP3    H164150   5.091   5.132  12.579  0.5814  0.8205  0.6525
14245TIP3    H264151   5.228   5.088  12.534 -0.7035 -1.3858 -1.3168
14246TIP3   OH264152   6.128   1.975   0.347  0.6483 -0.0826 -0.1830
14246TIP3    H164153   6.107   2.050   0.403 -2.6408 -0.4574 -0.6931
14246TIP3    H264154   6.120   1.899   0.405  0.8653 -0.2328 -0.3505
14247TIP3   OH264155   5.261   0.807   5.100  0.2026 -0.5645  0.1655
14247TIP3    H164156   5.243   0.894   5.065  0.2879 -0.9854 -0.9944
14247TIP3    H264157   5.352   0.790   5.076 -0.1470 -1.4064 -0.6296
14248TIP3   OH264158   6.579   2.756   1.293 -0.3445 -0.1498 -0.3515
14248TIP3    H164159   6.658   2.797   1.255 -1.1035  0.7144 -1.0434
14248TIP3    H264160   6.511   2.822   1.280 -1.2413 -1.0069 -0.0021
14249TIP3   OH264161   0.271   4.567   0.883 -0.3227 -0.2706 -0.3025
14249TIP3    H164162   0.302   4.594   0.797 -0.2078  2.3393  0.4749
14249TIP3    H264163   0.178   4.591   0.884 -0.2977 -0.1611  0.3137
14250TIP3   OH264164   1.216   0.380  15.466  0.5457  0.3421 -0.3182
14250TIP3    H164165   1.173   0.314  15.522  0.4041  0.1546 -0.6460
14250TIP3    H264166   1.150   0.403  15.401  0.7467  0.4877 -0.4720
14251TIP3   OH264167   3.593   5.044  16.387  0.0717  0.0092  0.1291
14251TIP3    H164168   3.636   5.105  16.327  2.0710  1.0890  2.4502
14251TIP3    H264169   3.516   5.091  16.419  0.4820  0.5322  0.3740
14252TIP3   OH264170   3.618   3.895   3.156  0.0534 -0.5564 -0.3513
14252TIP3    H164171   3.695   3.949   3.136  0.5216 -0.7723  0.7453
14252TIP3    H264172   3.566   3.950   3.215  1.0809 -1.6391  1.6897
14253TIP3   OH264173   2.683   4.831  16.541  0.2368 -0.0921  0.2614
14253TIP3    H164174   2.683   4.889  16.465  0.2055 -0.0065  0.3272
14253TIP3    H264175   2.772   4.835  16.574  0.6067 -1.1351 -0.5348
14254TIP3   OH264176   3.190   5.832  11.396 -0.1205 -0.0142  0.1338
14254TIP3    H164177   3.201   5.808  11.303 -0.5610  0.1061  0.0449
14254TIP3    H264178   3.178   5.748  11.440 -2.0950  0.0218 -0.2393
14255TIP3   OH264179   2.876   0.689   0.401  0.5151 -0.6245  0.5124
14255TIP3    H164180   2.818   0.754   0.360  0.0611 -1.1822  0.2669
14255TIP3    H264181   2.962   0.708   0.365 -0.0224 -1.7354 -1.5066
14256TIP3   OH264182   3.539   4.074  14.977  0.0714 -0.0444  0.4320
14256TIP3    H164183   3.587   4.152  15.007 -0.6120  0.6074 -0.1038
14256TIP3    H264184   3.448   4.092  15.001  0.1513 -1.5865  2.0967
14257TIP3   OH264185   0.167   2.179   2.699  0.2528  0.4505 -0.1129
14257TIP3    H164186   0.168   2.083   2.694  1.0301  0.4018  0.6631
14257TIP3    H264187   0.181   2.208   2.609 -0.8792 -0.1508 -0.4994
14258TIP3   OH264188   6.439   1.560   2.681  0.3455  0.5482  0.3973
14258TIP3    H164189   6.360   1.551   2.734 -0.3434 -0.7722 -0.7732
14258TIP3    H264190   6.422   1.505   2.605  2.6163 -0.1725  0.3551
14259TIP3   OH264191   4.449   1.095   4.804  0.1509  0.2114 -0.0606
14259TIP3    H164192   4.493   1.089   4.888  0.2439  0.8961 -0.0510
14259TIP3    H264193   4.378   1.158   4.818 -1.1026 -1.1861  0.0299
14260TIP3   OH264194   4.668   3.960  15.274 -0.0336  0.6087  0.5626
14260TIP3    H164195   4.698   3.924  15.191 -1.7450  1.0606 -0.3006
14260TIP3    H264196   4.745   4.002  15.311  0.9936 -0.4242 -0.3393
14261TIP3   OH264197   3.383   4.993  12.917  0.1994 -0.4118 -0.2835
14261TIP3    H164198   3.468   4.950  12.903  0.2953 -0.7621  1.2327
14261TIP3    H264199   3.345   4.946  12.991 -1.3641 -0.2925 -0.9830
14262TIP3   OH264200   0.680   0.165   5.118  0.7420  0.6835  0.0221
14262TIP3    H164201   0.654   0.254   5.141 -0.6974  0.4211 -0.4620
14262TIP3    H264202   0.720   0.130   5.198 -3.1251  0.1431  1.9783
14263TIP3   OH264203   2.250   0.024   4.274  0.3332  0.5079 -0.4714
14263TIP3    H164204   2.205   0.109   4.277  0.6096  0.6383  0.2449
14263TIP3    H264205   2.265   0.008   4.181 -0.0132  1.0867 -0.6357
14264TIP3   OH264206   4.171   3.948  12.205 -0.5028 -0.5756  0.3648
14264TIP3    H164207   4.248   3.929  12.151 -1.2735  0.1285 -1.0307
14264TIP3    H264208   4.097   3.927  12.149 -1.3378  0.5375  1.0139
14265TIP3   OH264209   1.837   5.495   3.517 -0.6365 -0.7452  0.2470
14265TIP3    H164210   1.765   5.534   3.468  0.1958 -0.0558 -0.4369
14265TIP3    H264211   1.878   5.568   3.563 -0.1568 -1.0816  0.3649
14266TIP3   OH264212   3.375   3.022   2.077 -0.0325 -0.1542 -0.3944
14266TIP3    H164213   3.378   3.024   1.981  0.6258 -0.3717 -0.3844
14266TIP3    H264214   3.360   2.930   2.099 -1.6199  0.1055 -0.3069
14267TIP3   OH264215   0.301   1.274  11.510 -0.4503 -0.4865  0.3304
14267TIP3    H164216   0.312   1.180  11.495 -2.2360 -0.7244  0.2599
14267TIP3    H264217   0.217   1.281  11.556 -1.6347  1.2031 -1.8726
14268TIP3   OH264218   6.486   3.919   3.075 -0.1207 -0.4358 -0.0445
14268TIP3    H164219   6.438   4.000   3.093 -1.9810 -1.0118 -1.9824
14268TIP3    H264220   6.493   3.876   3.160 -0.0557  1.2369  0.8427
14269TIP3   OH264221   5.722   2.590   3.454 -0.0194  0.0997 -0.5836
14269TIP3    H164222   5.663   2.556   3.387  0.0860  1.5624 -1.4495
14269TIP3    H264223   5.802   2.611   3.407  0.9002 -0.9858  0.4208
14270TIP3   OH264224   6.580   6.276  14.152 -0.0649 -0.4566  0.6251
14270TIP3    H164225   6.553   6.221  14.079 -0.0991 -0.5134  0.6811
14270TIP3    H264226   6.551   6.229  14.230 -1.2359  0.2556  0.6390
14271TIP3   OH264227   0.219   0.484   1.544 -0.0621  0.5001  0.1598
14271TIP3    H164228   0.191   0.437   1.623 -0.3184 -0.0312 -0.2404
14271TIP3    H264229   0.295   0.435   1.514  0.9836  1.6100  0.9289
14272TIP3   OH264230   0.811   4.066   1.468 -0.2096 -0.0034  0.5324
14272TIP3    H164231   0.901   4.089   1.493  0.9202 -2.5005 -0.8456
14272TIP3    H264232   0.821   3.988   1.413 -3.1155  0.6489 -1.1208
14273TIP3   OH264233   5.585   4.407   2.819  0.7254 -0.3808  0.1245
14273TIP3    H164234   5.676   4.379   2.814  0.5495 -0.8568 -0.4981
14273TIP3    H264235   5.536   4.335   2.780 -0.0048 -0.5332  1.2705
14274TIP3   OH264236   4.557   4.916   1.585 -0.2348 -0.7197 -0.3581
14274TIP3    H164237   4.646   4.899   1.616 -0.4061 -0.5939  0.2113
14274TIP3    H264238   4.525   4.986   1.642 -0.5769 -0.5258 -0.7854
14275TIP3   OH264239   4.886   1.327  16.449 -0.6967 -0.1379  0.7234
14275TIP3    H164240   4.957   1.317  16.513 -0.6241 -0.9955  0.5308
14275TIP3    H264241   4.869   1.421  16.445  1.5569  0.2947 -0.4224
14276TIP3   OH264242   3.404   1.502  16.751 -0.3206 -0.1594  0.3321
14276TIP3    H164243   3.400   1.407  16.762  0.9854 -0.2625  0.1096
14276TIP3    H264244   3.354   1.537  16.825 -3.1667 -1.0179 -1.0395
14277TIP3   OH264245   4.539   4.691   2.054 -0.2368  0.4889 -0.8384
14277TIP3    H164246   4.488   4.614   2.082 -1.9349  1.4760 -1.0917
14277TIP3    H264247   4.573   4.728   2.135 -2.0098  1.2100 -0.3886
14278TIP3   OH264248   6.766   5.629  11.012 -0.4628  0.2437  0.1608
14278TIP3    H164249   6.817   5.643  11.092  1.7175  1.5224 -1.3287
14278TIP3    H264250   6.808   5.554  10.970 -1.5016 -0.3328  0.1187
14279TIP3   OH264251   4.418   2.917   4.290 -0.0164  0.5440 -0.1493
14279TIP3    H164252   4.384   2.944   4.375  0.1455  0.0833  0.0639
14279TIP3    H264253   4.369   2.970   4.227 -0.9708  0.0588  0.1706
14280TIP3   OH264254   6.657   5.712   5.538  0.2945  0.7292 -0.3795
14280TIP3    H164255   6.752   5.699   5.539  0.2587  0.3724  0.7917
14280TIP3    H264256   6.635   5.727   5.446  1.9804  4.5755 -0.3813
14281TIP3   OH264257   2.975   4.171  14.997  0.5931 -0.2308  0.8304
14281TIP3    H164258   3.000   4.080  14.985  1.2302 -0.1106  1.1988
14281TIP3    H264259   2.895   4.181  14.944 -0.2238 -1.3243  1.8116
14282TIP3   OH264260   1.395   3.640   1.513  0.0394  0.5649 -0.5019
14282TIP3    H164261   1.324   3.641   1.577  0.7912  0.5501  0.3640
14282TIP3    H264262   1.355   3.606   1.433 -0.9878  0.8277 -0.1183
14283TIP3   OH264263   2.707   1.378   1.669 -0.5234  0.3501 -0.1771
14283TIP3    H164264   2.679   1.448   1.610 -0.6358  0.5168  0.0739
14283TIP3    H264265   2.668   1.400   1.753 -2.4072 -1.1411 -0.5789
14284TIP3   OH264266   0.120   1.587   0.310  0.2750  0.2353 -0.7208
14284TIP3    H164267   0.116   1.491   0.306 -0.5274  0.0970  1.5089
14284TIP3    H264268   0.028   1.614   0.311  0.3690  0.7303  1.9661
14285TIP3   OH264269   0.147   2.478   0.164 -0.0760 -0.4373 -0.3327
14285TIP3    H164270   0.227   2.527   0.146 -1.8426  2.9805  0.1343
14285TIP3    H264271   0.155   2.398   0.113  3.2021  0.1679 -0.9910
14286TIP3   OH264272   4.673   1.151   1.081 -0.3039 -0.1124 -0.2428
14286TIP3    H164273   4.694   1.227   1.134  1.1249  0.7424 -1.9356
14286TIP3    H264274   4.665   1.185   0.992 -0.0391 -1.8715 -0.9887
14287TIP3   OH264275   4.641   4.930  13.685 -0.1199  0.4579 -0.0975
14287TIP3    H164276   4.601   5.011  13.716  0.7578  0.8290  0.0902
14287TIP3    H264277   4.690   4.896  13.760  1.3475  0.9370 -0.8038
14288TIP3   OH264278   5.624   0.900  11.112  0.3036  0.0098 -0.7083
14288TIP3    H164279   5.537   0.921  11.147 -0.9625 -2.9682 -1.7957
14288TIP3    H264280   5.675   0.876  11.189 -0.2134  0.5031 -0.1964
14289TIP3   OH264281   2.646   2.230   4.819 -0.0914 -0.3380  0.1330
14289TIP3    H164282   2.603   2.164   4.765  0.2951 -0.1078 -0.4733
14289TIP3    H264283   2.714   2.267   4.762  1.7036 -1.5062  1.4130
14290TIP3   OH264284   3.882   3.066  16.926  0.8810 -0.0111  0.2065
14290TIP3    H164285   3.907   3.047  17.016  2.2414  1.2978  0.1336
14290TIP3    H264286   3.832   2.989  16.898  0.7669 -0.5970  1.9327
14291TIP3   OH264287   1.941   4.653   2.873 -0.2174 -0.1787 -0.3935
14291TIP3    H164288   2.008   4.718   2.852 -0.9637 -0.5645 -5.3150
14291TIP3    H264289   1.860   4.704   2.880 -0.1559 -0.1807  0.3600
14292TIP3   OH264290   6.600   2.177   4.270  0.2274  0.0065  0.7508
14292TIP3    H164291   6.643   2.238   4.330  0.8325  0.0244  0.3058
14292TIP3    H264292   6.661   2.104   4.262  0.3356  0.1790 -0.1461
14293TIP3   OH264293   0.489   2.565  14.972 -0.2603 -0.3368  0.1451
14293TIP3    H164294   0.507   2.643  15.025 -0.1188  0.7317 -1.4010
14293TIP3    H264295   0.540   2.578  14.892  0.4701 -2.4771  0.2179
14294TIP3   OH264296   3.050   2.671   1.043 -0.6403 -0.0232 -0.3099
14294TIP3    H164297   3.057   2.749   0.989 -0.0785 -0.3783 -0.7656
14294TIP3    H264298   3.107   2.607   1.001 -0.2208 -0.3257  0.6786
14295TIP3   OH264299   4.772   3.918   1.632 -0.2266  0.0016  0.0081
14295TIP3    H164300   4.824   3.966   1.696  1.5182 -2.4710  0.5928
14295TIP3    H264301   4.724   3.985   1.584  1.5471  2.2229  1.1854
14296TIP3   OH264302   5.925   5.741  12.871  0.1427 -0.7217 -0.3454
14296TIP3    H164303   5.980   5.688  12.813  1.7456  1.7661 -1.2767
14296TIP3    H264304   5.847   5.759  12.820  1.1397  0.6604 -1.4854
14297TIP3   OH264305   2.996   1.674   0.798  0.1693 -0.3128  0.0832
14297TIP3    H164306   2.950   1.590   0.803  0.8595 -0.6484  1.1176
14297TIP3    H264307   3.088   1.651   0.813  0.6784  0.3627 -1.7366
14298TIP3   OH264308   3.555   5.419  13.100  0.0212  0.0459  0.5538
14298TIP3    H164309   3.524   5.408  13.190 -1.2028  0.7694  0.2496
14298TIP3    H264310   3.490   5.373  13.047  0.9256 -0.6831  0.0410
14299TIP3   OH264311   4.601   4.751   3.415  0.3873 -0.0234  0.9060
14299TIP3    H164312   4.674   4.807   3.444  2.2342 -1.6979 -0.2500
14299TIP3    H264313   4.572   4.708   3.495  3.6748 -2.6125  0.9401
14300TIP3   OH264314   6.701   3.396  16.850  0.6430 -0.0453  0.1261
14300TIP3    H164315   6.646   3.415  16.926 -0.8109 -0.0565 -0.8720
14300TIP3    H264316   6.711   3.301  16.850  0.3444 -0.0763  0.1023
14301TIP3   OH264317   5.829   2.218   0.388 -0.1026 -0.0582  0.7371
14301TIP3    H164318   5.756   2.256   0.436 -3.0307 -3.1508 -0.8512
14301TIP3    H264319   5.873   2.162   0.452  1.7864  2.5818  1.9865
14302TIP3   OH264320   5.799   5.534   4.296  0.3856  0.1323  0.1862
14302TIP3    H164321   5.743   5.498   4.227 -2.8020  1.7928  1.6987
14302TIP3    H264322   5.842   5.609   4.255 -1.0348  0.7667 -0.2089
14303TIP3   OH264323   6.073   1.735  16.043 -0.0049 -0.1682 -0.3760
14303TIP3    H164324   6.077   1.679  15.965  2.1579  0.5466 -0.8388
14303TIP3    H264325   6.165   1.754  16.064 -0.4673 -0.7463  2.6658
14304TIP3   OH264326   3.388   3.806   0.081  0.5498 -0.2761 -0.4117
14304TIP3    H164327   3.403   3.859   0.160 -1.3515 -0.7645  0.3311
14304TIP3    H264328   3.318   3.852   0.035 -1.9387 -2.5681  0.8008
14305TIP3   OH264329   0.115   1.967  14.215  0.1565 -0.1519 -0.0483
14305TIP3    H164330   0.076   1.879  14.218 -1.1344  0.3997  0.1580
14305TIP3    H264331   0.106   1.994  14.124 -2.3526  0.9543  0.4229
14306TIP3   OH264332   3.923   2.846  16.603  0.6008  0.3994 -0.1980
14306TIP3    H164333   3.855   2.827  16.668 -0.0113  1.0801 -0.6240
14306TIP3    H264334   3.986   2.900  16.649  0.3103  0.6470 -0.0904
14307TIP3   OH264335   1.602   1.819  15.967  0.3864 -0.4788  0.1997
14307TIP3    H164336   1.640   1.821  15.879 -1.2395  0.6823 -0.5030
14307TIP3    H264337   1.510   1.796  15.954  0.2884 -1.0798  1.6788
14308TIP3   OH264338   2.010   4.843   3.120 -0.0500 -0.1869 -0.7242
14308TIP3    H164339   2.018   4.886   3.205  0.0751 -0.8568 -0.3907
14308TIP3    H264340   1.983   4.753   3.140  0.1291 -0.3988 -1.3825
14309TIP3   OH264341   2.331   3.862  16.531  0.0576 -0.0061 -0.6611
14309TIP3    H164342   2.314   3.941  16.480  0.4036  0.4174 -0.1340
14309TIP3    H264343   2.425   3.864  16.547  0.0593 -0.4962 -0.5919
14310TIP3   OH264344   0.968   2.542  11.480 -0.5808 -0.4599  0.0603
14310TIP3    H164345   0.935   2.500  11.401 -0.4667 -0.1827 -0.1385
14310TIP3    H264346   1.004   2.471  11.532 -1.8007 -0.8255  0.4439
14311TIP3   OH264347   3.025   0.701  11.969 -0.4273 -0.0237 -0.4856
14311TIP3    H164348   3.012   0.780  11.916 -1.2008  0.2536  0.0973
14311TIP3    H264349   3.120   0.694  11.978 -0.3368  0.6240 -0.8624
14312TIP3   OH264350   6.150   2.267  13.967  0.2760  0.4155  0.1745
14312TIP3    H164351   6.192   2.310  14.042 -2.5546  1.6683  1.1697
14312TIP3    H264352   6.131   2.339  13.906  0.7585 -0.3193 -0.8788
14313TIP3   OH264353   6.784   2.044  14.418 -0.4267 -0.1798 -0.6653
14313TIP3    H164354   6.850   2.029  14.350 -0.1854  0.4144 -0.5705
14313TIP3    H264355   6.830   2.029  14.500 -0.9860 -1.9262 -0.6374
14314TIP3   OH264356   3.457   1.987   4.817  0.3535 -0.2462 -0.4806
14314TIP3    H164357   3.418   1.903   4.796 -0.0468 -0.0483 -0.5319
14314TIP3    H264358   3.417   2.049   4.756 -0.0359  0.1422  0.1562
14315TIP3   OH264359   5.589   1.849  14.744  0.2907 -0.1913 -0.5547
14315TIP3    H164360   5.570   1.767  14.700 -0.1913 -0.8187  0.7675
14315TIP3    H264361   5.555   1.917  14.686  2.4466 -0.7438 -2.6256
14316TIP3   OH264362   4.748   1.449   5.114  0.3994  0.2585  0.6202
14316TIP3    H164363   4.668   1.432   5.165  0.3667  1.4265  0.9841
14316TIP3    H264364   4.760   1.544   5.119  1.7244  0.1141  0.4166
14317TIP3   OH264365   1.420   6.542  13.262  1.0412 -0.1591 -0.5010
14317TIP3    H164366   1.375   6.460  13.282  0.2920  0.5557  0.9032
14317TIP3    H264367   1.513   6.522  13.273  0.9697 -1.1733 -1.6132
14318TIP3   OH264368   2.461   1.181  16.242 -0.4483 -0.6266 -0.4820
14318TIP3    H164369   2.525   1.125  16.199  0.8808  2.2672 -2.5894
14318TIP3    H264370   2.376   1.149  16.210  0.1816 -2.0017 -0.8443
14319TIP3   OH264371   1.036   2.371   5.521 -0.3241  0.5329  0.0675
14319TIP3    H164372   0.969   2.335   5.580  0.1115 -0.2234  0.1026
14319TIP3    H264373   1.006   2.347   5.433  0.7811 -1.3525  0.1666
14320TIP3   OH264374   3.825   0.761  10.884  0.0879  0.1058 -0.3500
14320TIP3    H164375   3.847   0.688  10.826  0.2078 -0.4938  0.4344
14320TIP3    H264376   3.752   0.806  10.840 -1.7411 -1.9912  0.3367
14321TIP3   OH264377   3.634   5.753  13.615  0.3505  0.6733  0.0422
14321TIP3    H164378   3.602   5.735  13.703 -1.5873  1.7310 -0.3914
14321TIP3    H264379   3.559   5.792  13.569  0.9348 -0.8676 -2.4322
14322TIP3   OH264380   4.901   2.699   4.547  0.6486 -0.6308  0.3957
14322TIP3    H164381   4.974   2.687   4.487 -0.6958 -2.1994 -1.0518
14322TIP3    H264382   4.862   2.783   4.522  1.2438 -0.3649  0.3611
14323TIP3   OH264383   4.511   6.519   5.383 -0.1645  0.2513  0.3117
14323TIP3    H164384   4.418   6.498   5.370  0.2076 -0.3542 -1.7375
14323TIP3    H264385   4.530   6.487   5.471 -1.5037 -1.1833  0.1300
14324TIP3   OH264386   0.990   3.493  11.097  0.2439  0.1102 -0.1758
14324TIP3    H164387   1.042   3.412  11.099  0.4666  0.2172 -1.1896
14324TIP3    H264388   0.932   3.482  11.021 -0.1827  0.6325  0.0676
14325TIP3   OH264389   1.261   0.507   3.633 -0.0472 -0.1972 -0.1342
14325TIP3    H164390   1.229   0.420   3.607 -0.7824  0.5131 -1.7461
14325TIP3    H264391   1.351   0.510   3.602 -0.2752 -0.1095 -0.8060
14326TIP3   OH264392   0.659   1.450  12.528  0.1828  1.0837 -0.2178
14326TIP3    H164393   0.621   1.450  12.440 -0.2202 -1.0416 -0.1028
14326TIP3    H264394   0.753   1.454  12.514  0.4430 -3.3129 -1.0926
14327TIP3   OH264395   3.166   6.118   4.762  0.0748  0.3261  0.3877
14327TIP3    H164396   3.110   6.195   4.774 -2.3995 -1.0358 -1.2797
14327TIP3    H264397   3.217   6.137   4.683  0.3904  0.7301  0.6862
14328TIP3   OH264398   2.396   2.493  16.921  0.2287 -0.1655 -0.7039
14328TIP3    H164399   2.450   2.523  16.994  0.1617 -0.3958 -0.5616
14328TIP3    H264400   2.306   2.498  16.954  0.1882 -0.1393 -0.8162
14329TIP3   OH264401   1.624   4.055   5.232 -0.3645 -0.6273 -0.5461
14329TIP3    H164402   1.667   4.088   5.152  1.3843  0.1548  0.6518
14329TIP3    H264403   1.688   3.997   5.272 -0.8822 -0.3887  0.6913
14330TIP3   OH264404   1.369   5.329  13.695  0.1878 -0.2521 -0.0035
14330TIP3    H164405   1.342   5.386  13.768  1.4792  0.9548 -0.4199
14330TIP3    H264406   1.391   5.246  13.737  0.6957  0.3446  0.9613
14331TIP3   OH264407   3.615   5.861   3.807  0.1223 -0.5557 -0.3169
14331TIP3    H164408   3.563   5.792   3.766 -0.8313 -0.1421  0.1684
14331TIP3    H264409   3.702   5.822   3.817 -0.0160 -1.1739 -1.3624
14332TIP3   OH264410   0.828   1.384  15.268  0.5065  0.0180  0.6825
14332TIP3    H164411   0.738   1.357  15.248  0.2770  1.0244  0.3231
14332TIP3    H264412   0.873   1.380  15.183  0.2517  1.5661  0.4587
14333TIP3   OH264413   2.767   0.209   3.998 -0.0532  0.0200  0.1039
14333TIP3    H164414   2.800   0.271   3.933 -0.1174  1.2152  1.1701
14333TIP3    H264415   2.823   0.132   3.988  2.2580  1.4966  0.9874
14334TIP3   OH264416   1.276   0.465   2.881  0.0251  0.1061  0.5214
14334TIP3    H164417   1.317   0.484   2.797 -2.4241 -2.3788 -1.3931
14334TIP3    H264418   1.341   0.413   2.928  0.4006 -0.9071 -1.0462
14335TIP3   OH264419   4.552   5.467   5.996  0.7912 -0.6271  0.1420
14335TIP3    H164420   4.528   5.376   6.010  1.9944 -1.0029 -0.1310
14335TIP3    H264421   4.647   5.466   5.988  0.9775  0.8560  1.5948
14336TIP3   OH264422   5.816   0.673   0.635 -0.4854 -0.1608  0.0548
14336TIP3    H164423   5.746   0.729   0.603 -0.0301  0.4913  0.1746
14336TIP3    H264424   5.872   0.658   0.559 -1.9317 -2.5626 -0.6276
14337TIP3   OH264425   2.435   6.585  15.593  0.4046  0.5251  0.5855
14337TIP3    H164426   2.459   6.512  15.535 -0.5834  0.0831  0.7111
14337TIP3    H264427   2.491   6.657  15.565  1.1111 -0.1613  0.1848
14338TIP3   OH264428   2.726   2.289   1.911 -0.6368 -0.6431 -0.2129
14338TIP3    H164429   2.801   2.240   1.945 -1.5166 -1.8336  0.0632
14338TIP3    H264430   2.738   2.288   1.816  0.1116 -0.1059 -0.1406
14339TIP3   OH264431   4.004   5.415  13.205  0.1926  0.5566  0.4985
14339TIP3    H164432   3.986   5.363  13.126  0.8230  1.6126 -0.3798
14339TIP3    H264433   3.932   5.395  13.264  0.4598 -1.3510  0.2332
14340TIP3   OH264434   1.885   5.831   6.195  0.0339  0.5272  0.0933
14340TIP3    H164435   1.892   5.781   6.114 -0.8285  1.8944 -0.8623
14340TIP3    H264436   1.972   5.824   6.236  0.0580 -1.3545 -0.2085
14341TIP3   OH264437   6.695   6.399   3.982 -0.1250 -0.9267 -0.0195
14341TIP3    H164438   6.617   6.344   3.990 -0.2170 -0.4968  3.2166
14341TIP3    H264439   6.768   6.338   3.978 -0.4552 -1.2914 -0.7255
14342TIP3   OH264440   2.728   1.996  14.627 -0.4285  0.3883 -0.2249
14342TIP3    H164441   2.801   1.935  14.620 -1.3657 -0.6012 -2.0182
14342TIP3    H264442   2.717   2.009  14.721  0.4304 -1.4323  0.1723
14343TIP3   OH264443   4.181   5.029  13.924 -0.2396  0.4243  0.0992
14343TIP3    H164444   4.184   5.076  13.840  0.3917 -0.0763 -0.1651
14343TIP3    H264445   4.258   4.972  13.923 -0.4751  0.0771  0.8242
14344TIP3   OH264446   1.767   6.299  12.630  0.0697 -0.3730 -0.4904
14344TIP3    H164447   1.720   6.226  12.589 -1.7990  0.2442  0.4525
14344TIP3    H264448   1.735   6.300  12.720 -0.0728  1.7146 -0.5203
14345TIP3   OH264449   1.105   5.894   1.759 -0.6297 -0.8004  0.3081
14345TIP3    H164450   1.183   5.839   1.752 -0.8158 -1.2772  1.6652
14345TIP3    H264451   1.047   5.846   1.818 -2.5578 -1.1235 -1.7229
14346TIP3   OH264452   3.844   2.051  11.563 -0.5236  0.1385 -0.1044
14346TIP3    H164453   3.763   2.000  11.554  1.0031 -2.0691 -3.1508
14346TIP3    H264454   3.857   2.090  11.477  1.0370  1.5189  0.7001
14347TIP3   OH264455   5.528   0.098   2.249 -0.2195 -0.8043  0.2368
14347TIP3    H164456   5.568   0.171   2.296  2.4486 -2.2674  0.3968
14347TIP3    H264457   5.560   0.107   2.159 -1.0075 -1.0308 -0.0771
14348TIP3   OH264458   1.899   2.979  16.314 -0.0821 -0.3395  0.6017
14348TIP3    H164459   1.878   2.887  16.331 -0.7029 -0.0987  1.1945
14348TIP3    H264460   1.846   3.002  16.238 -0.7891 -0.1676  1.1375
14349TIP3   OH264461   5.936   0.105   0.175 -0.4252 -0.6712  0.4482
14349TIP3    H164462   6.015   0.051   0.177  0.3109  0.3839  0.1377
14349TIP3    H264463   5.958   0.178   0.117 -1.1390  0.3799  1.4620
14350TIP3   OH264464   4.307   2.920   5.192 -0.4727  0.2504 -0.1685
14350TIP3    H164465   4.254   2.846   5.161  0.5415 -0.8436  0.6199
14350TIP3    H264466   4.265   2.946   5.275 -0.5183  0.2180 -0.1814
14351TIP3   OH264467   6.748   2.229   1.271 -0.0267 -0.1018 -0.5457
14351TIP3    H164468   6.829   2.181   1.254 -0.6963 -1.8618  0.8601
14351TIP3    H264469   6.762   2.268   1.358 -1.0739 -1.4109  0.2444
14352TIP3   OH264470   1.389   1.658  15.042 -0.4584 -0.1905 -0.3242
14352TIP3    H164471   1.437   1.740  15.049 -0.1125 -0.3997 -0.2490
14352TIP3    H264472   1.306   1.682  15.000  0.5740 -0.1753 -2.4873
14353TIP3   OH264473   4.942   0.064  13.286  0.2518  0.0987  0.1798
14353TIP3    H164474   4.848   0.051  13.296  0.3323 -0.5673  0.1483
14353TIP3    H264475   4.951   0.123  13.211 -0.1277 -0.1857 -0.0920
14354TIP3   OH264476   6.042   4.294   4.548  0.5282  0.4751 -0.4279
14354TIP3    H164477   6.032   4.272   4.456  0.5130  0.5743 -0.4505
14354TIP3    H264478   5.970   4.354   4.567 -0.3069 -0.6338  0.0056
14355TIP3   OH264479   2.854   3.936  14.582 -0.1756  0.2023  0.5312
14355TIP3    H164480   2.842   3.988  14.503  0.2810  1.2195  1.1211
14355TIP3    H264481   2.809   3.985  14.651  1.3904  0.5222  1.3622
14356TIP3   OH264482   0.046   1.513  15.971 -0.0945  0.3633  0.9776
14356TIP3    H164483  -0.007   1.441  15.935  1.7085 -0.2663 -0.6103
14356TIP3    H264484  -0.017   1.567  16.019 -2.1613 -0.3869 -0.6813
14357TIP3   OH264485   3.118   5.453   1.156 -0.8050  0.0425 -0.4612
14357TIP3    H164486   3.145   5.362   1.140  1.4030  0.4872  0.3673
14357TIP3    H264487   3.067   5.477   1.079 -1.6472 -1.9529 -0.5934
14358TIP3   OH264488   4.418   4.792   4.275  0.1689  0.1267 -0.4921
14358TIP3    H164489   4.375   4.710   4.250 -0.4814  0.3441 -0.1104
14358TIP3    H264490   4.371   4.859   4.226 -0.5674  0.4680  0.6473
14359TIP3   OH264491   3.367   6.089  16.032 -0.2157  0.2180  0.3450
14359TIP3    H164492   3.277   6.117  16.016 -0.8919 -1.9789 -0.0627
14359TIP3    H264493   3.361   5.994  16.041  2.3976 -0.3300 -2.2543
14360TIP3   OH264494   0.377   2.236   3.175 -0.2044  0.8190  0.2979
14360TIP3    H164495   0.290   2.260   3.143  0.1680  2.8103  0.6330
14360TIP3    H264496   0.360   2.186   3.255 -1.0559 -1.1318 -1.0156
14361TIP3   OH264497   6.350   3.723   0.330 -1.0442  0.0163 -0.3621
14361TIP3    H164498   6.289   3.734   0.258  0.8421 -2.5429 -2.5479
14361TIP3    H264499   6.316   3.649   0.379 -0.3894 -0.6250 -0.8583
14362TIP3   OH264500   6.382   4.631  15.355  0.4810  0.7957 -0.3267
14362TIP3    H164501   6.450   4.623  15.421 -1.1599  0.4153  1.3936
14362TIP3    H264502   6.313   4.682  15.398 -1.4815 -1.1640 -1.0010
14363TIP3   OH264503   1.601   0.948   5.949 -0.5184  0.5255  0.0086
14363TIP3    H164504   1.640   0.983   6.029 -2.6508  0.9726  0.9178
14363TIP3    H264505   1.627   0.856   5.948 -1.7480  0.1041  2.0956
14364TIP3   OH264506   0.763   2.548   0.342 -0.2103 -0.2356 -0.2812
14364TIP3    H164507   0.749   2.566   0.435 -0.2696 -1.9410  0.0768
14364TIP3    H264508   0.800   2.629   0.307 -2.4417  1.3044  0.6818
14365TIP3   OH264509   1.631   2.890   3.175 -0.6140  0.4888  0.7803
14365TIP3    H164510   1.694   2.916   3.108 -1.2636  1.0807  0.3845
14365TIP3    H264511   1.600   2.973   3.213 -2.6581  0.3545 -0.4360
14366TIP3   OH264512   3.099   2.729   0.346  0.1532  0.0876  0.7286
14366TIP3    H164513   3.027   2.782   0.310 -0.2237 -0.9528 -0.1216
14366TIP3    H264514   3.172   2.745   0.287  0.5831  1.0027  1.4885
14367TIP3   OH264515   4.037   4.294  11.980 -0.3480 -0.2614 -0.8878
14367TIP3    H164516   4.007   4.378  12.014  0.0893 -0.6814  0.6148
14367TIP3    H264517   4.133   4.300  11.982 -0.2911 -0.0642 -2.7180
14368TIP3   OH264518   0.917   4.064  13.767  0.2389  0.1130  0.6388
14368TIP3    H164519   0.951   4.148  13.797 -0.3047  0.5115  0.1450
14368TIP3    H264520   0.902   4.076  13.674  0.3288 -0.5930  0.5288
14369TIP3   OH264521   2.323   6.455  15.814 -0.0277  0.5123  0.3289
14369TIP3    H164522   2.348   6.364  15.798  1.2927  1.1409 -1.5660
14369TIP3    H264523   2.337   6.499  15.730 -3.5387  1.8941  0.2843
14370TIP3   OH264524   5.237   3.377  13.329 -0.5803 -0.4190  0.4469
14370TIP3    H164525   5.295   3.308  13.298 -1.8702 -0.8943 -1.0033
14370TIP3    H264526   5.182   3.398  13.254 -1.7984  0.5287  1.5619
14371TIP3   OH264527   3.918   4.828   5.882 -0.2041  0.3276  0.4429
14371TIP3    H164528   3.922   4.918   5.850  1.9506 -0.1691 -0.8802
14371TIP3    H264529   4.002   4.790   5.858 -0.5641 -1.6963  2.0943
14372TIP3   OH264530   4.823   6.719  15.968  0.5133  0.1542  0.0319
14372TIP3    H164531   4.752   6.780  15.949  0.4674 -0.1467 -0.8085
14372TIP3    H264532   4.887   6.772  16.017 -0.7736  0.1324  1.8319
14373TIP3   OH264533   5.227   0.133   3.403  0.1007 -0.5646  0.2666
14373TIP3    H164534   5.254   0.139   3.311 -0.2253  1.2942  0.2578
14373TIP3    H264535   5.240   0.041   3.425  0.2260 -1.0512 -1.6257
14374TIP3   OH264536   4.921   3.568   2.241  0.1136 -0.2372 -0.0685
14374TIP3    H164537   4.906   3.660   2.218  0.4900  0.0769  0.8951
14374TIP3    H264538   4.859   3.520   2.186  0.8952  0.4680 -1.6300
14375TIP3   OH264539   3.388   2.659  11.442 -0.0352 -0.0073 -0.3547
14375TIP3    H164540   3.479   2.634  11.455 -0.8564 -2.5053  1.2833
14375TIP3    H264541   3.386   2.753  11.461  1.9404 -0.1691  0.9590
14376TIP3   OH264542   1.869   0.439   2.025  0.4231 -0.2626  0.0332
14376TIP3    H164543   1.829   0.356   2.001 -0.6605  0.0843  0.5535
14376TIP3    H264544   1.846   0.499   1.954  0.3729 -0.1662  0.1303
14377TIP3   OH264545   3.537   3.857  13.381  0.2100 -0.4851  0.0572
14377TIP3    H164546   3.528   3.839  13.287 -0.5201 -0.1361  0.0585
14377TIP3    H264547   3.519   3.773  13.423  1.4997 -0.8913 -0.1445
14378TIP3   OH264548   0.998   1.910   3.661  0.2007 -0.4770  0.3154
14378TIP3    H164549   0.980   1.903   3.567  1.6550  0.9713 -0.1278
14378TIP3    H264550   0.924   1.960   3.696 -0.1412 -0.6535 -0.1387
14379TIP3   OH264551   3.509   1.402  12.447  0.1433  0.1881 -0.1650
14379TIP3    H164552   3.507   1.363  12.535 -0.8936 -2.3637 -1.2505
14379TIP3    H264553   3.423   1.444  12.438 -0.4488 -1.0826 -0.5855
14380TIP3   OH264554   5.692   4.542  15.548  0.5059  0.3857 -0.7693
14380TIP3    H164555   5.631   4.616  15.542  0.7054  0.7865  1.3708
14380TIP3    H264556   5.777   4.583  15.565  0.7391 -0.3141 -0.2395
14381TIP3   OH264557   3.371   5.847   0.464 -0.2998  0.2051 -0.6087
14381TIP3    H164558   3.330   5.901   0.396 -0.6609 -0.4055 -0.8808
14381TIP3    H264559   3.421   5.910   0.517 -1.0005  0.8519 -0.7032
14382TIP3   OH264560   6.804   0.698  13.878  0.0508  0.3718  0.8875
14382TIP3    H164561   6.754   0.774  13.848 -0.0717  0.3330  0.9936
14382TIP3    H264562   6.890   0.733  13.902  0.4918  0.2677 -0.4217
14383TIP3   OH264563   4.272   3.740   1.652  0.8050 -0.5594  0.0782
14383TIP3    H164564   4.358   3.722   1.691 -0.0171 -0.4376  2.0720
14383TIP3    H264565   4.211   3.730   1.724 -1.0753 -2.0997 -1.6062
14384TIP3   OH264566   2.465   3.881  12.142 -0.0646  0.4243 -0.0525
14384TIP3    H164567   2.479   3.820  12.070 -2.7295 -1.5891  0.9746
14384TIP3    H264568   2.501   3.837  12.219 -0.9602  0.6219  0.5038
14385TIP3   OH264569   4.743   1.014   2.450 -0.3769 -0.7316 -0.0376
14385TIP3    H164570   4.677   0.949   2.474  1.4990 -3.1145 -0.9609
14385TIP3    H264571   4.811   1.005   2.516 -0.2170  0.5579 -0.0022
14386TIP3   OH264572   1.568   2.322   2.454  0.3361  0.0111  0.9187
14386TIP3    H164573   1.579   2.234   2.419  1.6790  0.9846 -1.3252
14386TIP3    H264574   1.655   2.344   2.489  0.1326  0.6080  1.0517
14387TIP3   OH264575   6.528   3.464  15.670 -0.5814 -0.1445 -0.1366
14387TIP3    H164576   6.532   3.495  15.579  1.0833  1.4539  0.4066
14387TIP3    H264577   6.548   3.371  15.665  1.6290  0.3193 -1.2879
14388TIP3   OH264578   3.018   2.377   4.970  0.0014  0.1511 -0.5154
14388TIP3    H164579   2.937   2.371   5.020 -0.0937  1.4110 -0.4904
14388TIP3    H264580   3.069   2.301   4.998 -0.4936  0.2390  0.6926
14389TIP3   OH264581   5.784   5.874   4.937  0.6064  0.4565 -0.4459
14389TIP3    H164582   5.819   5.818   4.868  0.5694 -1.8391  1.2562
14389TIP3    H264583   5.861   5.911   4.979  0.6294  1.8439 -1.6403
14390TIP3   OH264584   5.753   1.232   4.176  0.0439  0.6376 -0.2756
14390TIP3    H164585   5.701   1.175   4.232  1.2034  0.8432  1.0467
14390TIP3    H264586   5.800   1.173   4.117  1.1141  0.2204  0.9748
14391TIP3   OH264587   5.202   0.345   3.127  0.3639 -0.5321  0.5397
14391TIP3    H164588   5.249   0.268   3.095 -1.3890 -0.7104 -1.9808
14391TIP3    H264589   5.225   0.414   3.065  1.2153  0.7558  2.2498
14392TIP3   OH264590   2.002   6.320  16.761 -0.4608 -0.4689 -0.1659
14392TIP3    H164591   2.004   6.231  16.727 -0.7376 -0.2481 -0.7705
14392TIP3    H264592   1.921   6.358  16.725  0.5140  0.5759 -1.3492
14393TIP3   OH264593   3.426   4.614  16.848 -0.0594 -0.7056  0.4505
14393TIP3    H164594   3.405   4.632  16.756 -3.3539 -0.8490  1.0786
14393TIP3    H264595   3.423   4.519  16.855 -1.5782 -0.6233  1.0508
14394TIP3   OH264596   6.574   4.819   4.402  0.0347  0.6422  0.1522
14394TIP3    H164597   6.596   4.740   4.452  0.1893  0.5073 -0.1252
14394TIP3    H264598   6.659   4.851   4.372 -0.1728 -0.2454 -1.4847
14395TIP3   OH264599   2.047   6.049  16.500  0.5839 -0.3630 -0.2309
14395TIP3    H164600   1.959   6.081  16.482  0.6506 -0.4445 -0.7016
14395TIP3    H264601   2.066   6.081  16.589 -0.0172 -0.5708 -0.0238
14396TIP3   OH264602   1.263   5.372  11.501 -0.0346  0.4552  0.2005
14396TIP3    H164603   1.256   5.418  11.585  3.3245 -0.1301  0.9570
14396TIP3    H264604   1.293   5.284  11.524  0.4908  0.1336 -1.5823
14397TIP3   OH264605   3.665   3.622  12.982 -0.4560 -0.6376  0.1995
14397TIP3    H164606   3.607   3.589  12.914  1.1402 -1.3760 -0.8686
14397TIP3    H264607   3.661   3.556  13.051  1.3894 -2.3160 -1.1804
14398TIP3   OH264608   6.209   1.065  14.035  0.2070 -0.1223 -0.3020
14398TIP3    H164609   6.135   1.125  14.033  0.7557  0.5895  0.3584
14398TIP3    H264610   6.178   0.992  14.089  0.2682  0.5716  0.6954
14399TIP3   OH264611   3.094   0.088   5.374  0.2244 -0.1986  0.5225
14399TIP3    H164612   3.113  -0.006   5.381 -0.2606 -0.3592 -0.2119
14399TIP3    H264613   3.041   0.107   5.451  0.7452 -0.4211  0.9372
14400TIP3   OH264614   0.389   6.750  11.236  0.2073  0.4971  0.0984
14400TIP3    H164615   0.377   6.723  11.145  1.8922 -0.0087 -0.0032
14400TIP3    H264616   0.303   6.736  11.277 -0.6134  0.8431 -1.4116
14401TIP3   OH264617   3.988   4.000   0.056  0.4385  0.0842 -0.1999
14401TIP3    H164618   4.080   4.024   0.064  0.3968  0.5788 -1.1244
14401TIP3    H264619   3.945   4.042   0.130  0.8255  0.5614 -0.2414
14402TIP3   OH264620   1.853   1.897  14.035 -0.3637 -1.0966 -0.0116
14402TIP3    H164621   1.776   1.892  13.977  0.9759  0.3911 -2.0680
14402TIP3    H264622   1.882   1.806  14.043 -1.3967 -1.4959 -0.5838
14403TIP3   OH264623   4.162   4.725   3.270  0.1128 -0.4464 -0.1899
14403TIP3    H164624   4.166   4.643   3.220 -0.8003 -1.3096  1.0800
14403TIP3    H264625   4.075   4.759   3.251  0.1308 -0.2699  0.0567
14404TIP3   OH264626   1.024   2.362   0.987 -0.0320  0.1312 -0.4192
14404TIP3    H164627   1.018   2.438   1.045  0.7765 -0.4042  0.4097
14404TIP3    H264628   0.938   2.355   0.947 -0.9720 -0.0827  1.5163
14405TIP3   OH264629   4.624   5.075  12.064  0.5861 -0.4518  0.2412
14405TIP3    H164630   4.691   5.144  12.063 -1.1190  1.3665  1.8178
14405TIP3    H264631   4.592   5.072  11.974  0.4306  1.1275  0.2099
14406TIP3   OH264632   5.978   6.171   4.782 -0.1063 -0.1361 -0.4143
14406TIP3    H164633   5.895   6.179   4.828  0.8097  0.4842  1.2104
14406TIP3    H264634   6.006   6.261   4.765  1.0370 -0.2597  0.6284
14407TIP3   OH264635   4.212   3.400   1.030 -0.5019 -0.0145  0.1639
14407TIP3    H164636   4.272   3.468   1.062 -1.4821  0.7922  0.3118
14407TIP3    H264637   4.245   3.319   1.070  0.4782  0.4168  0.2563
14408TIP3   OH264638   6.126   3.919  12.498 -0.1281  0.0381  0.3271
14408TIP3    H164639   6.093   3.981  12.563  0.1334 -0.6163  1.1074
14408TIP3    H264640   6.100   3.833  12.532  2.0763 -0.4999  0.8513
14409TIP3   OH264641   3.612   0.403  12.851 -0.4427 -0.2502  0.4929
14409TIP3    H164642   3.659   0.487  12.849  0.8923 -0.9913 -0.3547
14409TIP3    H264643   3.549   0.410  12.779 -0.5782  0.1521  0.6449
14410TIP3   OH264644   6.158   3.051   3.216 -0.4122 -0.2457 -0.1252
14410TIP3    H164645   6.242   3.062   3.171 -0.4371 -0.1018 -0.1357
14410TIP3    H264646   6.182   3.035   3.307 -0.3391 -1.0763 -0.2782
14411TIP3   OH264647   1.036   5.710   6.063 -0.0299 -0.1066 -0.1740
14411TIP3    H164648   0.986   5.629   6.054  1.0798 -0.9475  0.9240
14411TIP3    H264649   1.011   5.745   6.148  1.5773 -0.8044  0.6156
14412TIP3   OH264650   6.058   3.813  11.862 -0.1620  0.4343 -0.1627
14412TIP3    H164651   6.076   3.719  11.861 -0.4223  0.3710  0.5296
14412TIP3    H264652   6.139   3.854  11.833  1.2616  0.1838  3.0861
14413TIP3   OH264653   1.481   2.068   4.380  0.2181 -0.2415  0.0402
14413TIP3    H164654   1.537   2.080   4.456  0.4831 -0.8000 -0.0582
14413TIP3    H264655   1.511   2.133   4.317  2.3896 -2.0276 -0.9282
14414TIP3   OH264656   1.001   1.403  13.086 -0.5519 -0.0164  0.4712
14414TIP3    H164657   1.030   1.315  13.065  1.9811  0.0477  3.1028
14414TIP3    H264658   0.908   1.403  13.064 -1.7177 -4.6747  3.7551
14415TIP3   OH264659   1.987   0.437   4.390 -0.2799 -0.1250  0.1909
14415TIP3    H164660   2.051   0.504   4.412 -1.5939  1.1645  0.2691
14415TIP3    H264661   1.942   0.419   4.473 -0.3100 -0.7106  0.0535
14416TIP3   OH264662   5.781   3.871   5.270 -0.3584 -0.2067 -0.6329
14416TIP3    H164663   5.745   3.958   5.291 -0.4727  0.0353 -1.7700
14416TIP3    H264664   5.749   3.853   5.182  0.3614 -1.0409 -0.7324
14417TIP3   OH264665   3.816   5.537  11.183  0.2555 -0.1464 -0.0446
14417TIP3    H164666   3.875   5.520  11.256  0.1330 -1.1600 -0.1675
14417TIP3    H264667   3.743   5.584  11.222  1.7494  2.4251 -0.1328
14418TIP3   OH264668   5.445   3.354   5.483  0.0762  0.1457 -0.1315
14418TIP3    H164669   5.398   3.272   5.473  3.5476 -2.0809  0.0985
14418TIP3    H264670   5.444   3.392   5.395 -2.1268  0.3103 -0.1023
14419TIP3   OH264671   5.717   3.031  14.645 -0.1007 -0.2990 -0.1285
14419TIP3    H164672   5.704   3.121  14.615  1.6832 -0.4067 -1.4348
14419TIP3    H264673   5.752   3.040  14.734 -0.2513  0.2786 -0.1251
14420TIP3   OH264674   2.274   4.255  14.516 -0.2862  0.0197 -0.0048
14420TIP3    H164675   2.345   4.202  14.481  0.2817  0.6287  0.2080
14420TIP3    H264676   2.260   4.221  14.604 -1.7372 -1.5349 -0.7755
14421TIP3   OH264677   1.593   1.240   5.122  0.3360 -0.7955 -0.0585
14421TIP3    H164678   1.576   1.159   5.170  0.8274 -1.1844 -0.5261
14421TIP3    H264679   1.688   1.252   5.126  0.0780  1.4452  2.6573
14422TIP3   OH264680   5.494   5.056  13.716 -0.0069 -0.0111 -0.3111
14422TIP3    H164681   5.444   5.111  13.655  0.3112  0.3342 -0.2609
14422TIP3    H264682   5.487   5.101  13.800 -1.6771 -1.2352  0.2576
14423TIP3   OH264683   4.887   4.180  14.771 -0.5275 -0.2462  0.4633
14423TIP3    H164684   4.858   4.202  14.860 -1.3659  1.1280 -0.1198
14423TIP3    H264685   4.904   4.264  14.730 -1.7052 -0.7817 -1.2000
14424TIP3   OH264686   3.131   0.673   2.280  0.1810  0.0057  0.1052
14424TIP3    H164687   3.094   0.659   2.367 -0.0290  2.0323  0.3804
14424TIP3    H264688   3.091   0.606   2.225  1.2988 -2.1709  1.7955
14425TIP3   OH264689   2.369   0.837   6.400 -0.0814  0.2462 -0.1714
14425TIP3    H164690   2.353   0.747   6.427 -0.0711 -0.2157 -1.6042
14425TIP3    H264691   2.355   0.889   6.479 -0.2796 -0.9863  0.6304
14426TIP3   OH264692   1.281   1.161  11.725 -0.0784 -0.2076 -0.2302
14426TIP3    H164693   1.194   1.121  11.726  0.3688 -1.2793  2.3417
14426TIP3    H264694   1.341   1.088  11.740  1.1178  0.8033  0.0582
14427TIP3   OH264695   3.154   1.639   1.606  0.0680 -0.4579  0.0749
14427TIP3    H164696   3.069   1.622   1.647  0.7659  0.3746  2.0387
14427TIP3    H264697   3.184   1.554   1.577 -1.0126 -0.9205  0.2577
14428TIP3   OH264698   5.827   6.458   2.529  0.2404  0.6694  0.6598
14428TIP3    H164699   5.882   6.536   2.534  0.8713  0.6364 -2.9459
14428TIP3    H264700   5.889   6.385   2.538 -0.0391  0.5606  1.8617
14429TIP3   OH264701   0.082   2.537   4.512  0.1435 -0.8046  0.1081
14429TIP3    H164702   0.057   2.538   4.419  0.0932 -0.7858  0.1218
14429TIP3    H264703   0.088   2.630   4.536 -0.7966 -0.8040  0.3762
14430TIP3   OH264704   0.311   5.973  14.761  0.2942 -0.2923 -0.7387
14430TIP3    H164705   0.377   6.040  14.776  0.8383 -1.2010  1.1927
14430TIP3    H264706   0.350   5.892  14.794 -1.4810 -0.9829 -0.1911
14431TIP3   OH264707   2.240   1.108  12.153  0.3106 -0.4068  0.0861
14431TIP3    H164708   2.278   1.024  12.179 -1.5024 -1.5082 -0.6266
14431TIP3    H264709   2.228   1.101  12.058 -1.5355 -0.0913  0.2600
14432TIP3   OH264710   1.854   6.477  11.778  0.1521 -0.3822  0.3711
14432TIP3    H164711   1.761   6.488  11.798  0.1448 -2.1347  1.4962
14432TIP3    H264712   1.899   6.526  11.846  0.0471 -2.1911  1.8214
14433TIP3   OH264713   5.486   2.249   1.764 -0.4051  0.6769 -1.1347
14433TIP3    H164714   5.407   2.221   1.811  1.3235 -0.1556  1.4805
14433TIP3    H264715   5.481   2.345   1.765 -0.9391  0.6518 -0.1858
14434TIP3   OH264716   4.560   4.357  13.274  0.0832 -0.2171 -0.1020
14434TIP3    H164717   4.607   4.292  13.326  1.2744  3.6760  4.3446
14434TIP3    H264718   4.470   4.355  13.307  0.2707  0.7397  0.4917
14435TIP3   OH264719   2.379   4.442  10.459 -0.6904  0.4448 -0.4482
14435TIP3    H164720   2.379   4.462  10.365  0.1230 -0.1560 -0.5901
14435TIP3    H264721   2.471   4.421  10.479 -1.1579 -1.2921  0.0576
14436TIP3   OH264722   3.990   2.398  11.793 -0.2527 -0.6954 -0.5190
14436TIP3    H164723   3.918   2.368  11.849  0.7195 -1.1602  0.5120
14436TIP3    H264724   4.016   2.482  11.831  0.1403 -0.8116 -0.5311
14437TIP3   OH264725   6.389   4.510  12.999  0.2425 -0.0873  0.4032
14437TIP3    H164726   6.444   4.452  12.947 -0.6998 -0.7809  0.1446
14437TIP3    H264727   6.384   4.591  12.948  1.0037 -0.0124  0.4323
14438TIP3   OH264728   0.135   5.987  12.926  0.4778 -0.4053 -0.4744
14438TIP3    H164729   0.048   5.995  12.965  1.8806 -0.7201  3.1111
14438TIP3    H264730   0.169   5.904  12.959  3.2943  1.1717  0.9565
14439TIP3   OH264731   1.878   2.463  15.692 -0.0289  0.4975 -0.2680
14439TIP3    H164732   1.912   2.446  15.604 -0.5433 -0.3735 -0.3074
14439TIP3    H264733   1.795   2.416  15.696  0.8472 -1.0362  1.2988
14440TIP3   OH264734   5.987   0.910  14.384  0.6557  0.0350 -0.2096
14440TIP3    H164735   5.941   0.976  14.332  0.6056  1.2865  1.3671
14440TIP3    H264736   5.996   0.949  14.471  1.9679 -1.4395  0.3679
14441TIP3   OH264737   2.154   3.829   5.677 -0.0228  0.4722  0.5931
14441TIP3    H164738   2.155   3.740   5.643  1.5053  0.8242 -0.3594
14441TIP3    H264739   2.061   3.847   5.695 -0.5246 -0.7693 -0.6240
14442TIP3   OH264740   1.396   0.209   4.983  0.9182  0.2126 -0.4834
14442TIP3    H164741   1.332   0.223   5.054 -0.0267  0.4775 -1.3606
14442TIP3    H264742   1.430   0.297   4.965 -0.7527  0.5962 -2.0730
14443TIP3   OH264743   3.120   2.493   0.800 -0.2912  0.2385 -0.0870
14443TIP3    H164744   3.129   2.475   0.707  1.0111 -2.4131  0.4553
14443TIP3    H264745   3.203   2.534   0.824 -0.4329  0.4677  0.0195
14444TIP3   OH264746   2.247   2.711  12.377 -0.0720  0.3781  0.1424
14444TIP3    H164747   2.246   2.633  12.432  0.2445  0.8581  0.8374
14444TIP3    H264748   2.164   2.755  12.397  0.6321  1.2531  1.2809
14445TIP3   OH264749   5.260   6.605  16.914 -0.4200  0.4939 -0.2943
14445TIP3    H164750   5.220   6.681  16.873  1.0170  1.7187  0.4754
14445TIP3    H264751   5.339   6.589  16.862 -0.2379  0.0870  0.1033
14446TIP3   OH264752   1.626   0.914  13.988 -0.4702  0.4806 -0.3872
14446TIP3    H164753   1.553   0.900  14.048 -0.5574  0.8563 -0.4023
14446TIP3    H264754   1.686   0.842  14.006  0.8545  2.0809  2.1750
14447TIP3   OH264755   6.063   5.890   3.732  0.0955 -0.2377  0.4393
14447TIP3    H164756   6.092   5.978   3.708  1.0510 -0.5156  0.5286
14447TIP3    H264757   6.042   5.896   3.826 -1.0256  0.1788  0.1829
14448TIP3   OH264758   6.529   4.074   1.430  0.3666  0.4477 -0.7709
14448TIP3    H164759   6.490   4.083   1.343  0.8681  1.5444 -0.8913
14448TIP3    H264760   6.512   3.983   1.454 -0.3077  0.2984 -1.7570
14449TIP3   OH264761   2.272   6.052  12.083  0.0494  0.3804 -0.1056
14449TIP3    H164762   2.303   6.128  12.131 -0.3668  0.5647 -0.1318
14449TIP3    H264763   2.178   6.050  12.098  0.3331 -1.6272  2.0722
14450TIP3   OH264764   1.737   5.328  12.563 -0.4964 -0.1234 -0.4660
14450TIP3    H164765   1.808   5.373  12.518  0.0380 -0.1731  0.2989
14450TIP3    H264766   1.770   5.315  12.652 -1.6221  0.2232  0.0259
14451TIP3   OH264767   2.166   0.834  11.415  0.2766  0.0087 -0.3140
14451TIP3    H164768   2.248   0.865  11.453  0.4321  0.2184 -0.8096
14451TIP3    H264769   2.167   0.869  11.326  0.6168 -1.6509 -1.0097
14452TIP3   OH264770   4.894   3.663   1.664 -0.0870  0.1669  0.1493
14452TIP3    H164771   4.838   3.738   1.642  1.4126  0.6878 -2.2629
14452TIP3    H264772   4.921   3.679   1.754 -1.3379  1.5127  0.3229
14453TIP3   OH264773   1.367   0.171   1.377  0.0529  0.6386 -0.3499
14453TIP3    H164774   1.391   0.141   1.465  0.8324  0.0560 -0.7383
14453TIP3    H264775   1.292   0.117   1.353 -1.1910  1.9136  0.5696
14454TIP3   OH264776   4.568   4.635   5.105 -0.1127  0.2569  0.2892
14454TIP3    H164777   4.603   4.669   5.187  0.4600 -1.0939  0.6347
14454TIP3    H264778   4.536   4.547   5.127 -1.7568  0.6071 -0.5094
14455TIP3   OH264779   3.407   0.221   5.125  0.0011 -0.5010 -0.4278
14455TIP3    H164780   3.413   0.174   5.042  1.0536 -0.1161 -0.5879
14455TIP3    H264781   3.467   0.295   5.115 -1.2983  0.6550 -0.0306
14456TIP3   OH264782   0.929   1.979   1.453 -1.0262 -0.0345 -0.4211
14456TIP3    H164783   0.985   1.940   1.386 -1.6326 -0.4076 -0.7230
14456TIP3    H264784   0.895   2.058   1.412 -2.5513 -1.0083 -1.1307
14457TIP3   OH264785   1.959   2.786   2.480 -0.1997 -0.2150 -0.7807
14457TIP3    H164786   1.908   2.831   2.547  0.7634 -1.9162  1.2156
14457TIP3    H264787   1.975   2.852   2.413 -1.9798  1.3112  0.2176
14458TIP3   OH264788   6.774   2.325  16.612  0.1827 -0.1434  0.0963
14458TIP3    H164789   6.863   2.360  16.610 -1.3041  4.1606  0.3441
14458TIP3    H264790   6.755   2.303  16.521  0.9012  0.5713 -0.2361
14459TIP3   OH264791   2.294   4.585   5.634  0.2228  0.0542  0.4344
14459TIP3    H164792   2.240   4.646   5.584  1.4579 -0.0509 -1.1434
14459TIP3    H264793   2.342   4.640   5.696  0.3480  0.5130 -0.0658
14460TIP3   OH264794   0.045   0.324   2.200 -0.4378 -0.2853  0.2951
14460TIP3    H164795   0.032   0.287   2.287 -2.3728  2.1397  1.1447
14460TIP3    H264796  -0.014   0.274   2.144 -1.7170  0.3061  1.0726
14461TIP3   OH264797   1.683   3.119  12.731 -0.1653 -1.3008 -0.0929
14461TIP3    H164798   1.601   3.106  12.682  0.3375  0.4535 -1.4995
14461TIP3    H264799   1.750   3.125  12.663  0.6244  0.7924  0.8088
14462TIP3   OH264800   0.306   0.203  11.558  0.1520  0.0771  0.0569
14462TIP3    H164801   0.351   0.248  11.630  1.3333  0.8623 -1.1137
14462TIP3    H264802   0.367   0.133  11.532 -0.3963 -0.3871  0.0090
14463TIP3   OH264803   4.059   1.973  13.876  0.0603  0.3510  0.0861
14463TIP3    H164804   4.071   1.878  13.871  0.6433  0.3900  0.5900
14463TIP3    H264805   3.978   1.985  13.926 -0.3829  0.1182 -0.5595
14464TIP3   OH264806   5.885   0.996  15.092  0.1729 -0.1210 -0.4329
14464TIP3    H164807   5.848   1.009  15.004 -0.5583  0.3371 -0.0696
14464TIP3    H264808   5.816   1.026  15.151  0.5999 -0.5667  0.3072
14465TIP3   OH264809   3.377   0.518   3.352  0.1467 -0.0516  0.0626
14465TIP3    H164810   3.336   0.537   3.437 -1.6779 -1.7915 -0.3606
14465TIP3    H264811   3.327   0.445   3.317  0.8076  0.6606 -2.5767
14466TIP3   OH264812   1.935   0.937  10.483  0.1331  0.0053  0.6395
14466TIP3    H164813   1.943   0.886  10.564 -0.4052  1.9579  2.0013
14466TIP3    H264814   1.840   0.945  10.470  0.1716  1.6083  1.1425
14467TIP3   OH264815   1.406   2.852  13.735 -0.4307  0.0400 -1.1101
14467TIP3    H164816   1.500   2.848  13.719 -0.0823 -1.8816  0.8198
14467TIP3    H264817   1.368   2.790  13.673 -0.5389  1.2534 -2.2961
14468TIP3   OH264818   3.482   4.800  15.412 -0.4566 -0.0754  0.4798
14468TIP3    H164819   3.424   4.876  15.409  0.4930  0.6310 -0.5056
14468TIP3    H264820   3.567   4.835  15.438 -0.2545 -0.9704  1.0632
14469TIP3   OH264821   5.472   1.210   4.632  0.3408 -0.5377 -0.6248
14469TIP3    H164822   5.411   1.187   4.562 -1.0710  0.6656  0.1452
14469TIP3    H264823   5.510   1.127   4.659 -0.3251 -1.2198 -1.7029
14470TIP3   OH264824   5.780   0.944  12.400 -0.3065 -0.5039 -0.2466
14470TIP3    H164825   5.869   0.975  12.383 -0.5954 -0.3042 -1.4883
14470TIP3    H264826   5.737   1.018  12.442  0.3801 -0.9489  1.3138
14471TIP3   OH264827   0.927   0.623  12.840 -0.1257 -0.1448  0.1921
14471TIP3    H164828   0.877   0.621  12.758  1.7595  1.0272 -1.0557
14471TIP3    H264829   0.910   0.711  12.875  0.8857  0.1953 -0.1506
14472TIP3   OH264830   4.636   1.580   0.530  1.2800  0.2922 -0.1958
14472TIP3    H164831   4.713   1.540   0.572  0.8196  0.3978  0.7593
14472TIP3    H264832   4.651   1.565   0.436  1.5975 -1.2863  0.0719
14473TIP3   OH264833   5.532   2.489   5.314 -0.5317  0.3813  0.2881
14473TIP3    H164834   5.472   2.435   5.262  0.5686 -0.1955 -0.4204
14473TIP3    H264835   5.587   2.532   5.248 -0.0657  0.7781  0.9333
14474TIP3   OH264836   1.413   1.758   4.616 -0.2260 -0.2339 -0.4996
14474TIP3    H164837   1.423   1.740   4.523  0.2876  3.5488 -1.3591
14474TIP3    H264838   1.495   1.801   4.641 -2.1520  3.3857  0.3127
14475TIP3   OH264839   0.810   4.507  16.690 -0.5725 -0.5470  0.0626
14475TIP3    H164840   0.722   4.522  16.725 -0.5202 -0.4431  0.1485
14475TIP3    H264841   0.797   4.442  16.620 -0.6381 -0.9727  0.4651
14476TIP3   OH264842   0.553   4.804   4.563  0.1483  0.2223  0.1364
14476TIP3    H164843   0.643   4.776   4.543 -0.0321 -0.3035  0.0441
14476TIP3    H264844   0.502   4.723   4.559  0.0148  0.1449  2.2572
14477TIP3   OH264845   6.137   6.733  13.441 -0.4517  0.0584  0.5637
14477TIP3    H164846   6.059   6.755  13.390 -0.0080  1.4494  0.4594
14477TIP3    H264847   6.176   6.659  13.393  0.5880  2.0600 -1.8647
14478TIP3   OH264848   3.564   3.720   0.626  0.1550 -0.0202  0.3246
14478TIP3    H164849   3.476   3.712   0.664  0.1150  1.9561  0.7985
14478TIP3    H264850   3.622   3.678   0.689 -0.2501  0.5552  1.1003
14479TIP3   OH264851   1.430   4.516   1.556  0.6807 -0.3788  0.4407
14479TIP3    H164852   1.491   4.442   1.551  1.3597  0.0979  1.3724
14479TIP3    H264853   1.440   4.549   1.645 -0.1353  0.4030  0.2529
14480TIP3   OH264854   5.438   3.584  13.423  0.6292  0.6499  0.0144
14480TIP3    H164855   5.386   3.520  13.472  0.2860  0.2872 -0.8014
14480TIP3    H264856   5.480   3.532  13.354  1.5367  1.0548  0.2486
14481TIP3   OH264857   5.307   4.381  16.300  0.1134  0.4157 -0.1369
14481TIP3    H164858   5.331   4.333  16.379  2.0197  0.2491 -0.7549
14481TIP3    H264859   5.274   4.465  16.332 -0.4193 -0.1535  0.8609
14482TIP3   OH264860   3.518   2.572  10.799 -0.1860  0.9002  0.1672
14482TIP3    H164861   3.482   2.596  10.885 -1.1781 -2.1152  0.6885
14482TIP3    H264862   3.597   2.523  10.819 -0.3844  0.2375 -0.6352
14483TIP3   OH264863   3.271   0.393   4.315  0.2263  0.7197 -0.0781
14483TIP3    H164864   3.350   0.342   4.297  0.1835  0.3052  0.8333
14483TIP3    H264865   3.208   0.328   4.347  0.1216  1.3010  0.9571
14484TIP3   OH264866   2.583   5.684  14.954 -0.0735  0.9076  0.7178
14484TIP3    H164867   2.612   5.645  15.036 -0.6901  0.6994  0.8402
14484TIP3    H264868   2.654   5.665  14.892 -0.6485 -1.0071  0.6047
14485TIP3   OH264869   2.280   3.435   1.718  0.0677 -0.2704  0.7986
14485TIP3    H164870   2.255   3.461   1.806 -0.3655 -0.6853  0.8033
14485TIP3    H264871   2.198   3.432   1.669 -0.0627 -2.5281  1.0482
14486TIP3   OH264872   2.936   4.009   5.181 -0.4647  0.7662 -0.3263
14486TIP3    H164873   2.887   4.022   5.262 -2.6448  0.6657 -1.5635
14486TIP3    H264874   2.928   4.093   5.135 -1.2602  0.0965 -1.4489
14487TIP3   OH264875   2.645   5.567  13.548 -0.4252 -0.1472  0.4198
14487TIP3    H164876   2.599   5.571  13.464  0.1158  0.2236  0.1405
14487TIP3    H264877   2.629   5.478  13.580 -1.5631  0.0518  0.4554
14488TIP3   OH264878   6.751   4.547  17.041  0.3158 -0.2641 -0.8951
14488TIP3    H164879   6.801   4.492  17.102  0.8486  1.0225 -0.1206
14488TIP3    H264880   6.660   4.522  17.056  0.5628 -1.1408 -0.7751
14489TIP3   OH264881   1.593   3.235  15.763  0.0424  0.5200 -0.3953
14489TIP3    H164882   1.574   3.294  15.837  0.8451  0.8057 -0.4051
14489TIP3    H264883   1.612   3.151  15.805 -2.2364 -0.0885 -0.4343
14490TIP3   OH264884   2.224   5.691  12.378 -0.6448  0.5133 -0.0496
14490TIP3    H164885   2.154   5.757  12.380  1.8382  3.3189  0.1698
14490TIP3    H264886   2.251   5.687  12.287  0.1120  0.8365  0.1532
14491TIP3   OH264887   6.147   4.248   0.022 -0.4789  1.0401  0.3344
14491TIP3    H164888   6.128   4.173  -0.035  1.3876  0.0325  0.9535
14491TIP3    H264889   6.119   4.219   0.109  1.3080  0.5461  0.7860
14492TIP3   OH264890   6.296   2.852   5.153 -0.3589  0.1619  0.2250
14492TIP3    H164891   6.285   2.940   5.119 -0.8791  0.5898  1.4398
14492TIP3    H264892   6.378   2.855   5.203  0.2204 -0.3669 -0.6545
14493TIP3   OH264893   5.811   6.566   0.776 -0.2705 -0.0994  0.0780
14493TIP3    H164894   5.734   6.583   0.832  0.1683  1.3518  0.2960
14493TIP3    H264895   5.882   6.612   0.821  0.3006  0.2347 -1.1531
14494TIP3   OH264896   2.391   2.438  15.585  0.1916 -0.5701  0.5270
14494TIP3    H164897   2.453   2.511  15.575  1.4168 -1.5429  0.7063
14494TIP3    H264898   2.367   2.414  15.496 -1.3741  0.9601  0.4886
14495TIP3   OH264899   1.901   6.580  13.779 -0.3077  0.2673  0.0614
14495TIP3    H164900   1.931   6.555  13.691 -1.6615  2.3756 -1.1048
14495TIP3    H264901   1.873   6.671  13.769  0.0833  0.7876  2.8736
14496TIP3   OH264902   0.189   1.942   4.412  0.0811 -0.6406 -0.0804
14496TIP3    H164903   0.129   1.870   4.392 -0.9870  0.7514 -2.2751
14496TIP3    H264904   0.133   2.013   4.444  0.9013 -0.1688  0.3560
14497TIP3   OH264905   0.805   6.791   5.298  0.1040  0.1832  0.1508
14497TIP3    H164906   0.845   6.734   5.365  0.3148  0.2990  0.1253
14497TIP3    H264907   0.791   6.733   5.223  1.7504  0.4744 -0.4409
14498TIP3   OH264908   2.574   3.254   5.759  0.0315 -0.0884  0.0072
14498TIP3    H164909   2.610   3.177   5.715  1.2771  0.5700 -0.1610
14498TIP3    H264910   2.581   3.324   5.694  0.6768  0.5990  0.7926
14499TIP3   OH264911   2.492   6.802  14.931 -0.0822  0.1861  0.0270
14499TIP3    H164912   2.533   6.884  14.904  1.7871 -0.6132  0.3372
14499TIP3    H264913   2.551   6.766  14.997 -1.6434 -0.7001  1.0009
14500TIP3   OH264914   0.611   6.081   3.928  0.0865 -0.3248 -0.0984
14500TIP3    H164915   0.581   6.159   3.973 -0.8629 -0.7597  0.0441
14500TIP3    H264916   0.620   6.015   3.996 -0.7748 -0.8176 -0.4497
14501TIP3   OH264917   0.409   3.133  16.824 -0.1374 -0.2483 -0.5799
14501TIP3    H164918   0.314   3.143  16.811  0.1597  0.5767 -2.5441
14501TIP3    H264919   0.447   3.210  16.783  1.5434 -2.2084 -3.0321
14502TIP3   OH264920   1.469   0.278  15.341  0.2432 -0.4549  0.2019
14502TIP3    H164921   1.396   0.318  15.388 -0.0786 -0.8763  0.0659
14502TIP3    H264922   1.539   0.343  15.344 -0.0223 -0.1894  0.6346
14503TIP3   OH264923   0.931   2.960   0.634  0.1904 -0.0158 -0.4785
14503TIP3    H164924   0.943   2.870   0.665  0.8832  0.1140 -0.3456
14503TIP3    H264925   0.847   2.987   0.671  0.3978 -0.3062  0.2239
14504TIP3   OH264926   3.919   4.414  12.684 -1.0102 -0.3664 -0.8697
14504TIP3    H164927   3.842   4.453  12.642 -0.6989  2.3621  0.8342
14504TIP3    H264928   3.946   4.345  12.624 -3.6531 -0.1897 -2.4527
14505TIP3   OH264929   5.262   5.375   5.861 -0.1117 -0.8997  0.2944
14505TIP3    H164930   5.268   5.451   5.919  0.2694 -0.1573 -0.6954
14505TIP3    H264931   5.325   5.312   5.896  0.7361 -0.1172  0.1772
14506TIP3   OH264932   1.698   5.172  15.141 -0.0172  0.1092  0.0956
14506TIP3    H164933   1.635   5.120  15.091 -0.1593 -1.7719  2.0756
14506TIP3    H264934   1.645   5.222  15.202  0.3088 -1.3569  1.6602
14507TIP3   OH264935   1.988   2.659  14.938 -0.3894 -0.0633  0.1795
14507TIP3    H164936   2.053   2.709  14.889 -1.3063 -0.5905 -1.6567
14507TIP3    H264937   2.039   2.605  14.999  0.8846 -0.3335 -1.0847
14508TIP3   OH264938   5.251   2.558   3.857 -0.5996 -0.5784  0.2856
14508TIP3    H164939   5.294   2.530   3.776  0.8833  0.3992  0.7081
14508TIP3    H264940   5.213   2.478   3.893  1.5779 -1.6825  0.2959
14509TIP3   OH264941   0.436   5.949  14.050 -0.5765 -0.0460 -0.6678
14509TIP3    H164942   0.518   5.978  14.009 -0.3915  1.2021  0.5171
14509TIP3    H264943   0.389   6.030  14.070 -1.6800 -0.7159 -0.4531
14510TIP3   OH264944   5.285   1.649  11.466 -0.2708  0.0448 -0.6400
14510TIP3    H164945   5.329   1.733  11.475 -2.1766  1.1450 -0.8602
14510TIP3    H264946   5.295   1.626  11.373 -0.1132  0.2537 -0.6745
14511TIP3   OH264947   0.986   3.644  13.137  0.2647  0.2890  0.0564
14511TIP3    H164948   0.928   3.575  13.104 -2.4688  3.3096 -2.0981
14511TIP3    H264949   1.051   3.656  13.069  1.0407 -0.4262  0.6542
14512TIP3   OH264950   3.926   2.183  17.089 -0.3710  0.4062 -0.3228
14512TIP3    H164951   3.845   2.133  17.081 -1.4389  1.7708  1.4003
14512TIP3    H264952   3.920   2.250  17.021 -1.1881  1.1240  0.4366
14513TIP3   OH264953   4.385   4.214  11.051  0.6321  0.0029 -0.1291
14513TIP3    H164954   4.342   4.130  11.037  0.2882  0.0599  0.5314
14513TIP3    H264955   4.355   4.242  11.137  1.5187  0.3331  0.0899
14514TIP3   OH264956   3.566   4.456   2.020  0.2163 -0.4779  0.1865
14514TIP3    H164957   3.656   4.487   2.031 -0.0192 -0.3537  1.9147
14514TIP3    H264958   3.564   4.422   1.930  0.5664  4.1666 -1.8794
14515TIP3   OH264959   3.202   5.154   1.187 -0.4607 -0.6187 -0.5047
14515TIP3    H164960   3.289   5.169   1.224 -0.5138 -0.3225 -0.4931
14515TIP3    H264961   3.210   5.073   1.136  0.0736 -0.0938 -1.2806
14516TIP3   OH264962   2.595   5.655   4.941 -1.1315 -0.3996  0.2035
14516TIP3    H164963   2.630   5.621   4.859 -1.7950 -1.9964  0.5396
14516TIP3    H264964   2.504   5.624   4.943 -1.2326 -0.0782  1.3657
14517TIP3   OH264965   5.692   5.338   2.943  0.4368  0.2819 -0.2479
14517TIP3    H164966   5.650   5.292   3.016 -0.5902  0.6923 -0.5580
14517TIP3    H264967   5.702   5.428   2.973  1.1617  0.1783 -0.1595
14518TIP3   OH264968   1.057   5.817  12.896  0.5672 -0.0568  0.7248
14518TIP3    H164969   1.010   5.793  12.816 -3.1914  2.0764  2.0609
14518TIP3    H264970   1.105   5.897  12.873  1.9066 -1.0402 -0.0642
14519TIP3   OH264971   1.881   6.139  10.929 -0.3047 -0.3813 -0.0488
14519TIP3    H164972   1.848   6.128  10.839 -0.6901 -0.6725  0.1247
14519TIP3    H264973   1.969   6.174  10.918 -0.1785 -0.8407 -0.5495
14520TIP3   OH264974   2.563   4.912  13.852 -0.0257  0.4291  0.0518
14520TIP3    H164975   2.502   4.986  13.850  1.2706  1.5264 -1.4180
14520TIP3    H264976   2.611   4.923  13.935  0.0418  1.1595 -0.0739
14521TIP3   OH264977   0.729   5.536   4.769  0.3585 -0.6053 -0.0477
14521TIP3    H164978   0.823   5.535   4.788  0.4693 -2.1736 -0.5522
14521TIP3    H264979   0.692   5.471   4.828 -0.3092 -0.5045 -0.3547
14522TIP3   OH264980   3.676   0.593  15.231 -0.0283  0.4700  0.2301
14522TIP3    H164981   3.607   0.610  15.296  0.6625 -0.8645  1.3741
14522TIP3    H264982   3.655   0.505  15.198  0.2866  0.6712 -0.5062
14523TIP3   OH264983   2.443   6.614  12.634 -0.0665  0.1611 -0.2983
14523TIP3    H164984   2.416   6.532  12.675  2.2928 -0.6185 -0.1571
14523TIP3    H264985   2.502   6.588  12.564  1.2611  1.7244  0.1671
14524TIP3   OH264986   1.488   2.260  13.093  0.0794 -0.3414  0.0763
14524TIP3    H164987   1.464   2.284  13.004  3.7857 -0.1609 -1.0308
14524TIP3    H264988   1.524   2.340  13.131  1.3361 -1.1273  0.6131
14525TIP3   OH264989   5.557   1.460  11.435 -0.4157 -0.0139 -0.1857
14525TIP3    H164990   5.565   1.371  11.470 -1.0428 -0.2019 -0.5047
14525TIP3    H264991   5.475   1.492  11.471  0.6294  1.0958  1.3417
14526TIP3   OH264992   3.344   0.326  11.574 -0.3456 -0.1285  0.4382
14526TIP3    H164993   3.346   0.238  11.536 -0.6197 -0.1074  0.3710
14526TIP3    H264994   3.386   0.382  11.509 -1.5474  0.0516 -0.2232
14527TIP3   OH264995   6.719   6.108  12.215 -0.0490  0.3703 -0.1662
14527TIP3    H164996   6.756   6.066  12.137 -0.1017  0.2843 -0.1446
14527TIP3    H264997   6.625   6.094  12.208 -0.2276  1.7227 -0.8940
14528TIP3   OH264998   1.602   3.566   4.089  0.0924  0.5928 -0.0595
14528TIP3    H164999   1.668   3.614   4.140 -0.0591 -0.9252  1.6644
14528TIP3    H265000   1.521   3.614   4.105  0.1254  0.3688  0.8337
14529TIP3   OH265001   5.957   1.355   0.460  0.6251 -0.1202  0.1230
14529TIP3    H165002   5.968   1.336   0.367  1.5996 -0.4823  0.2994
14529TIP3    H265003   5.916   1.276   0.496 -1.0273  0.5301 -0.2089
14530TIP3   OH265004   5.533   4.247  13.422  0.2490  0.0467  0.2028
14530TIP3    H165005   5.451   4.254  13.471  1.5678 -0.2984  2.6175
14530TIP3    H265006   5.571   4.164  13.450  1.3437  0.0964 -1.0298
14531TIP3   OH265007   4.359   2.572   0.572 -0.0563 -0.3228  0.3280
14531TIP3    H165008   4.287   2.626   0.538  0.1099  0.8981  1.8194
14531TIP3    H265009   4.321   2.529   0.649  0.3753 -0.8772  0.2328
14532TIP3   OH265010   3.001   2.208   2.896 -0.1939  0.1929  0.5226
14532TIP3    H165011   3.011   2.113   2.902 -0.1985  0.0010 -1.6006
14532TIP3    H265012   3.048   2.243   2.972  1.2314 -1.4370  0.4281
14533TIP3   OH265013   3.889   2.240  12.527 -0.0688  0.1591  0.4245
14533TIP3    H165014   3.807   2.289  12.532 -0.4146 -0.2279 -1.0291
14533TIP3    H265015   3.887   2.199  12.441  1.9903  0.7398  0.0467
14534TIP3   OH265016   5.388   6.744  14.060  0.3062  0.2797 -0.3753
14534TIP3    H165017   5.346   6.723  13.977 -0.7435 -0.7917  0.4085
14534TIP3    H265018   5.352   6.682  14.123  1.9041  0.3458  0.6693
14535TIP3   OH265019   1.031   2.768  12.089 -0.3091 -0.1906  0.1221
14535TIP3    H165020   0.961   2.833  12.093  0.7174  0.9097  1.2272
14535TIP3    H265021   1.081   2.782  12.170  0.3630 -1.8947  0.0417
14536TIP3   OH265022   0.128   2.292  14.717  0.4106  0.3652 -0.5801
14536TIP3    H165023   0.130   2.300  14.812  0.2678 -0.8237 -0.4729
14536TIP3    H265024   0.047   2.337  14.692 -1.0687 -1.7249  0.1454
14537TIP3   OH265025   6.377   3.642  14.499  0.1062  0.1500  0.3356
14537TIP3    H165026   6.306   3.578  14.496  0.2421 -0.1201  1.8124
14537TIP3    H265027   6.354   3.699  14.573  1.4678 -0.0036  0.8938
14538TIP3   OH265028   1.392   3.903  12.937  0.1968 -0.3230 -0.1398
14538TIP3    H165029   1.445   3.843  12.987  0.4015  1.5808  2.0959
14538TIP3    H265030   1.429   3.901  12.849  1.8204 -1.4915  0.5358
14539TIP3   OH265031   4.918   2.402  12.951 -0.1575 -0.0385 -0.2076
14539TIP3    H165032   4.952   2.470  13.009  2.2674 -0.7900 -0.6064
14539TIP3    H265033   4.917   2.323  13.005 -0.2734 -0.2356 -0.4935
14540TIP3   OH265034   3.654   2.765   2.299  0.0001  0.2596 -0.1405
14540TIP3    H165035   3.609   2.694   2.255  0.2657 -0.3226  0.4973
14540TIP3    H265036   3.673   2.731   2.386  2.1958  0.2422 -0.5685
14541TIP3   OH265037   0.170   2.748   1.919  0.1463  0.2218  0.4305
14541TIP3    H165038   0.179   2.843   1.931  1.3143  0.4370 -1.5764
14541TIP3    H265039   0.248   2.723   1.869 -0.7253 -1.5879 -0.1162
14542TIP3   OH265040   5.881   2.328  13.532  0.1734  0.2180  0.2477
14542TIP3    H165041   5.853   2.300  13.444  0.5412 -0.2714  0.2824
14542TIP3    H265042   5.944   2.398  13.516  0.8707 -0.4386  0.0922
14543TIP3   OH265043   5.486   1.816  11.219 -0.3425  0.1820 -0.3927
14543TIP3    H165044   5.463   1.849  11.305  0.7298 -1.0077  0.3911
14543TIP3    H265045   5.404   1.816  11.170 -1.0530  0.4587  0.7681
14544TIP3   OH265046   5.167   0.758   5.800  0.0656  0.2260 -0.2170
14544TIP3    H165047   5.248   0.793   5.765  0.3823  0.8900  1.1291
14544TIP3    H265048   5.171   0.777   5.894  0.4095 -3.6174  0.7141
14545TIP3   OH265049   4.612   3.795   2.646  0.3874  0.0502  0.2753
14545TIP3    H165050   4.523   3.829   2.645  0.1875 -0.4382  0.8755
14545TIP3    H265051   4.612   3.730   2.716  0.2917 -2.4746 -1.9504
14546TIP3   OH265052   6.662   4.496   4.116  0.3798 -0.0417  0.1359
14546TIP3    H165053   6.703   4.581   4.128  0.1872  0.0933 -0.1566
14546TIP3    H265054   6.681   4.448   4.197  1.2435 -0.0353 -0.0555
14547TIP3   OH265055   5.820   4.865  15.969 -0.0635  0.2123  0.5269
14547TIP3    H165056   5.742   4.881  15.915 -0.3202 -0.0600  0.8110
14547TIP3    H265057   5.810   4.774  15.999  0.5518  0.0538  0.2634
14548TIP3   OH265058   3.098   4.078   0.889  0.2074 -1.1591 -0.1423
14548TIP3    H165059   3.049   3.996   0.894 -1.7507 -0.2161 -2.0219
14548TIP3    H265060   3.077   4.113   0.802 -0.8671  2.3830  1.3501
14549TIP3   OH265061   3.952   5.616   4.772  0.0718  0.1592 -0.0683
14549TIP3    H165062   3.953   5.701   4.728  1.5078 -0.3888 -1.1628
14549TIP3    H265063   3.974   5.635   4.863 -2.2952  1.2357  0.3609
14550TIP3   OH265064   0.387   1.701  16.868  0.1624 -0.0216 -0.6013
14550TIP3    H165065   0.436   1.627  16.832  2.3867  1.3958 -0.7145
14550TIP3    H265066   0.445   1.776  16.856 -1.1223  1.3991  1.3588
14551TIP3   OH265067   2.585   2.491  14.830 -0.7966 -0.3025 -0.2417
14551TIP3    H165068   2.559   2.400  14.844 -1.3078 -0.5035 -2.2027
14551TIP3    H265069   2.528   2.542  14.887 -0.3927 -1.1958  0.9996
14552TIP3   OH265070   4.671   3.273  16.332 -0.3342 -0.6350  0.1695
14552TIP3    H165071   4.708   3.193  16.294  0.0618 -0.4070  0.0788
14552TIP3    H265072   4.745   3.332  16.343 -0.7443  0.0477 -0.5637
14553TIP3   OH265073   3.521   1.725  13.313  0.2170  1.0115 -0.1166
14553TIP3    H165074   3.515   1.630  13.321  0.3611  0.9560 -0.6338
14553TIP3    H265075   3.450   1.758  13.368  1.0972  0.6589  1.2762
14554TIP3   OH265076   4.366   5.424   0.402 -0.2796 -0.3362  0.1665
14554TIP3    H165077   4.353   5.517   0.384  0.6344 -0.0635  0.8467
14554TIP3    H265078   4.459   5.409   0.384 -0.4682 -1.1803 -0.1752
14555TIP3   OH265079   6.005   2.169   5.206 -0.4105 -0.2391 -0.7360
14555TIP3    H165080   6.034   2.256   5.235 -1.7520 -0.1123  0.3548
14555TIP3    H265081   6.068   2.108   5.245 -0.8389  0.1031  0.5390
14556TIP3   OH265082   3.788   4.374   0.735 -0.3428  0.6115 -0.1250
14556TIP3    H165083   3.793   4.352   0.828  0.0337 -0.3547 -0.3625
14556TIP3    H265084   3.878   4.392   0.710 -0.2010 -0.7302 -0.6606
14557TIP3   OH265085   1.908   5.210   1.307  0.2048  0.8243  0.3138
14557TIP3    H165086   1.983   5.158   1.279 -0.0354  0.3070  0.6332
14557TIP3    H265087   1.834   5.174   1.258  0.0564  0.9497  0.4437
14558TIP3   OH265088   0.892   5.005  15.594  0.6114 -0.4104 -0.1976
14558TIP3    H165089   0.893   5.099  15.575  0.5656  0.3761  3.0232
14558TIP3    H265090   0.806   4.976  15.564 -0.2093  1.0683  0.5830
14559TIP3   OH265091   6.449   6.602  12.190 -0.6575  0.0435 -0.1232
14559TIP3    H165092   6.545   6.602  12.187 -0.6050  0.5476  1.0996
14559TIP3    H265093   6.422   6.602  12.098  0.5140  0.2271 -0.4816
14560TIP3   OH265094   5.118   6.094  12.473  0.1145 -0.1733  0.2131
14560TIP3    H165095   5.127   6.009  12.517  1.1639 -0.9686 -1.4358
14560TIP3    H265096   5.043   6.135  12.515 -0.4277 -1.9298  1.0520
14561TIP3   OH265097   4.680   5.538   2.493  0.0362  0.2660  0.1044
14561TIP3    H165098   4.639   5.452   2.485 -3.1874  1.6117  0.7602
14561TIP3    H265099   4.726   5.550   2.410 -1.2358 -1.2214 -0.8728
14562TIP3   OH265100   5.730   3.804   5.629 -0.3311  0.0531 -0.0209
14562TIP3    H165101   5.796   3.759   5.577  0.3731  0.9080  0.1022
14562TIP3    H265102   5.659   3.821   5.568 -1.5754 -3.0647  0.4185
14563TIP3   OH265103   1.569   3.192   3.715 -0.3079 -0.5375  1.2228
14563TIP3    H165104   1.611   3.255   3.774 -1.2729 -1.2548  2.7312
14563TIP3    H265105   1.613   3.109   3.734  0.3394 -0.5280 -0.1121
14564TIP3   OH265106   6.046   2.441   5.178  0.0090 -0.2200  0.8251
14564TIP3    H165107   6.086   2.449   5.264 -0.9784  1.0509  1.2027
14564TIP3    H265108   6.010   2.528   5.160  0.3341 -0.4099 -0.9491
14565TIP3   OH265109   2.066   2.096  13.701  0.0583 -0.5861 -0.2471
14565TIP3    H165110   2.130   2.163  13.725  0.1002 -0.3468 -0.9938
14565TIP3    H265111   2.085   2.076  13.610 -1.5076  0.1755 -0.7853
14566TIP3   OH265112   6.675   0.238   6.185  0.0193 -0.0074 -0.4476
14566TIP3    H165113   6.655   0.330   6.171  1.7375  0.4439 -0.1766
14566TIP3    H265114   6.703   0.233   6.277 -1.1989 -1.0258 -0.1089
14567TIP3   OH265115   6.764   3.669  14.725  0.1907 -0.5427  0.0964
14567TIP3    H165116   6.693   3.627  14.774  0.5056 -1.7989 -0.4854
14567TIP3    H265117   6.737   3.664  14.633  1.0678 -1.1211 -0.1396
14568TIP3   OH265118   3.042   1.729   2.100  0.9739  0.5233  0.6992
14568TIP3    H165119   3.011   1.666   2.035 -1.2982  2.2020  0.0088
14568TIP3    H265120   3.137   1.731   2.089  0.7669 -0.1328 -1.7459
14569TIP3   OH265121   0.837   5.498  12.875 -0.0829 -0.0536 -0.6412
14569TIP3    H165122   0.809   5.408  12.857  0.3199 -0.0104 -1.5630
14569TIP3    H265123   0.788   5.524  12.953  1.6937 -1.9496  1.2003
14570TIP3   OH265124   1.230   0.280   5.188  0.0508 -0.3309 -0.4185
14570TIP3    H165125   1.201   0.338   5.258 -1.8997  0.0699 -1.4920
14570TIP3    H265126   1.211   0.192   5.219  0.9515 -0.2936  0.2930
14571TIP3   OH265127   4.208   5.827   5.829 -0.3742 -0.1189  0.5162
14571TIP3    H165128   4.178   5.746   5.788  2.2929 -0.3640 -1.2532
14571TIP3    H265129   4.274   5.798   5.893  0.6073  0.5811 -0.1404
14572TIP3   OH265130   0.446   3.595   2.103 -0.0374  0.4682 -0.0345
14572TIP3    H165131   0.434   3.682   2.064  0.0470 -0.2293 -1.6810
14572TIP3    H265132   0.413   3.605   2.193 -3.1582  1.4037 -1.1248
14573TIP3   OH265133   1.540   2.320  12.246  0.4840  0.5404 -0.0002
14573TIP3    H165134   1.592   2.261  12.191  0.3213 -1.0727  1.4817
14573TIP3    H265135   1.459   2.334  12.196 -0.2127 -1.9099  0.2745
14574TIP3   OH265136   2.217   0.067   4.009 -0.6587  0.0535 -0.8273
14574TIP3    H165137   2.249   0.148   3.971  3.0903 -1.1284 -0.5693
14574TIP3    H265138   2.200   0.010   3.934  0.7091 -0.2415 -0.9268
14575TIP3   OH265139   1.093   3.855  12.471  0.5507  0.1839 -0.3292
14575TIP3    H165140   1.100   3.922  12.538  0.5496 -1.7344  1.7047
14575TIP3    H265141   1.012   3.876  12.424  0.2307  1.2419  0.6608
14576TIP3   OH265142   5.994   5.072   5.070  0.3451 -0.4095 -0.0896
14576TIP3    H165143   5.965   5.148   5.019  1.3579 -0.4704 -0.7842
14576TIP3    H265144   5.940   5.075   5.150  0.2268  0.9213 -0.1949
14577TIP3   OH265145   1.896   2.895  14.653  0.5110 -0.0279  0.1030
14577TIP3    H165146   1.930   2.824  14.707  2.4694 -0.2338 -1.2793
14577TIP3    H265147   1.890   2.970  14.712  0.0631 -0.8999  1.1850
14578TIP3   OH265148   0.271   6.244  12.901  0.8284 -0.1963 -0.1743
14578TIP3    H165149   0.179   6.238  12.873  0.4943 -1.1554  1.0219
14578TIP3    H265150   0.319   6.268  12.822 -0.6299  1.9045 -0.5161
14579TIP3   OH265151   0.760   4.110  14.521 -0.1293  0.7583  0.1829
14579TIP3    H165152   0.740   4.088  14.430 -0.0063 -0.2077  0.3814
14579TIP3    H265153   0.726   4.199  14.532  0.1525  1.0199 -0.8973
14580TIP3   OH265154   2.688   0.582  11.546  0.2609 -0.0831  0.3507
14580TIP3    H165155   2.627   0.638  11.497  0.1459 -0.7207 -0.2527
14580TIP3    H265156   2.699   0.505  11.491 -0.3080 -1.0850  1.5852
14581TIP3   OH265157   6.168   2.894   5.389  0.3549  0.6523  1.0088
14581TIP3    H165158   6.188   2.987   5.399 -0.3591  0.9469 -0.1669
14581TIP3    H265159   6.184   2.875   5.297  0.5553 -0.4189  1.2466
14582TIP3   OH265160   6.766   2.733  12.938  0.3761  0.3243 -0.2708
14582TIP3    H165161   6.806   2.820  12.944  2.2261 -0.5114  0.1087
14582TIP3    H265162   6.681   2.749  12.898  0.2931  2.4216  0.6234
14583TIP3   OH265163   4.450   1.790   4.744  0.0740  0.1096  0.4694
14583TIP3    H165164   4.406   1.868   4.778 -1.5597 -0.0736 -1.0382
14583TIP3    H265165   4.378   1.735   4.711  1.3003 -1.2963  0.0243
14584TIP3   OH265166   5.808   0.987  10.919  0.3756  0.5953 -0.1568
14584TIP3    H165167   5.750   0.957  10.990  1.0536 -0.6402 -0.0861
14584TIP3    H265168   5.869   1.047  10.961 -0.3227  1.2393 -0.0578
14585TIP3   OH265169   2.236   2.603  11.090 -0.6260  0.8268 -0.3872
14585TIP3    H165170   2.231   2.518  11.047 -4.1956  0.5239  0.3550
14585TIP3    H265171   2.257   2.664  11.020  1.7904 -0.5204 -0.9743
14586TIP3   OH265172   5.640   0.588   3.568 -0.7413  0.1230 -0.4247
14586TIP3    H165173   5.562   0.612   3.518 -1.3543 -2.9482 -1.1010
14586TIP3    H265174   5.711   0.635   3.524 -1.8752  1.1090 -1.2827
14587TIP3   OH265175   5.479   6.000   4.046 -0.5975 -0.2715  0.4236
14587TIP3    H165176   5.394   5.956   4.056 -0.1421 -1.5934 -1.0269
14587TIP3    H265177   5.543   5.935   4.078 -0.0582  0.2791  0.4758
14588TIP3   OH265178   5.085   5.002   1.688  0.2788  0.2434  0.0443
14588TIP3    H165179   4.993   4.991   1.666  0.2865  1.1527 -0.4490
14588TIP3    H265180   5.115   4.913   1.710 -0.8058  0.0025  0.6085
14589TIP3   OH265181   5.117   3.391  14.539 -0.1688 -0.1879  0.7339
14589TIP3    H165182   5.113   3.301  14.507  2.2777 -0.0830 -0.0118
14589TIP3    H265183   5.062   3.441  14.479 -0.0940 -0.8943  0.0727
14590TIP3   OH265184   2.808   4.734   1.133 -0.0208  0.2037  0.4046
14590TIP3    H165185   2.799   4.761   1.042  0.0863 -0.5975  0.1479
14590TIP3    H265186   2.724   4.693   1.155 -0.0033  0.2844  0.6302
14591TIP3   OH265187   0.210   6.168  11.712 -0.4431  0.1944 -0.6219
14591TIP3    H165188   0.186   6.083  11.676  1.6902 -0.2626 -1.0990
14591TIP3    H265189   0.182   6.231  11.646 -1.0641 -0.2202 -0.7635
14592TIP3   OH265190   1.083   1.893  15.649 -0.4000 -0.5387 -0.1308
14592TIP3    H165191   1.088   1.797  15.654  0.2305 -0.5118 -0.1961
14592TIP3    H265192   1.170   1.923  15.674 -0.7671  0.0509  0.4992
14593TIP3   OH265193   5.942   4.047   3.784  0.2706 -0.0233  0.0717
14593TIP3    H165194   5.975   4.128   3.821  0.0596 -0.2796  0.8555
14593TIP3    H265195   5.886   4.074   3.711  0.4448  0.5143  0.1353
14594TIP3   OH265196   1.750   2.964   0.665 -0.4131 -0.2810  0.4856
14594TIP3    H165197   1.838   2.998   0.684 -0.7296  0.3171  0.8976
14594TIP3    H265198   1.691   3.023   0.711 -1.1771  0.7040 -1.6579
14595TIP3   OH265199   0.954   0.700   0.547 -0.0048 -0.3405  0.5834
14595TIP3    H165200   0.935   0.647   0.624 -1.8138  1.9217  1.8120
14595TIP3    H265201   1.037   0.665   0.513 -0.8845 -3.6052  1.4975
14596TIP3   OH265202   1.703   1.674  16.169 -0.0053  0.1042 -0.3726
14596TIP3    H165203   1.680   1.755  16.124  1.9419  0.3330 -1.0260
14596TIP3    H265204   1.678   1.605  16.107 -2.6055  0.0725  0.5883
14597TIP3   OH265205   6.307   4.067  15.784 -0.7097 -0.2921 -0.0116
14597TIP3    H165206   6.347   4.154  15.795  0.8583 -1.0860  0.8403
14597TIP3    H265207   6.300   4.057  15.689  0.6361  0.1110 -0.1800
14598TIP3   OH265208   3.584   2.761   1.226 -0.3505  0.3311 -0.3441
14598TIP3    H165209   3.521   2.799   1.287 -1.7196 -1.8706 -0.2779
14598TIP3    H265210   3.668   2.767   1.270 -1.4154 -2.0344  2.2775
14599TIP3   OH265211   5.548   6.720   3.560  0.2687  0.3041 -0.7350
14599TIP3    H165212   5.588   6.803   3.535  0.2901  1.4180  2.5440
14599TIP3    H265213   5.478   6.744   3.621 -1.7579 -1.9557 -2.0001
14600TIP3   OH265214   1.667   2.311  17.148  0.2876  0.8315  0.0675
14600TIP3    H165215   1.749   2.361  17.153  0.9191  0.0455 -1.7027
14600TIP3    H265216   1.630   2.317  17.236  2.1356  1.3933  0.8566
14601TIP3   OH265217   3.163   6.510  14.028 -0.3115 -0.7556  0.2996
14601TIP3    H165218   3.181   6.429  13.981  1.7549  1.0512 -2.3177
14601TIP3    H265219   3.159   6.578  13.960 -0.8511  1.5164  2.4377
14602TIP3   OH265220   1.238   2.386   3.378  0.6003  0.1004 -0.5191
14602TIP3    H165221   1.240   2.475   3.411  1.2830  0.2064 -0.8317
14602TIP3    H265222   1.249   2.395   3.283  0.3194 -0.2917 -0.5941
14603TIP3   OH265223   1.803   0.364  11.027 -0.5462 -0.0103 -0.1390
14603TIP3    H165224   1.827   0.385  10.936  3.4719 -1.4973  0.4183
14603TIP3    H265225   1.787   0.270  11.026  1.2287 -0.3478  0.9649
14604TIP3   OH265226   4.205   6.623   0.030 -0.2413 -0.6382 -0.5277
14604TIP3    H165227   4.161   6.698  -0.009  2.7980  1.0068 -1.1740
14604TIP3    H265228   4.298   6.646   0.027  0.9543 -4.6952 -1.3160
14605TIP3   OH265229   6.214   5.322  12.268  0.2466  0.0654 -0.1351
14605TIP3    H165230   6.294   5.363  12.235  0.2237 -1.0356 -1.6685
14605TIP3    H265231   6.150   5.394  12.268  0.9154  0.6789 -0.0278
14606TIP3   OH265232   0.147   6.465   4.092 -1.2723  0.2542 -0.2049
14606TIP3    H165233   0.064   6.509   4.076 -1.4923  0.3995  1.1409
14606TIP3    H265234   0.123   6.376   4.116 -0.9579 -0.0264 -0.9091
14607TIP3   OH265235   4.052   0.929   1.328  0.2330 -0.0151 -0.0362
14607TIP3    H165236   4.137   0.964   1.355 -0.0422 -0.0917  0.9532
14607TIP3    H265237   4.030   0.865   1.395 -0.7625  0.2377 -0.1061
14608TIP3   OH265238   1.240   0.756  13.576  0.8585  0.0115  0.3021
14608TIP3    H165239   1.183   0.689  13.613  1.1568  0.6613  2.0428
14608TIP3    H265240   1.198   0.839  13.599 -0.3660  0.5329 -3.1917
14609TIP3   OH265241   5.469   1.487  16.553 -0.0222 -0.1829 -0.1524
14609TIP3    H165242   5.472   1.542  16.631  2.2191 -0.8420  0.2940
14609TIP3    H265243   5.403   1.528  16.497 -0.6643  1.1101  1.4888
14610TIP3   OH265244   6.294   5.535  10.863  0.0862 -0.1922 -0.3840
14610TIP3    H165245   6.233   5.479  10.815  1.6629 -1.5260 -0.9187
14610TIP3    H265246   6.353   5.569  10.796  0.7732 -0.0488  0.2794
14611TIP3   OH265247   3.894   4.018  11.261 -0.2676  0.2408 -0.6760
14611TIP3    H165248   3.901   4.048  11.352  2.7184  1.0250 -1.0565
14611TIP3    H265249   3.849   4.090  11.216  1.4369  1.5564 -0.4105
14612TIP3   OH265250   1.273   3.508   1.857 -0.0124 -0.3552 -0.3743
14612TIP3    H165251   1.248   3.425   1.817 -1.1069  0.5134 -1.6001
14612TIP3    H265252   1.240   3.575   1.796  1.5160  0.9701  0.1821
14613TIP3   OH265253   3.638   4.833  13.501 -0.3170  0.4720 -0.5007
14613TIP3    H165254   3.646   4.740  13.525  1.6496  0.6046 -0.4790
14613TIP3    H265255   3.687   4.840  13.419 -1.6428  1.2517 -1.2606
14614TIP3   OH265256   3.164   5.737   1.769  0.1812  0.3835 -0.1523
14614TIP3    H165257   3.158   5.825   1.807  1.1410 -0.4098  2.0082
14614TIP3    H265258   3.248   5.704   1.800 -2.0821 -3.0169  3.1798
14615TIP3   OH265259   2.801   0.192   2.962  0.8520 -0.1831  0.3028
14615TIP3    H165260   2.888   0.167   2.992  0.9947 -3.3962 -2.2029
14615TIP3    H265261   2.817   0.244   2.883  0.5277 -0.7495 -0.1426
14616TIP3   OH265262   3.215   0.578  15.752  0.0273  0.4745 -0.7164
14616TIP3    H165263   3.245   0.541  15.835 -0.4126  1.0969 -0.2757
14616TIP3    H265264   3.192   0.501  15.699 -2.1797  0.0716  0.6710
14617TIP3   OH265265   3.932   1.833   0.175  0.4751 -0.1493 -0.2445
14617TIP3    H165266   3.899   1.882   0.100  1.2504  1.3859  0.3738
14617TIP3    H265267   3.854   1.804   0.221 -0.0381 -1.9089 -2.0798
14618TIP3   OH265268   3.740   2.046   6.336 -0.0083  0.0234  0.2596
14618TIP3    H165269   3.770   1.968   6.383  1.3176  0.2919 -0.0976
14618TIP3    H265270   3.724   2.111   6.404 -1.5437 -0.6740  0.5955
14619TIP3   OH265271   0.043   6.608   4.851 -0.2316 -0.6137 -0.4431
14619TIP3    H165272  -0.043   6.617   4.809 -0.6025 -3.3324 -0.4460
14619TIP3    H265273   0.032   6.645   4.938 -1.4310 -0.9980 -0.4250
14620TIP3   OH265274   2.565   0.239  13.709  0.0706 -0.3038 -0.0520
14620TIP3    H165275   2.558   0.144  13.722  0.8629 -0.3297  0.2380
14620TIP3    H265276   2.538   0.276  13.793 -2.3334 -0.1663 -0.8109
14621TIP3   OH265277   1.543   2.130   0.415 -0.3387  0.0555  0.3167
14621TIP3    H165278   1.592   2.049   0.403  1.3533  0.8399  1.4687
14621TIP3    H265279   1.461   2.103   0.456 -0.9333 -1.2955 -1.6181
14622TIP3   OH265280   1.025   2.670   4.394 -0.3927  0.4915 -0.4823
14622TIP3    H165281   1.014   2.764   4.402  1.4911  0.7284 -0.3821
14622TIP3    H265282   0.972   2.646   4.317 -0.8879  1.6032 -0.5043
14623TIP3   OH265283   6.599   2.582   1.523  0.5002  0.5980 -0.0667
14623TIP3    H165284   6.600   2.652   1.458 -0.5696  0.2663 -0.4693
14623TIP3    H265285   6.536   2.518   1.488  0.0672  0.3023  1.1837
14624TIP3   OH265286   4.783   1.539   5.611 -0.5497 -0.1769  0.5440
14624TIP3    H165287   4.805   1.474   5.545  1.5953  2.0524 -1.1438
14624TIP3    H265288   4.815   1.502   5.693  1.2576 -1.0014 -0.4729
14625TIP3   OH265289   1.796   0.411   3.495 -0.1580 -0.2804  0.5336
14625TIP3    H165290   1.810   0.401   3.590 -0.3230  0.6756  0.6747
14625TIP3    H265291   1.821   0.327   3.458 -0.8664 -0.9453  1.5138
14626TIP3   OH265292   0.072   2.763   0.056 -0.2573 -0.2314 -0.1041
14626TIP3    H165293   0.087   2.670   0.073  0.4327 -0.1191 -0.0430
14626TIP3    H265294   0.152   2.806   0.086 -1.8259  0.7855  3.0457
14627TIP3   OH265295   5.856   5.358  16.768  0.0160  0.2208 -0.3098
14627TIP3    H165296   5.815   5.283  16.811 -1.8048  1.3125 -0.0445
14627TIP3    H265297   5.790   5.427  16.771  1.3920  1.6485 -1.1386
14628TIP3   OH265298   6.602   1.964   3.790  0.3057 -0.4294  0.4588
14628TIP3    H165299   6.562   2.030   3.847 -1.4805 -0.7064 -0.3909
14628TIP3    H265300   6.586   1.996   3.701 -1.5769 -2.4493 -0.0191
14629TIP3   OH265301   6.339   0.476  11.793  0.2460 -0.1130  0.4411
14629TIP3    H165302   6.432   0.499  11.784  0.9085 -1.9713  1.8484
14629TIP3    H265303   6.312   0.449  11.706  0.5253  1.9890 -0.3605
14630TIP3   OH265304   2.093   5.665  11.138 -0.4806  0.3030 -0.3197
14630TIP3    H165305   2.088   5.571  11.121 -0.8793  0.0359  1.1303
14630TIP3    H265306   2.005   5.689  11.167 -0.4572  1.1895 -0.9434
14631TIP3   OH265307   3.389   1.398  13.168 -0.3578  0.1119 -0.1578
14631TIP3    H165308   3.424   1.481  13.135  3.5916 -1.3345 -0.0312
14631TIP3    H265309   3.393   1.407  13.264 -2.4662  0.6445 -0.0625
14632TIP3   OH265310   1.394   0.922   5.136  0.5758 -0.7318 -0.8606
14632TIP3    H165311   1.413   0.845   5.189  1.0260 -1.2281 -1.7328
14632TIP3    H265312   1.475   0.939   5.089  0.9125  1.0485  0.2575
14633TIP3   OH265313   0.956   2.711  17.006 -0.4531 -0.0419  0.2071
14633TIP3    H165314   0.995   2.794  17.034  0.8564 -0.6633  0.3224
14633TIP3    H265315   1.031   2.652  16.997 -1.5366 -1.8303  2.1987
14634TIP3   OH265316   2.898   1.380   0.126 -0.1704  0.2668  0.0508
14634TIP3    H165317   2.854   1.459   0.094 -0.3862 -0.2821 -1.0590
14634TIP3    H265318   2.991   1.396   0.110 -0.0262  0.9982  1.4434
14635TIP3   OH265319   1.852   2.998   3.746  0.1207  0.2984 -0.1210
14635TIP3    H165320   1.854   3.005   3.651 -0.5441 -0.2164 -0.1814
14635TIP3    H265321   1.788   2.929   3.764 -1.0335  1.5366  0.7436
14636TIP3   OH265322   2.557   3.810   3.637 -0.4000 -0.3352 -0.4558
14636TIP3    H165323   2.627   3.849   3.690 -0.5244  1.6373 -1.6332
14636TIP3    H265324   2.479   3.816   3.692  0.2755 -2.5338  0.8620
14637TIP3   OH265325   5.553   3.905   0.529 -0.1535  0.1298 -0.1907
14637TIP3    H165326   5.514   3.983   0.489 -0.1885 -0.0921 -0.5903
14637TIP3    H265327   5.555   3.841   0.458  0.0521 -0.1698  0.0893
14638TIP3   OH265328   0.651   3.380  10.751  0.2182 -0.3890 -0.3632
14638TIP3    H165329   0.612   3.461  10.718  0.6639 -0.3220 -0.7300
14638TIP3    H265330   0.743   3.403  10.768  0.4572 -0.9376 -0.8933
14639TIP3   OH265331   5.451   3.958   4.909 -0.1700  0.5102  0.3826
14639TIP3    H165332   5.404   3.880   4.880  1.7200 -0.3051 -0.6515
14639TIP3    H265333   5.395   4.031   4.884 -1.2877 -0.4449  0.0264
14640TIP3   OH265334   1.979   1.268  12.088 -0.0816  0.0054 -0.2319
14640TIP3    H165335   2.046   1.235  12.148  1.2298  1.6770 -0.7056
14640TIP3    H265336   1.934   1.189  12.058  0.0150 -0.9745  1.9798
14641TIP3   OH265337   2.869   3.053   6.609 -0.0763 -0.0966 -0.3282
14641TIP3    H165338   2.907   2.988   6.550  0.3858  0.7664 -1.0216
14641TIP3    H265339   2.775   3.039   6.602 -0.0851  0.5178 -1.9526
14642TIP3   OH265340   0.862   2.786   5.017  0.2172 -0.4903 -0.0302
14642TIP3    H165341   0.949   2.782   4.976  0.4663 -1.2391  0.5358
14642TIP3    H265342   0.806   2.827   4.951  0.6513 -1.4652 -1.0458
14643TIP3   OH265343   3.335   0.323  15.544 -0.3571 -0.6399 -0.9195
14643TIP3    H165344   3.381   0.313  15.627 -0.4409  1.9984 -0.4636
14643TIP3    H265345   3.386   0.273  15.481  0.6936 -1.2644  0.3950
14644TIP3   OH265346   3.226   4.171   1.412 -0.4094  0.3601  0.0089
14644TIP3    H165347   3.163   4.192   1.482  0.3412 -0.7204  1.0307
14644TIP3    H265348   3.302   4.135   1.458 -0.5600 -1.9888 -1.4593
14645TIP3   OH265349   4.803   1.665   1.326 -0.3814  0.3953 -0.5828
14645TIP3    H165350   4.885   1.697   1.290  0.6418 -0.8105  0.5826
14645TIP3    H265351   4.825   1.632   1.413 -1.8906 -0.8979 -0.6363
14646TIP3   OH265352   3.495   0.273   0.696  0.3122 -0.1423 -0.5487
14646TIP3    H165353   3.466   0.223   0.772  0.1091 -0.5623 -0.8967
14646TIP3    H265354   3.414   0.297   0.650  0.4667 -0.6036 -1.0741
14647TIP3   OH265355   2.910   0.895   2.104  0.1601  0.0505 -0.4576
14647TIP3    H165356   2.838   0.870   2.046  1.1783 -0.4954 -1.5217
14647TIP3    H265357   2.905   0.833   2.176 -0.4580  0.0359 -0.5095
14648TIP3   OH265358   5.706   1.684   2.962  0.3995 -0.6378 -0.8366
14648TIP3    H165359   5.630   1.646   3.005  0.7842  0.8079  1.3011
14648TIP3    H265360   5.681   1.692   2.870 -1.4820 -1.4544 -0.4320
14649TIP3   OH265361   4.015   4.567   3.717 -0.0508 -0.8091 -0.2182
14649TIP3    H165362   4.018   4.658   3.687 -0.1293 -0.5220  0.6379
14649TIP3    H265363   4.096   4.528   3.684  1.9804  0.6170  2.7328
14650TIP3   OH265364   5.000   6.524  17.012  0.2663 -0.6545 -0.3345
14650TIP3    H165365   5.088   6.517  16.975 -0.2850  0.8504 -2.0560
14650TIP3    H265366   5.009   6.489  17.101  1.9467 -3.1902 -1.4006
14651TIP3   OH265367   2.043   3.839   2.842 -0.0032  0.1908 -0.2940
14651TIP3    H165368   2.097   3.773   2.798  0.2632 -0.1182  0.4735
14651TIP3    H265369   1.998   3.790   2.911  1.2531  1.0213  1.1926
14652TIP3   OH265370   2.483   6.533   3.145  0.3515  0.1883  0.4039
14652TIP3    H165371   2.417   6.531   3.076 -0.1698 -0.5633  0.9139
14652TIP3    H265372   2.491   6.442   3.173  1.6529  0.2551  0.3142
14653TIP3   OH265373   1.809   5.441   6.165 -0.2173  0.7988 -0.5027
14653TIP3    H165374   1.818   5.483   6.250 -0.5543 -2.9283  1.6222
14653TIP3    H265375   1.899   5.426   6.136 -0.1013  2.6404 -1.1732
14654TIP3   OH265376   2.544   3.480  14.208  0.3100 -0.1509 -0.3865
14654TIP3    H165377   2.558   3.552  14.146  2.0325 -0.2894 -0.2181
14654TIP3    H265378   2.449   3.470  14.212  0.1084  0.4800 -2.2865
14655TIP3   OH265379   6.136   3.245  16.427  0.2525  0.5584 -0.2755
14655TIP3    H165380   6.141   3.340  16.437 -0.9710  0.8882 -2.2220
14655TIP3    H265381   6.223   3.220  16.396  0.4414  1.1167 -0.2175
14656TIP3   OH265382   0.177   2.538  14.243  0.3290 -0.0925 -0.1884
14656TIP3    H165383   0.160   2.452  14.280 -1.0403  0.8921  1.6257
14656TIP3    H265384   0.193   2.594  14.319 -0.4949  1.5946 -1.2111
14657TIP3   OH265385   0.275   2.030  12.215  0.7848  0.2998  0.1993
14657TIP3    H165386   0.340   2.091  12.250  1.6663 -0.5458  0.0513
14657TIP3    H265387   0.277   1.955  12.274 -1.5665  1.0869  1.4346
14658TIP3   OH265388   1.697   3.973   1.828 -0.0066  0.4080 -0.2950
14658TIP3    H165389   1.648   4.050   1.858  0.8292  1.0691 -0.5798
14658TIP3    H265390   1.633   3.922   1.779  0.0261  2.2668 -2.4326
14659TIP3   OH265391   2.243   0.991   1.848  0.2478 -0.3935 -0.0621
14659TIP3    H165392   2.240   1.069   1.792 -0.0357  0.8083  1.5436
14659TIP3    H265393   2.167   0.940   1.823 -0.7559  0.8878  0.2533
14660TIP3   OH265394   5.403   4.236   3.374 -0.1431  0.3581  0.1944
14660TIP3    H165395   5.387   4.321   3.415  2.2397  1.5673 -1.1377
14660TIP3    H265396   5.470   4.195   3.429 -0.1218  0.0519 -0.0540
14661TIP3   OH265397   5.140   5.773   1.664 -0.7443 -0.1291  0.1097
14661TIP3    H165398   5.127   5.706   1.732  0.6070 -1.8427 -1.2055
14661TIP3    H265399   5.207   5.735   1.606 -0.6624  1.9666 -1.2637
14662TIP3   OH265400   1.240   5.974  11.562 -0.3112  0.0672 -0.0744
14662TIP3    H165401   1.306   5.926  11.511  0.9052  0.6773  0.8719
14662TIP3    H265402   1.159   5.962  11.512  0.2183 -1.7847 -0.6089
14663TIP3   OH265403   3.239   4.767  13.050 -0.4167 -0.4935  0.3761
14663TIP3    H165404   3.163   4.812  13.012 -1.4468 -0.1450  2.6462
14663TIP3    H265405   3.220   4.674  13.038  0.1597 -0.4085 -1.4744
14664TIP3   OH265406   2.210   1.854  13.438  0.1835  0.1091 -0.2169
14664TIP3    H165407   2.186   1.765  13.413  0.6307  0.6986 -3.0987
14664TIP3    H265408   2.285   1.875  13.383  0.8675  1.8657  1.2797
14665TIP3   OH265409   5.349   5.533  12.603  0.1752 -0.3545 -0.0698
14665TIP3    H165410   5.345   5.516  12.698 -0.5522  0.8531  0.1424
14665TIP3    H265411   5.442   5.543  12.585  0.2581  0.6997  0.7954
14666TIP3   OH265412   0.539   5.310  16.529 -0.1048 -0.4534 -0.8297
14666TIP3    H165413   0.445   5.330  16.537  0.2341  0.5247  1.4253
14666TIP3    H265414   0.555   5.308  16.434 -1.6336  3.3151 -1.3627
14667TIP3   OH265415   3.689   0.287  11.478 -0.3121 -0.1821 -0.2888
14667TIP3    H165416   3.727   0.362  11.432 -0.3215  0.0538  0.0848
14667TIP3    H265417   3.705   0.213  11.419  2.8071 -0.5548  0.8221
14668TIP3   OH265418   1.067   4.351  10.219  0.0552 -0.4120 -0.1643
14668TIP3    H165419   1.028   4.271  10.183 -0.8338 -0.8682  1.6908
14668TIP3    H265420   1.156   4.324  10.244 -0.2064 -0.8143  0.3595
14669TIP3   OH265421   3.651   1.642   3.436 -0.0707  0.2178 -0.1026
14669TIP3    H165422   3.725   1.703   3.440 -0.5833  1.0283 -1.8229
14669TIP3    H265423   3.603   1.657   3.517  1.5137 -0.1859  0.9656
14670TIP3   OH265424   4.626   1.547  11.443 -0.3224 -0.0609 -0.0379
14670TIP3    H165425   4.532   1.529  11.441 -0.1289 -1.0995 -0.6173
14670TIP3    H265426   4.666   1.467  11.408  0.6933  0.9573 -1.2776
14671TIP3   OH265427   3.084   3.787   3.827 -0.0575 -0.1749 -1.1112
14671TIP3    H165428   3.063   3.846   3.900  0.9664  1.7345 -2.2851
14671TIP3    H265429   3.163   3.741   3.856  0.5986  0.8909 -1.1667
14672TIP3   OH265430   4.782   5.373  13.701  0.2362 -0.7454 -0.3079
14672TIP3    H165431   4.832   5.317  13.761 -0.6273  0.5828  1.7868
14672TIP3    H265432   4.700   5.326  13.687 -0.6164  0.0119  1.6936
14673TIP3   OH265433   6.024   5.680  13.949 -0.1358 -0.0301 -0.0680
14673TIP3    H165434   5.982   5.732  13.880  0.7340  0.6546 -0.0988
14673TIP3    H265435   6.116   5.677  13.924 -0.2656 -2.2275 -0.4482
14674TIP3   OH265436   0.342   2.840   1.565 -0.4236  0.0286 -0.4807
14674TIP3    H165437   0.369   2.842   1.473 -1.9244 -0.7764 -0.9785
14674TIP3    H265438   0.312   2.929   1.583 -2.4798 -0.3701 -1.5831
14675TIP3   OH265439   0.290   3.126   4.826 -0.1751 -0.2430  0.2174
14675TIP3    H165440   0.270   3.078   4.746 -1.8602  2.7441 -1.3084
14675TIP3    H265441   0.320   3.212   4.796  1.1287  0.3087  2.8085
14676TIP3   OH265442   1.936   4.755  12.957  0.2413  0.2530 -0.5711
14676TIP3    H165443   1.971   4.667  12.966  0.3283  0.4546  1.5212
14676TIP3    H265444   1.843   4.742  12.938  0.2100 -0.2872 -0.0662
14677TIP3   OH265445   6.320   5.781  12.852  0.0436 -0.0421 -0.1744
14677TIP3    H165446   6.275   5.790  12.768  0.2583  1.0090 -0.1883
14677TIP3    H265447   6.397   5.727  12.832 -0.5544 -0.8332 -0.3890
14678TIP3   OH265448   4.210   6.634   4.330 -0.2054  0.3474  0.0102
14678TIP3    H165449   4.124   6.596   4.350  0.0024 -0.3569 -0.4123
14678TIP3    H265450   4.191   6.725   4.308 -1.1022 -0.2753 -2.0068
14679TIP3   OH265451   3.564   5.550   4.484 -0.0699 -0.1864 -0.7315
14679TIP3    H165452   3.573   5.599   4.566  0.2781 -1.4397  0.0009
14679TIP3    H265453   3.474   5.566   4.456  0.0963  1.0416 -0.6428
14680TIP3   OH265454   1.658   6.505  15.139 -0.0286  0.3624 -0.3291
14680TIP3    H165455   1.751   6.522  15.153  1.0007 -3.6533 -0.8747
14680TIP3    H265456   1.618   6.518  15.225  1.1055  1.5871  0.0488
14681TIP3   OH265457   5.852   6.045   1.713  0.1403  0.5390 -0.4179
14681TIP3    H165458   5.830   5.970   1.657 -0.2226 -0.1506  0.6248
14681TIP3    H265459   5.942   6.029   1.740  0.7986  1.5782 -1.8779
14682TIP3   OH265460   4.555   3.121  12.903 -0.0883 -0.1499 -0.4191
14682TIP3    H165461   4.573   3.034  12.868  2.8202  1.1545 -2.5647
14682TIP3    H265462   4.590   3.119  12.992 -0.8752 -1.3853 -0.1079
14683TIP3   OH265463   0.286   6.554  15.154  0.0859  0.1384 -0.1536
14683TIP3    H165464   0.372   6.545  15.196 -0.1312 -1.0442  0.0802
14683TIP3    H265465   0.229   6.588  15.222  0.3136  0.7234 -0.2494
14684TIP3   OH265466   6.242   6.642   4.034 -0.4470  0.1495 -0.4264
14684TIP3    H165467   6.259   6.726   4.075 -1.3084 -0.0822  0.4490
14684TIP3    H265468   6.283   6.648   3.948  2.0271  0.4192  0.6813
14685TIP3   OH265469   4.818   5.432   1.714  0.5863  0.5561  0.2020
14685TIP3    H165470   4.902   5.393   1.689 -0.8946 -1.6182 -1.9346
14685TIP3    H265471   4.768   5.435   1.632 -2.4327 -1.0413  1.7833
14686TIP3   OH265472   5.596   0.317   5.976  0.0703 -0.3086 -0.2851
14686TIP3    H165473   5.599   0.370   5.897 -1.0597  0.7889  0.3712
14686TIP3    H265474   5.504   0.290   5.983 -0.0379  0.3372  1.1027
14687TIP3   OH265475   4.700   2.383   0.736  0.0063 -1.1002 -0.2093
14687TIP3    H165476   4.744   2.302   0.764  1.3544 -0.7243 -1.1493
14687TIP3    H265477   4.687   2.372   0.642  1.8207  0.4424 -0.7165
14688TIP3   OH265478   5.555   6.119   5.177  0.5054  0.3152 -0.1412
14688TIP3    H165479   5.583   6.053   5.241  1.9469  0.1290 -0.9173
14688TIP3    H265480   5.557   6.072   5.093  1.0269  1.1856 -0.6291
14689TIP3   OH265481   4.047   4.507  12.933  0.3641  0.1317  0.6656
14689TIP3    H165482   4.115   4.441  12.939  1.4701  1.0305 -1.2893
14689TIP3    H265483   3.970   4.459  12.902  0.5271 -0.6003  1.3511
14690TIP3   OH265484   5.394   2.390  13.279  0.1710 -0.0790 -0.0907
14690TIP3    H165485   5.465   2.327  13.265  1.9274  1.7491  0.1702
14690TIP3    H265486   5.354   2.400  13.193  2.1345  0.9695 -0.9500
14691TIP3   OH265487   2.396   4.086   3.667  0.1033 -0.5950 -0.6767
14691TIP3    H165488   2.397   4.115   3.758 -0.4209  0.8040 -1.0866
14691TIP3    H265489   2.330   4.016   3.665 -2.1244  1.3693 -0.5034
14692TIP3   OH265490   6.044   6.787  10.275 -0.1280  0.1183 -0.3403
14692TIP3    H165491   6.057   6.844  10.200 -2.7939  0.6479 -0.4792
14692TIP3    H265492   6.038   6.699  10.238  1.3132  0.0252 -0.4076
14693TIP3   OH265493   5.073   4.812  14.407 -0.6268  0.0252 -0.6292
14693TIP3    H165494   5.085   4.717  14.410  0.5961  0.1808  0.9865
14693TIP3    H265495   5.078   4.834  14.314  2.5156 -1.1367 -0.8575
14694TIP3   OH265496   5.368   6.151   6.059  0.4753  0.4098  0.4379
14694TIP3    H165497   5.387   6.065   6.097  0.4834 -0.0699 -0.6324
14694TIP3    H265498   5.394   6.213   6.127  2.0417 -0.3741  0.5855
14695TIP3   OH265499   5.131   0.982  13.999 -0.1539  0.2065  0.1576
14695TIP3    H165500   5.065   1.051  13.992 -0.5120 -0.1825 -0.4197
14695TIP3    H265501   5.177   1.001  14.080 -0.7763  0.6643  0.4132
14696TIP3   OH265502   6.530   6.581   4.102 -0.5068 -0.1074  0.1223
14696TIP3    H165503   6.581   6.501   4.111 -0.0539  0.0981 -0.5274
14696TIP3    H265504   6.537   6.604   4.010  0.1830  1.1988  0.4748
14697TIP3   OH265505   3.567   1.038   5.412 -0.6671 -0.3953  0.0118
14697TIP3    H165506   3.595   1.129   5.427 -0.8722 -0.3652  0.2160
14697TIP3    H265507   3.594   0.991   5.490  1.5361 -1.0155 -1.0380
14698TIP3   OH265508   4.704   6.693  14.721 -0.6884  0.2748 -0.2539
14698TIP3    H165509   4.683   6.779  14.758 -1.0943 -0.3417  1.0189
14698TIP3    H265510   4.711   6.636  14.797 -0.0138 -0.7440 -1.0554
14699TIP3   OH265511   1.650   2.520  13.663  0.2177 -0.3717 -0.2567
14699TIP3    H165512   1.686   2.435  13.638  1.7651  0.1146  0.2481
14699TIP3    H265513   1.628   2.511  13.756  4.7013  1.0645  1.1663
14700TIP3   OH265514   2.220   4.625   1.976 -0.0835 -0.1253 -0.4360
14700TIP3    H165515   2.224   4.706   2.027  0.9841 -0.2652 -0.2767
14700TIP3    H265516   2.296   4.630   1.918 -1.1135 -0.0916 -1.8454
14701TIP3   OH265517   4.759   0.291   1.543 -0.0418  0.0805 -0.5814
14701TIP3    H165518   4.799   0.372   1.513  1.9939 -0.5781  0.1898
14701TIP3    H265519   4.669   0.315   1.564  0.7508  2.3877  0.5196
14702TIP3   OH265520   6.531   3.794  16.056  0.0561  0.0889  0.5499
14702TIP3    H165521   6.529   3.699  16.043 -0.2667  0.0129  1.0925
14702TIP3    H265522   6.623   3.817  16.053  0.0323  0.3351 -3.3199
14703TIP3   OH265523   6.535   0.407   2.270 -0.7218  0.1575 -0.3019
14703TIP3    H165524   6.529   0.463   2.193 -0.0045 -0.3776 -0.7512
14703TIP3    H265525   6.554   0.320   2.235  1.3337  0.2141  0.5545
14704TIP3   OH265526   2.054   1.233   4.837 -0.5363 -0.1774  0.0016
14704TIP3    H165527   2.100   1.283   4.769 -1.0429  0.1984 -0.0803
14704TIP3    H265528   1.996   1.298   4.878 -1.0914 -0.6614  0.0010
14705TIP3   OH265529   4.680   4.308  10.996  0.0923 -0.0272 -0.2104
14705TIP3    H165530   4.678   4.394  10.955 -1.9596  0.6426  1.1659
14705TIP3    H265531   4.590   4.277  10.991  0.6300 -1.7358  0.1078
14706TIP3   OH265532   2.367   3.319  15.521  0.2315  0.4177  0.3449
14706TIP3    H165533   2.308   3.335  15.447 -0.0048 -1.7676 -0.0336
14706TIP3    H265534   2.341   3.232  15.553  3.5138 -0.8809 -0.1418
14707TIP3   OH265535   4.820   2.049  13.363  0.1414 -0.5506 -0.3332
14707TIP3    H165536   4.793   2.008  13.445 -1.3661 -1.6193 -1.3114
14707TIP3    H265537   4.759   2.122  13.350  0.5778 -0.1820 -0.3519
14708TIP3   OH265538   0.018   2.529   5.302  0.3652  0.1570  0.0132
14708TIP3    H165539  -0.010   2.438   5.306 -0.1338  0.1374 -2.3387
14708TIP3    H265540  -0.063   2.579   5.313  0.7307  0.3882  1.9991
14709TIP3   OH265541   5.399   3.721  11.875 -0.0024 -0.2172  0.4088
14709TIP3    H165542   5.446   3.733  11.957 -0.2103  0.9804  0.3663
14709TIP3    H265543   5.459   3.754  11.808 -0.1297 -0.5057  0.1491
14710TIP3   OH265544   1.105   1.651  13.990 -0.4271  0.0638 -0.3927
14710TIP3    H165545   1.185   1.690  13.955  0.8314 -1.8964  0.0768
14710TIP3    H265546   1.106   1.674  14.083  0.1357 -0.7157 -0.1876
14711TIP3   OH265547   1.621   5.821   3.911 -0.4963 -0.6233 -0.2673
14711TIP3    H165548   1.664   5.861   3.835  1.6496  0.2065  1.2740
14711TIP3    H265549   1.566   5.891   3.947 -0.3433 -0.5214 -0.2271
14712TIP3   OH265550   3.009   5.047   3.712  0.4701 -0.4339 -0.1132
14712TIP3    H165551   3.045   5.084   3.631 -0.4475 -0.2306 -0.4386
14712TIP3    H265552   3.068   4.975   3.734  2.8259  1.6949  1.0132
14713TIP3   OH265553   6.152   1.638  15.538 -0.2143 -0.4001  0.3285
14713TIP3    H165554   6.231   1.662  15.490 -1.8111  0.0580 -2.2481
14713TIP3    H265555   6.154   1.542  15.541  0.4404 -0.3881  0.3033
14714TIP3   OH265556   2.151   4.212  10.299 -0.5422 -0.3475  0.0741
14714TIP3    H165557   2.094   4.140  10.271 -0.7258 -0.0544 -0.3300
14714TIP3    H265558   2.208   4.228  10.224 -1.2111  0.6231 -0.2485
14715TIP3   OH265559   1.607   5.527  15.783  0.2376 -0.2002 -0.0624
14715TIP3    H165560   1.576   5.437  15.784  0.1479 -0.1681  0.0355
14715TIP3    H265561   1.558   5.569  15.712  1.3567 -0.6109 -1.1365
14716TIP3   OH265562   1.413   2.846   3.744 -0.2463 -0.5004 -0.8302
14716TIP3    H165563   1.475   2.859   3.672 -1.0484 -0.2718 -1.4978
14716TIP3    H265564   1.415   2.752   3.759 -0.1659 -0.5699 -1.2407
14717TIP3   OH265565   3.381   3.975  11.298  0.2281 -0.0419 -0.1225
14717TIP3    H165566   3.296   3.933  11.313  0.1652  0.2422  0.3355
14717TIP3    H265567   3.438   3.905  11.267 -0.3526 -0.1113 -1.0977
14718TIP3   OH265568   3.147   1.536  11.129  0.8344  0.2310 -0.5838
14718TIP3    H165569   3.096   1.614  11.149  0.8692  0.0837  0.1121
14718TIP3    H265570   3.174   1.502  11.215  0.8159 -0.5440 -0.8750
14719TIP3   OH265571   4.142   6.033  14.651  0.1490  0.2331 -0.1527
14719TIP3    H165572   4.089   6.100  14.695 -1.4986 -0.6833 -0.6514
14719TIP3    H265573   4.232   6.055  14.673 -0.3737  2.3382  0.0709
14720TIP3   OH265574   0.286   3.799  16.381  0.3424 -0.4139 -0.0525
14720TIP3    H165575   0.261   3.796  16.474 -1.0181  0.2760 -0.3635
14720TIP3    H265576   0.364   3.855  16.380 -0.4221  0.7216  0.5523
14721TIP3   OH265577   2.689   5.559  10.175  0.0190  0.5226  0.0692
14721TIP3    H165578   2.602   5.598  10.161  0.4161  1.4211  0.0231
14721TIP3    H265579   2.734   5.571  10.091  0.1498 -0.0561  0.0526
14722TIP3   OH265580   2.808   5.079  11.693  0.0626  0.0417 -0.2311
14722TIP3    H165581   2.796   5.085  11.599 -0.9621  2.9991 -0.0221
14722TIP3    H265582   2.889   5.127  11.710 -0.6527  1.0643  0.4809
14723TIP3   OH265583   5.762   1.487  14.318 -0.2489 -0.7688 -0.0067
14723TIP3    H165584   5.753   1.408  14.370  1.7288 -0.4741  0.8838
14723TIP3    H265585   5.755   1.458  14.227 -3.0712 -1.3940  0.3294
14724TIP3   OH265586   0.484   5.375   2.186 -0.1368 -0.0032 -0.4856
14724TIP3    H165587   0.549   5.345   2.121  2.1043 -0.5069  1.8456
14724TIP3    H265588   0.529   5.443   2.235 -1.4947 -0.1757  1.0578
14725TIP3   OH265589   6.031   4.116   3.146  0.1339 -0.5245  0.4212
14725TIP3    H165590   6.051   4.034   3.191 -2.4121 -1.8851 -0.6629
14725TIP3    H265591   6.070   4.106   3.059 -0.7139 -0.9143  0.0711
14726TIP3   OH265592   1.184   2.515   2.030  0.3244 -0.5863 -0.4968
14726TIP3    H165593   1.273   2.528   2.062 -0.4225  0.7457  1.1953
14726TIP3    H265594   1.168   2.420   2.039  1.5122 -0.8124 -0.7046
14727TIP3   OH265595   2.313   6.412  12.778 -0.2203 -0.0866 -0.1177
14727TIP3    H165596   2.386   6.377  12.830 -0.4829  0.6362  0.7564
14727TIP3    H265597   2.235   6.376  12.819 -0.4619  0.9962  0.4045
14728TIP3   OH265598   1.683   1.564   3.764  0.4017 -0.3383  0.3770
14728TIP3    H165599   1.769   1.540   3.729  0.2564  1.1838 -1.1520
14728TIP3    H265600   1.641   1.611   3.692 -1.2136  0.0575  1.5434
14729TIP3   OH265601   5.233   2.085  15.315 -0.8422  0.5071  0.0978
14729TIP3    H165602   5.258   2.059  15.403 -0.6570 -1.2055 -0.4113
14729TIP3    H265603   5.295   2.038  15.258 -1.0655  1.4351 -0.9494
14730TIP3   OH265604   3.536   6.498   5.718 -0.2057  0.0253 -0.4274
14730TIP3    H165605   3.563   6.431   5.782 -0.1997 -0.0362 -0.4940
14730TIP3    H265606   3.510   6.573   5.772 -0.6605 -0.1972 -0.3330
14731TIP3   OH265607   2.093   4.336   1.206 -0.7044 -0.2457  0.5421
14731TIP3    H165608   2.069   4.298   1.290 -1.6027 -3.6434 -1.0786
14731TIP3    H265609   2.015   4.324   1.151  0.5527 -0.0579 -1.3820
14732TIP3   OH265610   1.316   0.946  13.339  0.6326  0.1260 -0.5901
14732TIP3    H165611   1.319   0.897  13.257 -0.8028  0.2181 -0.7102
14732TIP3    H265612   1.402   0.930  13.379  0.5029 -1.8425 -0.9935
14733TIP3   OH265613   4.186   2.344   2.998 -0.2258  0.0354 -0.2361
14733TIP3    H165614   4.267   2.296   3.011 -0.5843 -0.5162 -0.0026
14733TIP3    H265615   4.213   2.436   2.991  0.4526 -0.1865 -0.5866
14734TIP3   OH265616   6.317   4.623  14.738  0.1054 -0.2935 -0.2767
14734TIP3    H165617   6.293   4.682  14.666 -1.0128  1.0317  1.1069
14734TIP3    H265618   6.260   4.547  14.727 -0.1676 -0.0336 -0.6996
14735TIP3   OH265619   0.843   6.407  13.733  0.3971 -0.1789  0.3661
14735TIP3    H165620   0.858   6.496  13.701  1.9515 -0.6542 -0.3063
14735TIP3    H265621   0.827   6.418  13.827  1.3701  0.7559  0.4416
14736TIP3   OH265622   6.520   2.486  14.584 -0.1712  0.0026 -0.0563
14736TIP3    H165623   6.503   2.408  14.531 -0.4236  0.8920 -1.3162
14736TIP3    H265624   6.608   2.472  14.619 -0.1747 -0.7976 -0.3475
14737TIP3   OH265625   1.110   4.619   1.824  0.7537 -0.5884  0.9686
14737TIP3    H165626   1.114   4.708   1.859  0.7551  0.5477 -1.6904
14737TIP3    H265627   1.017   4.596   1.828  0.0370  1.2569 -2.0425
14738TIP3   OH265628   2.343   4.219  15.410 -0.0741 -0.3648  0.3552
14738TIP3    H165629   2.411   4.192  15.471 -0.0531  0.0151  0.5021
14738TIP3    H265630   2.321   4.140  15.361  0.6707 -0.4226  0.1144
14739TIP3   OH265631   3.909   5.311   5.901 -0.0042  0.3166  0.0017
14739TIP3    H165632   3.966   5.253   5.952 -0.4280 -0.1725 -0.0821
14739TIP3    H265633   3.900   5.389   5.956  0.6574  0.3557  0.0646
14740TIP3   OH265634   6.009   0.236  16.250  1.2179  0.4367 -0.0011
14740TIP3    H165635   6.064   0.287  16.309  0.6900 -0.8209  1.6792
14740TIP3    H265636   5.939   0.202  16.306 -1.1140  1.6931 -1.9891
14741TIP3   OH265637   3.893   2.392   0.090  0.1534 -0.6301 -0.2706
14741TIP3    H165638   3.954   2.377   0.163 -1.9154 -0.9559  1.4682
14741TIP3    H265639   3.889   2.307   0.045  2.1843 -0.1722 -1.4687
14742TIP3   OH265640   5.658   0.873   2.076 -0.1320  0.1229  0.0588
14742TIP3    H165641   5.645   0.778   2.073 -0.6062  0.1732  0.3994
14742TIP3    H265642   5.600   0.908   2.008  0.7536  0.1049 -0.7227
14743TIP3   OH265643   5.171   2.400   1.698 -0.0707  0.1742  0.8919
14743TIP3    H165644   5.113   2.324   1.706 -0.3527  0.3058  0.1642
14743TIP3    H265645   5.200   2.417   1.787 -0.5266 -0.3841  1.1549
14744TIP3   OH265646   4.371   1.656  14.944 -0.4686 -0.2226  0.2503
14744TIP3    H165647   4.295   1.599  14.933 -0.8036  0.5441 -2.1067
14744TIP3    H265648   4.336   1.744  14.931  0.7165  0.1829 -0.3416
14745TIP3   OH265649   4.201   2.364   3.420 -0.6458 -0.0166  0.7665
14745TIP3    H165650   4.247   2.282   3.403 -1.5077 -0.6118  1.2058
14745TIP3    H265651   4.220   2.384   3.512  4.1743  3.3006 -0.5590
14746TIP3   OH265652   6.132   1.387   4.795 -0.7159 -0.0480  0.1247
14746TIP3    H165653   6.069   1.448   4.834 -0.4020 -0.1131  0.7499
14746TIP3    H265654   6.107   1.301   4.831 -0.9982 -0.2582 -0.5513
14747TIP3   OH265655   4.546   1.775   4.491 -0.3838  0.6669  0.2061
14747TIP3    H165656   4.476   1.770   4.426  0.3825 -0.5014 -0.5805
14747TIP3    H265657   4.504   1.756   4.574 -1.0403  0.1895 -0.2250
14748TIP3   OH265658   1.439   0.949  11.768  0.4907  0.2863 -0.4684
14748TIP3    H165659   1.519   1.001  11.778  1.1158 -0.8010  0.4595
14748TIP3    H265660   1.465   0.877  11.711  0.0540  0.1867 -0.5393
14749TIP3   OH265661   3.867   4.884   6.148  0.1682  0.4288  0.1547
14749TIP3    H165662   3.877   4.849   6.059  0.1283  0.4876  0.1270
14749TIP3    H265663   3.956   4.891   6.181  0.1098 -2.5168  1.2582
14750TIP3   OH265664   5.592   6.388  16.359  0.3168  0.1332 -0.3333
14750TIP3    H165665   5.614   6.295  16.364  0.5653  0.2170  0.3200
14750TIP3    H265666   5.632   6.426  16.438 -2.0976  0.3111  0.8964
14751TIP3   OH265667   4.255   4.035   0.088  0.4322  0.4739 -0.7097
14751TIP3    H165668   4.310   3.965   0.051  0.5965 -0.8482  1.8603
14751TIP3    H265669   4.318   4.096   0.126  0.2212  0.1530  0.1820
14752TIP3   OH265670   6.704   5.408  14.335  0.0271 -0.5886  0.2954
14752TIP3    H165671   6.618   5.376  14.305  0.0733 -1.2044  0.7956
14752TIP3    H265672   6.748   5.330  14.369 -0.0145  0.0546  1.9484
14753TIP3   OH265673   4.998   5.517   3.178 -0.0312  0.0589  0.2200
14753TIP3    H165674   4.909   5.528   3.145  0.3248  0.6314 -0.6047
14753TIP3    H265675   5.025   5.606   3.203 -0.0600 -0.2640  1.4929
14754TIP3   OH265676   3.265   1.712  14.175  0.1525 -0.0518  0.1324
14754TIP3    H165677   3.302   1.629  14.205  0.3731 -0.2666 -0.6962
14754TIP3    H265678   3.277   1.710  14.080  1.2737  1.4695  0.2082
14755TIP3   OH265679   6.685   6.659  12.572 -0.1851 -0.2247  1.1139
14755TIP3    H165680   6.620   6.588  12.574 -0.2140 -0.2169  0.6389
14755TIP3    H265681   6.769   6.615  12.577 -0.1795 -0.3475  0.0864
14756TIP3   OH265682   3.376   1.529  15.274 -0.7717 -0.4066  0.0551
14756TIP3    H165683   3.300   1.532  15.216 -0.0402 -0.5317 -0.9457
14756TIP3    H265684   3.355   1.589  15.345 -1.4822  0.1632 -0.6158
14757TIP3   OH265685   4.879   6.243  13.019 -0.4271 -0.3345  0.2925
14757TIP3    H165686   4.900   6.183  12.947 -3.0012 -0.6181 -0.2966
14757TIP3    H265687   4.850   6.323  12.975  1.1597  0.7347  1.0823
14758TIP3   OH265688   1.546   0.206   2.685  0.2578 -0.3341  0.5687
14758TIP3    H165689   1.520   0.137   2.624  0.9497 -0.9017  0.9024
14758TIP3    H265690   1.511   0.287   2.647  0.0578 -0.7748 -0.1981
14759TIP3   OH265691   0.366   6.308  12.252  0.0568 -0.3137 -0.1868
14759TIP3    H165692   0.425   6.234  12.237  0.1550 -0.2258 -0.2313
14759TIP3    H265693   0.324   6.323  12.168  0.4507  0.0431 -0.3222
14760TIP3   OH265694   6.320   0.489   4.998  0.0173  1.1639  0.0267
14760TIP3    H165695   6.402   0.451   5.029 -1.6972 -0.5130  2.8813
14760TIP3    H265696   6.295   0.551   5.067 -0.9026  2.0582 -1.0719
14761TIP3   OH265697   4.838   6.266  11.625  0.0077  0.3310 -0.2428
14761TIP3    H165698   4.850   6.335  11.690 -0.2026  1.1128 -1.0116
14761TIP3    H265699   4.762   6.217  11.656  0.2922  0.3077  0.4282
14762TIP3   OH265700   2.093   6.417  16.486  0.2894 -0.4718  0.3427
14762TIP3    H165701   2.067   6.389  16.574 -0.9163  0.1434  0.1898
14762TIP3    H265702   2.078   6.511  16.485 -0.0530 -0.5264 -0.6372
14763TIP3   OH265703   4.552   0.167   0.102 -0.3382 -0.0154  0.1177
14763TIP3    H165704   4.595   0.200   0.181 -1.3220  0.6571  0.3876
14763TIP3    H265705   4.501   0.241   0.070 -0.7437 -0.5911 -0.5833
14764TIP3   OH265706   0.911   4.155  10.447  0.0764 -0.6891  0.2378
14764TIP3    H165707   0.915   4.178  10.354  1.0050 -2.1988 -0.1269
14764TIP3    H265708   0.884   4.063  10.448 -2.8476  0.0472  1.5987
14765TIP3   OH265709   5.214   3.155   3.309  0.0088  0.1109 -0.7898
14765TIP3    H165710   5.250   3.207   3.237 -0.0230 -1.8833 -2.3130
14765TIP3    H265711   5.179   3.077   3.267  2.1206 -2.2905  1.5843
14766TIP3   OH265712   5.006   1.650  11.281 -0.6607  0.1149  0.3187
14766TIP3    H165713   5.086   1.619  11.237 -0.6690  2.3462 -1.4477
14766TIP3    H265714   4.934   1.613  11.230 -0.7224 -0.1894  0.6270
14767TIP3   OH265715   1.022   4.400   5.282  0.5054 -0.2561 -0.1264
14767TIP3    H165716   1.106   4.445   5.280 -0.6209  1.9813 -1.2440
14767TIP3    H265717   0.978   4.435   5.360  0.8392 -1.9936  0.9062
14768TIP3   OH265718   3.033   2.860  11.709 -0.2863 -0.0806 -0.6215
14768TIP3    H165719   3.056   2.820  11.793  0.8360 -1.4932 -1.5787
14768TIP3    H265720   2.996   2.789  11.657 -0.3435  0.6329 -1.5886
14769TIP3   OH265721   0.037   6.274   0.674 -0.1027  0.2625 -0.1619
14769TIP3    H165722  -0.015   6.325   0.611  1.1957  0.4352 -1.1296
14769TIP3    H265723   0.117   6.325   0.685  0.8963 -1.1619 -0.5613
14770TIP3   OH265724   2.837   5.327  12.878  0.0413  0.1718  0.4425
14770TIP3    H165725   2.854   5.251  12.934  0.7534  0.8642  1.1927
14770TIP3    H265726   2.742   5.336  12.878 -0.0173 -0.3650  0.8298
14771TIP3   OH265727   1.005   1.828  11.927 -0.2315 -0.0202 -0.6686
14771TIP3    H165728   1.013   1.923  11.917 -1.0353 -0.0771 -2.2329
14771TIP3    H265729   1.045   1.793  11.847 -0.4595 -0.9708 -0.3736
14772TIP3   OH265730   5.582   3.928  12.090 -0.0551  0.5286 -0.1498
14772TIP3    H165731   5.658   3.939  12.033 -0.7661 -0.2267 -1.2915
14772TIP3    H265732   5.520   3.995  12.060 -0.3515  0.2633 -0.1341
14773TIP3   OH265733   3.307   5.923  13.225  0.2985 -0.0845  0.8935
14773TIP3    H165734   3.239   5.886  13.282  0.1142  0.9083  1.3553
14773TIP3    H265735   3.257   5.968  13.156  0.4928 -3.1672 -1.4376
14774TIP3   OH265736   5.280   5.102  14.349  0.5644  0.2334  0.2863
14774TIP3    H165737   5.360   5.148  14.325  0.2213  0.5156 -0.3395
14774TIP3    H265738   5.299   5.010  14.329  0.1516  0.4971 -1.5340
14775TIP3   OH265739   0.163   1.883   4.755  0.0769 -0.1927  0.1762
14775TIP3    H165740   0.150   1.959   4.699 -0.1679  0.4532  1.0889
14775TIP3    H265741   0.080   1.835   4.750 -0.1675  0.1941  0.4721
14776TIP3   OH265742   0.632   6.589   0.360  0.2252 -0.1599 -0.2762
14776TIP3    H165743   0.661   6.674   0.393 -1.6554  0.8085 -0.9585
14776TIP3    H265744   0.695   6.527   0.395 -0.2338  1.0858  3.0961
14777TIP3   OH265745   2.574   1.103  14.026  0.0234  0.5602 -0.1587
14777TIP3    H165746   2.595   1.175  14.086 -1.3337  1.3120 -0.5494
14777TIP3    H265747   2.487   1.074  14.052  0.7941 -1.4329  0.4151
14778TIP3   OH265748   2.447   4.407   4.691  0.2964 -0.0555 -0.2231
14778TIP3    H165749   2.364   4.439   4.655  0.3522 -1.2555 -1.5274
14778TIP3    H265750   2.445   4.313   4.676  0.9806 -0.4256  1.7131
14779TIP3   OH265751   2.795   1.327  10.533  0.4192 -0.5446 -0.4122
14779TIP3    H165752   2.760   1.254  10.483 -1.8245 -0.4589  0.9043
14779TIP3    H265753   2.804   1.293  10.622 -0.4871  0.7113  0.1796
14780TIP3   OH265754   5.272   6.124  11.038 -0.2781  0.1265  0.1361
14780TIP3    H165755   5.343   6.166  11.087 -0.1760  1.9193 -1.4363
14780TIP3    H265756   5.316   6.053  10.990  0.3267  0.7326 -0.2264
14781TIP3   OH265757   0.761   6.467   0.933  0.6658 -0.3432 -0.0062
14781TIP3    H165758   0.771   6.395   0.994 -0.6779 -1.6035 -1.1907
14781TIP3    H265759   0.799   6.435   0.851  0.4436  0.4570 -0.4322
14782TIP3   OH265760   1.517   2.080   5.059  0.9807  0.0765 -0.1357
14782TIP3    H165761   1.425   2.056   5.045  1.0734 -1.0468  1.0473
14782TIP3    H265762   1.541   2.128   4.980 -0.2851 -0.6503 -1.0018
14783TIP3   OH265763   0.936   3.703  12.166  0.0456  0.2776  0.1157
14783TIP3    H165764   0.875   3.639  12.128  1.1250 -0.9681  0.4200
14783TIP3    H265765   1.004   3.650  12.208  1.9868  1.6104 -1.2015
14784TIP3   OH265766   2.763   5.199  11.972  0.3309 -0.5431 -0.0589
14784TIP3    H165767   2.721   5.283  11.989  0.1818 -0.9657  1.9891
14784TIP3    H265768   2.714   5.161  11.900 -1.3150 -0.0082  0.7299
14785TIP3   OH265769   4.189   6.334  12.140 -0.1868 -0.1541  0.0219
14785TIP3    H165770   4.169   6.425  12.160  0.0135  0.0065 -0.5063
14785TIP3    H265771   4.177   6.288  12.223 -3.1516 -0.1586 -0.2976
14786TIP3   OH265772   2.638   5.740  10.389 -0.2805 -0.7256 -0.1055
14786TIP3    H165773   2.615   5.726  10.297  0.2891 -3.8344  0.1233
14786TIP3    H265774   2.556   5.766  10.431 -1.5829 -3.2570 -0.8435
14787TIP3   OH265775   6.805   4.400   0.582 -0.3120  0.0161  0.5918
14787TIP3    H165776   6.870   4.335   0.608 -0.4717 -0.0814  0.7538
14787TIP3    H265777   6.829   4.424   0.493  0.0794  0.1462  0.7288
14788TIP3   OH265778   5.188   5.179  16.744  0.7211  0.1296 -0.0262
14788TIP3    H165779   5.183   5.151  16.653  3.0872  0.1863 -0.2419
14788TIP3    H265780   5.255   5.248  16.744  1.4110 -0.4850  1.8629
14789TIP3   OH265781   4.094   6.384   2.499  0.2285 -0.2406 -0.2906
14789TIP3    H165782   4.038   6.308   2.512 -0.7939  0.6589  0.9313
14789TIP3    H265783   4.081   6.409   2.408 -0.4119 -0.7916 -0.3539
14790TIP3   OH265784   6.805   6.465  17.106  0.2074 -0.1644 -0.2106
14790TIP3    H165785   6.853   6.501  17.031  1.4891  0.3602  0.8089
14790TIP3    H265786   6.774   6.542  17.153 -0.5172 -0.4891 -0.1484
14791TIP3   OH265787   3.308   6.375  11.612  0.1257 -0.2553 -0.3703
14791TIP3    H165788   3.384   6.352  11.558 -0.2742 -0.7230 -0.7423
14791TIP3    H265789   3.233   6.360  11.555 -0.1772  1.8116 -0.5644
14792TIP3   OH265790   0.013   1.236  17.161 -0.2079  0.2573 -0.0700
14792TIP3    H165791  -0.025   1.275  17.082  0.5259  2.8775  0.7502
14792TIP3    H265792   0.086   1.182  17.128 -0.8162  0.1232 -1.2538
14793TIP3   OH265793   0.002   4.820  11.705  0.2119  0.3102  0.3630
14793TIP3    H165794   0.020   4.741  11.655  3.1958  1.8807 -1.3603
14793TIP3    H265795  -0.085   4.848  11.678 -0.8438 -2.2127  0.9121
14794TIP3   OH265796   3.365   2.202  14.577 -0.3479  0.2853  0.6809
14794TIP3    H165797   3.300   2.258  14.536 -0.7582  0.2781  1.3041
14794TIP3    H265798   3.379   2.241  14.663 -0.7539 -0.6311  1.1817
14795TIP3   OH265799   0.854   2.996   2.830 -0.2593 -0.9203  0.6756
14795TIP3    H165800   0.923   2.940   2.794 -0.3124 -0.5593 -0.0051
14795TIP3    H265801   0.899   3.076   2.856 -0.6589  0.0361 -1.4219
14796TIP3   OH265802   3.069   1.839  12.853 -0.4253  0.6758 -0.9429
14796TIP3    H165803   3.088   1.772  12.788  1.7297  0.4838 -0.1835
14796TIP3    H265804   3.142   1.901  12.846  0.5577  0.0120  2.0496
14797TIP3   OH265805   4.147   0.100   5.808  0.1009 -0.3864  0.1841
14797TIP3    H165806   4.072   0.160   5.801 -1.0309 -1.4649  2.0490
14797TIP3    H265807   4.222   0.157   5.822 -1.0325  0.6911  2.5477
14798TIP3   OH265808   2.430   0.517   6.184  0.1805  0.3422  0.0514
14798TIP3    H165809   2.361   0.462   6.222 -0.4748  0.6489 -0.6710
14798TIP3    H265810   2.394   0.546   6.101  0.9475  1.0179 -0.0528
14799TIP3   OH265811   6.143   5.804  10.963  0.0042  0.2386  0.2955
14799TIP3    H165812   6.190   5.721  10.971 -0.4252  0.0445  0.9839
14799TIP3    H265813   6.184   5.849  10.889 -0.4690 -1.0522 -0.7931
14800TIP3   OH265814   3.013   3.900  15.084  0.1390  0.3896 -0.0374
14800TIP3    H165815   3.087   3.914  15.142  1.3931 -0.4369 -1.3790
14800TIP3    H265816   2.956   3.839  15.131  0.2017  1.1793  1.0799
14801TIP3   OH265817   3.149   1.901   0.824  1.0596  0.1043 -0.0419
14801TIP3    H165818   3.125   1.967   0.759  2.4446 -0.6618 -1.4195
14801TIP3    H265819   3.087   1.830   0.811 -0.9028  1.3435  1.9420
14802TIP3   OH265820   4.747   3.608   4.818  0.3763 -0.0082  0.0265
14802TIP3    H165821   4.702   3.688   4.845  3.2965  0.8429  3.1026
14802TIP3    H265822   4.717   3.541   4.880  0.7868 -0.2892 -0.0689
14803TIP3   OH265823   3.808   6.649   2.428  0.3361  0.1709 -0.2100
14803TIP3    H165824   3.834   6.578   2.368 -2.6106 -1.7540  0.5736
14803TIP3    H265825   3.765   6.713   2.372  0.9911  0.2753 -0.6115
14804TIP3   OH265826   0.338   3.719   2.318  0.3600 -0.6588  0.4134
14804TIP3    H165827   0.267   3.761   2.270  1.4883  0.7702 -0.1063
14804TIP3    H265828   0.316   3.730   2.410 -0.3549 -0.7494  0.2577
14805TIP3   OH265829   6.192   0.308  15.236 -0.0691 -0.4085 -0.2548
14805TIP3    H165830   6.145   0.391  15.250  0.7707  0.0333 -0.0087
14805TIP3    H265831   6.232   0.318  15.149  1.0889 -0.0207  0.3001
14806TIP3   OH265832   3.415   2.481   5.144 -0.3447  0.3182 -0.0571
14806TIP3    H165833   3.382   2.392   5.141 -0.0165  0.2298 -1.4046
14806TIP3    H265834   3.463   2.486   5.227 -1.2612 -0.4133  0.5334
14807TIP3   OH265835   0.623   1.834   0.415  0.2398 -1.0845  0.5444
14807TIP3    H165836   0.645   1.742   0.432 -0.1836 -1.0002  1.6544
14807TIP3    H265837   0.558   1.855   0.482  1.5284  0.4977  1.3574
14808TIP3   OH265838   4.688   5.180  10.009  0.1584  0.4930  0.0906
14808TIP3    H165839   4.671   5.258   9.957  0.4160  1.6482  1.6557
14808TIP3    H265840   4.639   5.110   9.966 -0.7575  1.6976 -0.8709
14809TIP3   OH265841   4.571   5.150   4.684 -0.3613  0.8470  0.1948
14809TIP3    H165842   4.499   5.087   4.685 -0.5991  1.0963  2.1573
14809TIP3    H265843   4.593   5.160   4.592 -0.7200 -1.6618 -0.2299
14810TIP3   OH265844   3.568   4.410   1.054  0.2051  0.3963 -0.1484
14810TIP3    H165845   3.485   4.372   1.025 -0.0115  1.6343 -1.2256
14810TIP3    H265846   3.574   4.387   1.147 -0.0029 -2.0463 -0.6747
14811TIP3   OH265847   6.370   0.381   0.783  0.0093 -0.1897  0.3241
14811TIP3    H165848   6.363   0.374   0.688  1.0807 -0.6382  0.2644
14811TIP3    H265849   6.456   0.344   0.803  1.6792  3.6076  1.0354
14812TIP3   OH265850   4.353   2.888  16.287  0.1949 -0.3189 -0.3539
14812TIP3    H165851   4.282   2.931  16.240 -0.2345 -0.8560 -0.2105
14812TIP3    H265852   4.371   2.809  16.237 -0.1855 -0.8347  0.3100
14813TIP3   OH265853   5.979   1.931   5.535  0.2027  0.1856  0.2559
14813TIP3    H165854   6.074   1.924   5.541  0.4922  1.7633 -1.3262
14813TIP3    H265855   5.958   1.896   5.448 -0.8403 -1.2212  1.0354
14814TIP3   OH265856   6.014   2.680   1.788 -1.1299 -0.8203  0.8104
14814TIP3    H165857   6.077   2.638   1.730 -0.8385  0.3575  0.2462
14814TIP3    H265858   6.063   2.697   1.869 -0.4542  0.7627  0.1162
14815TIP3   OH265859   1.519   3.861  14.792 -0.1233  0.2285  0.2174
14815TIP3    H165860   1.543   3.942  14.836  1.8546 -1.2049  1.9854
14815TIP3    H265861   1.589   3.800  14.815 -2.2192 -2.3854  0.1310
14816TIP3   OH265862   6.349   3.051  12.711  0.3534  0.0561 -0.1604
14816TIP3    H165863   6.299   2.973  12.687 -0.8573  0.3529  1.2051
14816TIP3    H265864   6.316   3.074  12.798  1.9285  1.0818  0.2076
14817TIP3   OH265865   0.164   0.763  15.319  0.0612 -0.3461  0.3560
14817TIP3    H165866   0.176   0.711  15.240  4.4466  1.3699 -0.3915
14817TIP3    H265867   0.087   0.817  15.301  0.3779 -0.6719 -2.3865
14818TIP3   OH265868   3.308   1.534   5.810 -0.4619  0.2172 -0.0221
14818TIP3    H165869   3.285   1.571   5.895 -0.5648  0.1024  0.0007
14818TIP3    H265870   3.251   1.457   5.801  1.9185 -1.8725  1.3681
14819TIP3   OH265871   3.330   5.519   4.828 -0.0934  0.3496  0.4960
14819TIP3    H165872   3.297   5.609   4.828  1.4061  0.9777 -1.8391
14819TIP3    H265873   3.283   5.477   4.756  0.2188 -0.3621  0.7009
14820TIP3   OH265874   3.154   0.807  11.662  0.0597  0.0049  0.0724
14820TIP3    H165875   3.198   0.727  11.691  1.5307  0.7707 -0.0089
14820TIP3    H265876   3.062   0.780  11.652  0.5021 -1.6638  0.0908
14821TIP3   OH265877   3.121   5.402   4.148 -0.2588  0.1481 -0.1101
14821TIP3    H165878   3.039   5.355   4.165 -0.7070  1.3907  1.4263
14821TIP3    H265879   3.181   5.369   4.214  0.1816 -0.0123 -0.5853
14822TIP3   OH265880   3.281   2.198   5.095 -0.1110  0.0222 -0.0575
14822TIP3    H165881   3.367   2.155   5.094 -0.2566 -0.3596  1.2316
14822TIP3    H265882   3.219   2.125   5.098 -0.3826  0.2711  1.3778
14823TIP3   OH265883   5.614   3.304  11.472 -0.2079  0.8402 -0.0304
14823TIP3    H165884   5.576   3.378  11.518  0.8148  1.1632  0.3313
14823TIP3    H265885   5.580   3.310  11.383 -2.0513  0.3280  0.6040
14824TIP3   OH265886   2.627   2.470  16.786  0.2453  0.2955  0.1124
14824TIP3    H165887   2.637   2.375  16.782 -0.2467  0.1571  1.5725
14824TIP3    H265888   2.540   2.484  16.824  0.6204  1.3123  0.6599
14825TIP3   OH265889   1.774   6.278  15.860  0.4581  1.3660  0.1580
14825TIP3    H165890   1.810   6.223  15.930 -0.1536  0.9064  0.1211
14825TIP3    H265891   1.813   6.243  15.780 -0.7186  0.3003  0.0283
14826TIP3   OH265892   5.567   5.393   3.375  0.2603  0.2362 -0.6021
14826TIP3    H165893   5.527   5.448   3.309  0.9333  1.2573 -0.1834
14826TIP3    H265894   5.494   5.363   3.429 -0.0274  1.5102 -0.2511
14827TIP3   OH265895   5.718   6.751  10.937 -0.0639  0.5425  0.2711
14827TIP3    H165896   5.652   6.806  10.894 -0.7987  0.6748  1.5228
14827TIP3    H265897   5.772   6.813  10.987  1.4477  0.5141 -1.2119
14828TIP3   OH265898   0.236   4.168  14.865  0.3324 -0.3447 -0.4810
14828TIP3    H165899   0.174   4.135  14.800  0.2952  0.2887 -0.7722
14828TIP3    H265900   0.278   4.243  14.823 -0.4170  0.6984  0.5719
14829TIP3   OH265901   6.524   4.359  17.112  0.1570 -0.0742 -0.0359
14829TIP3    H165902   6.484   4.274  17.130  2.3019 -0.6501  2.6331
14829TIP3    H265903   6.450   4.420  17.113 -1.1119 -1.5405  0.8214
14830TIP3   OH265904   6.713   5.635   0.838 -0.8198 -0.2288  0.3891
14830TIP3    H165905   6.684   5.556   0.884 -0.8588 -0.4686 -0.0311
14830TIP3    H265906   6.693   5.707   0.897  0.1117 -0.6147  1.2064
14831TIP3   OH265907   0.968   4.194   4.812  0.4877 -0.3679 -0.3376
14831TIP3    H165908   1.010   4.245   4.881  0.9876 -0.4875 -0.5501
14831TIP3    H265909   0.987   4.103   4.835  3.1696 -0.3635 -2.1633
14832TIP3   OH265910   2.010   4.474   5.253 -0.7054  0.2584  0.5427
14832TIP3    H165911   2.030   4.390   5.213  0.0997 -0.3146  2.0670
14832TIP3    H265912   1.916   4.484   5.243 -0.9948 -1.3956  1.3889
14833TIP3   OH265913   1.320   4.701   3.797 -0.0657  0.4446 -0.3869
14833TIP3    H165914   1.266   4.676   3.872  0.8557  0.7906  0.4159
14833TIP3    H265915   1.260   4.747   3.738 -0.3387  2.2711  1.2125
14834TIP3   OH265916   3.041   2.610   2.847  0.0474 -0.1502  0.6667
14834TIP3    H165917   3.118   2.552   2.843 -1.3519 -2.1430  0.9257
14834TIP3    H265918   2.966   2.550   2.846 -1.5278  1.7177  0.4487
14835TIP3   OH265919   0.658   2.203  13.736 -0.5644  0.0163 -0.1572
14835TIP3    H165920   0.614   2.281  13.702  2.0338  2.3592  1.4887
14835TIP3    H265921   0.623   2.192  13.825 -1.5597 -1.3071 -0.6759
14836TIP3   OH265922   4.150   3.385  15.951  0.1977  0.4001  0.1565
14836TIP3    H165923   4.143   3.477  15.977 -2.0280  0.0431  1.0176
14836TIP3    H265924   4.073   3.343  15.990  1.5139 -1.9843  0.3766
14837TIP3   OH265925   1.886   3.375   4.930 -0.4020  0.1990 -0.0920
14837TIP3    H165926   1.976   3.344   4.936 -1.2201 -2.3789 -0.2742
14837TIP3    H265927   1.859   3.356   4.840 -1.9348 -1.5800  0.6822
14838TIP3   OH265928   6.544   1.612   0.988 -0.2093  0.0302 -0.4544
14838TIP3    H165929   6.624   1.619   0.937  0.7123 -1.6671  0.6329
14838TIP3    H265930   6.503   1.532   0.957 -2.4115  1.6977 -2.1317
14839TIP3   OH265931   2.495   6.374  11.840  0.0535 -0.4210  0.3208
14839TIP3    H165932   2.460   6.449  11.792  0.3660 -0.2694  0.3256
14839TIP3    H265933   2.460   6.298  11.794  1.6751 -0.3274 -1.2215
14840TIP3   OH265934   1.209   4.619  10.889 -0.4035  0.2720 -0.3919
14840TIP3    H165935   1.272   4.619  10.962 -1.2674  1.0245  0.3717
14840TIP3    H265936   1.225   4.535  10.845 -0.3271 -0.5444  1.0915
14841TIP3   OH265937   2.275   1.006   0.760 -0.2275  0.9775 -0.6772
14841TIP3    H165938   2.193   1.016   0.810 -0.7085 -0.6817 -1.0886
14841TIP3    H265939   2.344   1.014   0.826 -0.8503 -1.1941  0.3379
14842TIP3   OH265940   0.718   2.316   5.347  0.7204 -0.2905 -0.2439
14842TIP3    H165941   0.687   2.248   5.288  0.8229 -1.0130  0.5150
14842TIP3    H265942   0.793   2.355   5.303  1.3418 -1.4172 -0.2089
14843TIP3   OH265943   5.907   2.552  11.118  0.0654  0.7018  0.7312
14843TIP3    H165944   5.918   2.457  11.108 -0.2141  0.4392  2.6403
14843TIP3    H265945   5.906   2.585  11.028  1.6292 -0.9239  0.0456
14844TIP3   OH265946   6.670   1.964  15.862 -0.2083  0.3416 -0.8182
14844TIP3    H165947   6.632   2.022  15.928 -1.9356 -0.1396 -1.3455
14844TIP3    H265948   6.703   1.889  15.913 -1.9721 -0.2589 -0.4990
14845TIP3   OH265949   1.918   5.045  11.282  0.1061 -0.5437 -0.1522
14845TIP3    H165950   1.928   4.959  11.241 -0.7599 -1.3094  1.1783
14845TIP3    H265951   1.864   5.094  11.220  1.5099 -0.5486 -1.4529
14846TIP3   OH265952   6.203   5.648   3.682 -0.1084  0.2295 -0.4314
14846TIP3    H165953   6.155   5.586   3.627  2.0734 -1.3176 -0.6947
14846TIP3    H265954   6.145   5.724   3.688 -2.3751 -1.3551 -1.0583
14847TIP3   OH265955   1.289   1.439   2.640  0.5024  0.2212  0.3738
14847TIP3    H165956   1.311   1.346   2.649  0.5848  0.3746  1.9606
14847TIP3    H265957   1.346   1.483   2.702 -1.3579  1.0569  1.5627
14848TIP3   OH265958   0.647   1.664   4.788  0.1524 -0.2819  0.0846
14848TIP3    H165959   0.576   1.726   4.805 -0.1356 -0.5971  0.0446
14848TIP3    H265960   0.649   1.608   4.866  1.0253  0.3496  0.5403
14849TIP3   OH265961   4.788   4.812  14.548 -0.0564  0.0040  0.3171
14849TIP3    H165962   4.862   4.789  14.604 -0.6624 -0.3301  1.0018
14849TIP3    H265963   4.749   4.728  14.524 -1.4071  0.2271  1.6240
14850TIP3   OH265964   1.649   6.169  11.639 -0.1174  0.3117 -0.1420
14850TIP3    H165965   1.556   6.148  11.645 -0.2271  0.7680 -0.2047
14850TIP3    H265966   1.655   6.261  11.666  0.5549 -0.2085  1.6073
14851TIP3   OH265967   1.654   1.793   4.410  0.1011 -0.0091 -0.5815
14851TIP3    H165968   1.594   1.855   4.368  0.2670  1.2167  0.8970
14851TIP3    H265969   1.741   1.831   4.398  0.1656  0.3264  0.7203
14852TIP3   OH265970   3.732   4.537  10.224  0.1515  0.3057  0.3450
14852TIP3    H165971   3.803   4.593  10.255 -0.7576  1.6416  0.1005
14852TIP3    H265972   3.711   4.571  10.137 -0.4548 -0.3793  0.2166
14853TIP3   OH265973   0.346   1.527   6.210  0.0590  0.6029  0.2766
14853TIP3    H165974   0.424   1.572   6.242  1.6894 -0.3452 -2.0777
14853TIP3    H265975   0.343   1.446   6.261  0.1775  0.9602  0.8612
14854TIP3   OH265976   0.374   5.209   3.384 -0.0036 -0.4705 -0.1629
14854TIP3    H165977   0.398   5.134   3.330 -0.1505 -0.9570  0.4260
14854TIP3    H265978   0.434   5.279   3.358  0.6030 -1.0078 -0.2281
14855TIP3   OH265979   4.445   0.725  11.185 -0.0007  0.3813 -0.4999
14855TIP3    H165980   4.432   0.651  11.125  2.4379  1.2378 -2.2087
14855TIP3    H265981   4.520   0.772  11.150  0.1753  2.2008  2.0500
14856TIP3   OH265982   0.940   4.397  13.617  0.0601  0.1494 -0.3332
14856TIP3    H165983   0.978   4.475  13.657  0.5724 -1.0198  1.5789
14856TIP3    H265984   1.004   4.370  13.552  1.2931 -0.2815  1.0035
14857TIP3   OH265985   0.744   2.473   5.869 -0.7799 -0.2802  0.3173
14857TIP3    H165986   0.728   2.400   5.930 -1.2568 -0.0224  0.5035
14857TIP3    H265987   0.774   2.544   5.925  1.1078 -0.7619 -0.0274
14858TIP3   OH265988   4.770   0.426  16.734  0.1201 -0.2058  0.2700
14858TIP3    H165989   4.721   0.481  16.673 -1.7711 -1.2224  0.8042
14858TIP3    H265990   4.787   0.482  16.809 -2.3971 -0.4525  1.1078
14859TIP3   OH265991   2.093   1.043   2.487 -0.8830  0.3372 -0.0571
14859TIP3    H165992   2.033   1.105   2.529  0.3315  1.6258 -0.1679
14859TIP3    H265993   2.051   1.022   2.404 -1.2362  1.1371 -0.0928
14860TIP3   OH265994   0.132   2.972  13.446  0.3403  0.2070 -0.2139
14860TIP3    H165995   0.123   2.884  13.483  0.9298 -0.3114 -1.2520
14860TIP3    H265996   0.144   3.029  13.521  0.4783 -0.6774  0.4456
14861TIP3   OH265997   0.953   2.743  15.166 -0.7906  0.1229 -0.0357
14861TIP3    H165998   0.905   2.825  15.158 -0.9280  0.4047  2.8250
14861TIP3    H265999   0.931   2.710  15.253  2.3821 -0.9018  0.5338
14862TIP3   OH266000   1.499   4.463  14.320 -0.2276 -0.1480 -0.6228
14862TIP3    H166001   1.483   4.530  14.254 -3.3515 -0.8270 -0.6887
14862TIP3    H266002   1.585   4.426  14.297 -0.3472  0.9428 -3.0876
14863TIP3   OH266003   0.491   6.394  14.838 -0.6538  0.0364 -0.0475
14863TIP3    H166004   0.524   6.313  14.877 -0.4203  0.7538  1.3147
14863TIP3    H266005   0.551   6.462  14.870  0.1508  0.5690 -2.4791
14864TIP3   OH266006   4.825   1.021   0.298 -0.0557 -0.0834  0.2181
14864TIP3    H166007   4.749   0.979   0.340 -0.6501  1.1072  0.3934
14864TIP3    H266008   4.827   1.109   0.336  1.3779 -0.0606  0.1458
14865TIP3   OH266009   2.601   0.839   2.877 -0.4906 -0.8018 -0.0776
14865TIP3    H166010   2.538   0.909   2.894  1.0592  0.7032 -0.2229
14865TIP3    H266011   2.637   0.817   2.963  0.7221  0.2900 -0.2809
14866TIP3   OH266012   2.069   6.386   3.152 -0.4914  0.0391  0.3536
14866TIP3    H166013   2.153   6.400   3.196  0.5479 -2.6786 -0.5740
14866TIP3    H266014   2.078   6.434   3.069 -2.1058  4.3834  2.3910
14867TIP3   OH266015   3.507   3.181   2.703  0.2845  0.0764 -0.1250
14867TIP3    H166016   3.441   3.213   2.640  0.8614  0.6541 -0.4469
14867TIP3    H266017   3.489   3.087   2.710  1.4172 -0.4329 -2.6869
14868TIP3   OH266018   0.151   3.475   0.675  0.4060 -0.1347 -0.9345
14868TIP3    H166019   0.195   3.468   0.590 -0.4340 -2.2789 -1.2719
14868TIP3    H266020   0.083   3.407   0.672  1.7161 -1.8111  2.2299
14869TIP3   OH266021   2.712   3.929  16.078  0.3414 -0.1883 -0.5558
14869TIP3    H166022   2.752   3.862  16.134  0.2250  0.8955  0.9033
14869TIP3    H266023   2.649   3.973  16.136  1.6819  2.3481 -0.9030
14870TIP3   OH266024   5.143   0.762   3.969 -0.2282  0.1154  0.2835
14870TIP3    H166025   5.168   0.854   3.976  0.5697 -0.0886  0.1474
14870TIP3    H266026   5.080   0.760   3.897  1.0892  0.3057 -0.9277
14871TIP3   OH266027   1.655   0.811   6.446  0.3854  0.3187  0.1293
14871TIP3    H166028   1.667   0.724   6.408 -0.4193 -0.1375  0.8717
14871TIP3    H266029   1.731   0.823   6.503  0.1464 -0.1936  0.5602
14872TIP3   OH266030   0.203   2.307   3.892  0.3115 -0.5060 -0.8032
14872TIP3    H166031   0.234   2.218   3.876 -0.6354 -1.1409  0.7109
14872TIP3    H266032   0.113   2.296   3.923 -0.0430  1.0342 -1.1925
14873TIP3   OH266033   0.532   1.082   4.890  0.6440 -0.4207 -0.3333
14873TIP3    H166034   0.523   1.069   4.984  0.8181 -0.4818 -0.3263
14873TIP3    H266035   0.625   1.102   4.877  0.4104  0.7749 -0.3394
14874TIP3   OH266036   1.692   3.232  13.150  0.4791 -0.4055  0.1708
14874TIP3    H166037   1.630   3.295  13.186  0.5212  0.2904 -0.9462
14874TIP3    H266038   1.765   3.286  13.117  0.3423 -0.9889 -1.1394
14875TIP3   OH266039   0.751   5.417   2.449 -0.3156 -0.3659 -0.1705
14875TIP3    H166040   0.835   5.373   2.462  0.1231  0.7524  0.9682
14875TIP3    H266041   0.774   5.499   2.405 -0.8043 -0.0066  0.2373
14876TIP3   OH266042   1.440   0.415  15.074  0.7378 -0.3968 -0.3522
14876TIP3    H166043   1.520   0.435  15.122  0.4796  0.3470 -0.2208
14876TIP3    H266044   1.431   0.485  15.010  1.2046 -1.5147 -1.6874
14877TIP3   OH266045   4.492   2.334   0.911  0.0799 -0.0679  0.1436
14877TIP3    H166046   4.562   2.364   0.853  0.3485  0.1407  0.5658
14877TIP3    H266047   4.516   2.370   0.997 -2.5119  3.2334 -0.3448
14878TIP3   OH266048   6.338   6.112  17.078 -0.3176 -0.2496  0.2928
14878TIP3    H166049   6.244   6.114  17.060 -0.1811 -1.9831 -0.8480
14878TIP3    H266050   6.368   6.200  17.055 -1.4628 -0.0701 -0.6417
14879TIP3   OH266051   3.582   1.180   4.476  0.0773  0.4581  0.4603
14879TIP3    H166052   3.531   1.179   4.395  0.6960  1.0747  0.0564
14879TIP3    H266053   3.531   1.126   4.536 -0.9995  0.9592  0.0312
14880TIP3   OH266054   1.460   4.698  13.120  0.1765 -0.2394 -0.5414
14880TIP3    H166055   1.504   4.638  13.060  0.1387  0.1909 -1.0168
14880TIP3    H266056   1.420   4.642  13.186  0.1089 -0.7401 -0.9978
14881TIP3   OH266057   2.068   0.730  12.810 -0.0177 -0.4432  0.5013
14881TIP3    H166058   2.026   0.809  12.844  0.6021 -0.0934  0.4649
14881TIP3    H266059   2.131   0.705  12.878 -0.0292 -0.7596  0.3974
14882TIP3   OH266060   5.111   6.557   5.372  0.0509 -0.5019  0.0224
14882TIP3    H166061   5.082   6.525   5.457 -0.0419 -0.3349  0.0536
14882TIP3    H266062   5.030   6.575   5.324  0.0209  2.2962  0.9653
14883TIP3   OH266063   4.690   3.689   3.395 -0.6307  0.5135 -0.3894
14883TIP3    H166064   4.670   3.631   3.322  0.1490 -0.0894 -0.1464
14883TIP3    H266065   4.691   3.777   3.357 -0.4302  0.2254 -1.0649
14884TIP3   OH266066   0.854   4.455   1.524 -0.0691 -0.0588 -0.4226
14884TIP3    H166067   0.933   4.404   1.507  0.8037  1.2666 -0.4953
14884TIP3    H266068   0.884   4.525   1.582 -1.7333 -1.0075  1.7210
14885TIP3   OH266069   1.064   4.227   1.239  0.1211  1.0850 -0.1589
14885TIP3    H166070   0.975   4.192   1.235  0.2659  0.6221  0.4367
14885TIP3    H266071   1.081   4.238   1.332  0.6563  1.2499 -0.2736
14886TIP3   OH266072   4.885   1.479  15.492 -0.2019 -0.1696  0.1234
14886TIP3    H166073   4.894   1.384  15.507 -0.0243  0.0370  1.5226
14886TIP3    H266074   4.812   1.487  15.431 -1.8401 -1.1229  1.8533
14887TIP3   OH266075   5.231   1.299  14.498  0.1624  0.2461  0.2858
14887TIP3    H166076   5.214   1.213  14.536  1.0285  0.4951  1.2788
14887TIP3    H266077   5.234   1.358  14.573  1.5518  0.8200 -0.1984
14888TIP3   OH266078   2.269   5.415  17.044 -0.4008  0.0864 -0.3890
14888TIP3    H166079   2.342   5.354  17.051 -1.1163 -0.6146  2.1223
14888TIP3    H266080   2.191   5.359  17.043 -1.0218  0.8634  0.8804
14889TIP3   OH266081   4.459   2.149  12.864 -0.2718 -0.3028 -0.5126
14889TIP3    H166082   4.467   2.230  12.914  2.4332 -0.3142 -0.7835
14889TIP3    H266083   4.369   2.150  12.831 -1.5459  0.6679  2.6223
14890TIP3   OH266084   4.302   0.392  13.416  0.3057  0.3113 -0.4908
14890TIP3    H166085   4.222   0.342  13.397  0.7360 -0.4067 -0.4237
14890TIP3    H266086   4.343   0.405  13.331  0.9174 -0.6845 -0.3588
14891TIP3   OH266087   3.157   4.811   5.115  0.6316 -0.0299  0.1661
14891TIP3    H166088   3.213   4.770   5.182  1.4504 -0.8388 -0.9760
14891TIP3    H266089   3.147   4.743   5.048 -1.6098  0.1471  0.2471
14892TIP3   OH266090   1.214   6.336  12.248 -0.1666 -0.4748  0.1903
14892TIP3    H166091   1.223   6.431  12.249  1.9195 -0.5853 -1.5125
14892TIP3    H266092   1.276   6.306  12.315 -2.3323 -0.6407  2.2502
14893TIP3   OH266093   6.268   6.469  10.899  0.2721 -0.1734 -0.5187
14893TIP3    H166094   6.178   6.500  10.907  0.0041 -0.4909 -2.0563
14893TIP3    H266095   6.290   6.480  10.807  2.2401  1.0294  0.0254
14894TIP3   OH266096   3.464   2.072  15.333 -0.1489 -0.3194 -0.0567
14894TIP3    H166097   3.541   2.014  15.334  1.2166  1.4212 -0.4481
14894TIP3    H266098   3.427   2.064  15.421  1.3425 -0.0733  0.6085
14895TIP3   OH266099   0.285   2.125  10.309  0.3479 -0.6081  0.2169
14895TIP3    H166100   0.364   2.135  10.255 -1.6191  0.9578 -2.6903
14895TIP3    H266101   0.224   2.077  10.252 -1.7649  0.8364  1.1471
14896TIP3   OH266102   4.034   1.209  12.929 -0.0174  0.9353 -0.0381
14896TIP3    H166103   4.077   1.142  12.982 -0.7449  0.3685 -0.1446
14896TIP3    H266104   4.089   1.217  12.851 -0.1806  0.1060 -0.2477
14897TIP3   OH266105   6.260   0.497  14.369 -0.3778 -0.1827  0.0429
14897TIP3    H166106   6.355   0.499  14.365 -0.2901 -0.9290  1.3930
14897TIP3    H266107   6.237   0.410  14.336 -0.7599  0.7767 -2.4376
14898TIP3   OH266108   4.450   4.903   0.241 -0.0296  0.0845 -0.3273
14898TIP3    H166109   4.398   4.919   0.320  4.5709  1.1032  2.8887
14898TIP3    H266110   4.433   4.979   0.185 -0.3007  1.4869  1.5937
14899TIP3   OH266111   2.274   5.398  15.231 -0.1369  0.1332  0.0909
14899TIP3    H166112   2.333   5.407  15.156  0.3744  0.6158  0.5517
14899TIP3    H266113   2.195   5.359  15.193  0.9543 -1.8252 -0.2917
14900TIP3   OH266114   4.007   0.948   3.531 -0.2911  0.1933 -0.3525
14900TIP3    H166115   4.016   0.899   3.613 -0.3575 -0.1089 -0.5259
14900TIP3    H266116   4.003   0.881   3.463 -3.4189  0.2670 -0.3737
14901TIP3   OH266117   0.440   4.950   4.267  0.3397 -0.5908 -0.2763
14901TIP3    H166118   0.375   4.882   4.288  0.1484 -0.4490 -0.4002
14901TIP3    H266119   0.412   5.026   4.318  1.1024 -0.8842  0.6013
14902TIP3   OH266120   5.308   1.265  14.788 -0.2774  0.4744 -0.0310
14902TIP3    H166121   5.214   1.279  14.774 -0.8015 -1.7445  0.8948
14902TIP3    H266122   5.323   1.292  14.879 -0.6873 -1.8456  0.7890
14903TIP3   OH266123   6.772   3.310  12.753 -0.6622  0.5570 -0.1499
14903TIP3    H166124   6.744   3.386  12.701 -2.5203  1.2661  1.7376
14903TIP3    H266125   6.788   3.241  12.689 -2.2204  1.5785 -1.7202
14904TIP3   OH266126   3.713   2.201  16.534 -0.1530 -0.0017  0.9242
14904TIP3    H166127   3.661   2.278  16.555 -1.0282 -0.0690 -0.7475
14904TIP3    H266128   3.661   2.127  16.566  0.3301  0.0538  1.8591
14905TIP3   OH266129   5.042   3.772  16.359 -0.1280  0.1160  0.0151
14905TIP3    H166130   4.991   3.697  16.329 -0.5481 -2.0302  5.0225
14905TIP3    H266131   5.128   3.761  16.319 -0.9428 -1.5457 -1.3805
14906TIP3   OH266132   4.947   5.494   5.698 -0.5221 -0.4901 -0.5403
14906TIP3    H166133   5.008   5.566   5.713 -3.1787  2.5310 -3.0293
14906TIP3    H266134   5.002   5.422   5.667  2.0925  0.8507  0.6769
14907TIP3   OH266135   1.718   4.620   6.170 -0.4121 -0.1143 -0.2545
14907TIP3    H166136   1.807   4.620   6.205 -0.5350  1.4677  0.1405
14907TIP3    H266137   1.698   4.528   6.154  1.2651 -0.5015 -0.2935
14908TIP3   OH266138   2.005   4.536  15.206  0.1445  0.3381  0.2919
14908TIP3    H166139   2.039   4.570  15.123 -0.9919  0.3843 -0.1670
14908TIP3    H266140   1.948   4.605  15.239 -3.1570 -1.4303 -1.2378
14909TIP3   OH266141   6.204   4.471   0.732  0.3909 -0.2687  0.3641
14909TIP3    H166142   6.213   4.413   0.808  1.0450 -1.2083 -0.3984
14909TIP3    H266143   6.259   4.430   0.665 -0.8189  0.0853 -0.8776
14910TIP3   OH266144   2.124   1.155   1.669 -0.0812 -0.0973  0.0322
14910TIP3    H166145   2.133   1.177   1.576  1.7880  3.0784  0.8311
14910TIP3    H266146   2.075   1.227   1.706 -0.4978 -1.1541  1.6235
14911TIP3   OH266147   5.158   0.818  12.977 -0.0237 -0.3937 -0.5197
14911TIP3    H166148   5.123   0.819  12.888 -0.6028  0.5011 -0.2908
14911TIP3    H266149   5.140   0.729  13.009 -3.0229  0.2708 -0.0679
14912TIP3   OH266150   5.134   1.825   3.890 -0.1112 -0.1511  0.1242
14912TIP3    H166151   5.125   1.732   3.911  1.1317 -0.5088 -0.7626
14912TIP3    H266152   5.114   1.830   3.796  0.6162  0.3365 -0.0134
14913TIP3   OH266153   3.415   5.077  16.734  0.3008  0.3295  0.3973
14913TIP3    H166154   3.443   4.986  16.730  0.1022  0.1251  2.5819
14913TIP3    H266155   3.329   5.075  16.777 -0.0202  1.5000 -0.1308
14914TIP3   OH266156   5.095   5.352  17.159  0.0770 -0.4111  0.3026
14914TIP3    H166157   5.123   5.262  17.139  0.6906 -0.1892  0.1412
14914TIP3    H266158   5.133   5.371  17.244  0.9658  0.1098 -0.1921
14915TIP3   OH266159   3.739   6.173   0.301  0.1360  0.4870  0.2405
14915TIP3    H166160   3.778   6.225   0.231  1.0206  1.7086  1.5899
14915TIP3    H266161   3.644   6.186   0.291  0.1444 -0.4843 -1.5274
14916TIP3   OH266162   1.885   0.116   4.060 -0.1262 -0.1248  0.3919
14916TIP3    H166163   1.837   0.193   4.090 -0.1843  0.0982 -0.2458
14916TIP3    H266164   1.967   0.117   4.108  0.2166  0.7882 -0.1921
14917TIP3   OH266165   2.423   5.987   0.486 -0.3970 -0.3234 -0.4170
14917TIP3    H166166   2.464   6.033   0.413 -2.1041  1.6038 -0.2785
14917TIP3    H266167   2.474   6.014   0.563 -1.2328  1.2628 -0.3717
14918TIP3   OH266168   0.185   3.057   4.268  0.2207  0.4241  0.3572
14918TIP3    H166169   0.221   3.120   4.205  1.5784  0.4893  1.1634
14918TIP3    H266170   0.238   2.979   4.258 -2.5836 -1.4006 -1.9353
14919TIP3   OH266171   4.776   0.451   3.620  0.1113 -0.7754  0.2495
14919TIP3    H166172   4.801   0.455   3.713 -0.7439  0.8143  0.4510
14919TIP3    H266173   4.845   0.501   3.576 -0.2409 -0.2985  0.2290
14920TIP3   OH266174   2.394   5.191   4.828 -0.1193 -0.2096  0.4930
14920TIP3    H166175   2.478   5.187   4.783  1.2141  2.0566  2.5039
14920TIP3    H266176   2.415   5.177   4.921 -2.0703 -0.3492  0.9697
14921TIP3   OH266177   5.382   6.026   5.468 -0.4996  0.7639 -0.2289
14921TIP3    H166178   5.366   6.117   5.445  1.5588  1.1813 -0.2017
14921TIP3    H266179   5.391   6.026   5.563  1.0073  0.8403 -0.3456
14922TIP3   OH266180   5.519   6.159  11.473 -0.3313 -0.3750 -0.0605
14922TIP3    H166181   5.527   6.065  11.456 -0.5664 -0.3346 -0.4066
14922TIP3    H266182   5.488   6.164  11.563  1.5994 -0.5736  0.6597
14923TIP3   OH266183   4.895   4.525  12.197 -0.1047  0.2824  0.1645
14923TIP3    H166184   4.887   4.517  12.292  2.8072 -3.0534  0.3740
14923TIP3    H266185   4.983   4.561  12.183 -1.1750  2.5693 -1.3890
14924TIP3   OH266186   2.906   0.358   2.772 -0.2921 -0.0186  0.6427
14924TIP3    H166187   2.988   0.327   2.732 -0.3623  0.0874  0.4167
14924TIP3    H266188   2.848   0.373   2.698  0.2983  2.3693  0.5903
14925TIP3   OH266189   1.409   5.532  14.476 -0.3772  0.1336  0.2312
14925TIP3    H166190   1.336   5.539  14.538 -0.1590  1.3670  0.3708
14925TIP3    H266191   1.448   5.446  14.495 -1.9911 -0.7087 -0.0879
14926TIP3   OH266192   4.440   3.107  16.446  0.4221 -0.7266  0.0131
14926TIP3    H166193   4.479   3.163  16.379  1.5125 -0.3168  0.9649
14926TIP3    H266194   4.424   3.024  16.401 -0.4151  0.0568 -1.1872
14927TIP3   OH266195   2.260   0.479   2.137 -0.0126 -0.6921  0.6024
14927TIP3    H166196   2.297   0.501   2.222  1.8781 -3.0871  0.5043
14927TIP3    H266197   2.165   0.475   2.152  0.2261 -0.2087  2.3683
14928TIP3   OH266198   6.330   2.931  15.563 -0.3907 -0.1300  0.3675
14928TIP3    H166199   6.419   2.914  15.594  0.2692  1.6473 -0.3952
14928TIP3    H266200   6.274   2.885  15.625  1.0545 -2.2325  0.2446
14929TIP3   OH266201   4.924   3.705   2.690 -0.2686 -0.0944 -0.1441
14929TIP3    H166202   4.847   3.748   2.726  0.2970  0.8924 -0.0596
14929TIP3    H266203   4.922   3.616   2.725 -0.3504  0.4845  1.3799
14930TIP3   OH266204   5.265   6.122  15.766 -0.3501 -0.4535 -0.4213
14930TIP3    H166205   5.264   6.215  15.789 -1.0342 -0.4967 -0.2608
14930TIP3    H266206   5.350   6.090  15.796  0.2062  0.2867 -1.1680
14931TIP3   OH266207   0.484   3.549  15.508  0.1655  0.0746 -0.1482
14931TIP3    H166208   0.522   3.469  15.545 -3.1830 -2.4950 -1.7461
14931TIP3    H266209   0.531   3.563  15.426 -0.0869 -1.0934 -0.5105
14932TIP3   OH266210   6.665   0.088   1.223 -0.2094 -0.6445 -0.4977
14932TIP3    H166211   6.733   0.031   1.187  0.0424 -0.3584 -0.4753
14932TIP3    H266212   6.588   0.069   1.169 -0.9961 -3.1622  1.3211
14933TIP3   OH266213   5.518   3.071  16.629 -0.0570 -0.1351 -0.5022
14933TIP3    H166214   5.471   3.155  16.635 -0.4669 -0.1640 -2.6891
14933TIP3    H266215   5.609   3.093  16.648 -0.2022  0.7747 -0.8045
14934TIP3   OH266216   3.313   5.074  12.519 -0.2997 -0.6194  0.0517
14934TIP3    H166217   3.316   5.033  12.433  4.9135 -3.8322  1.3241
14934TIP3    H266218   3.376   5.147  12.513 -1.4664  0.4891  0.6944
14935TIP3   OH266219   2.621   4.259  12.072  0.4595 -0.2313 -0.1557
14935TIP3    H166220   2.687   4.191  12.074  1.9041  1.1208  0.2220
14935TIP3    H266221   2.666   4.335  12.036 -1.3540  0.2911 -1.4490
14936TIP3   OH266222   5.944   3.578   2.949 -0.1036 -0.0633 -0.1415
14936TIP3    H166223   5.914   3.657   2.994  1.8104  1.1906 -0.8964
14936TIP3    H266224   5.908   3.585   2.861 -1.3603 -0.9630  0.2770
14937TIP3   OH266225   6.227   1.786   6.262 -0.7422 -0.3066 -0.0631
14937TIP3    H166226   6.195   1.814   6.176 -0.0144  1.9169  0.3251
14937TIP3    H266227   6.148   1.775   6.314 -1.1257 -0.0597 -0.5788
14938TIP3   OH266228   1.043   3.821  14.404  0.7450 -0.6163  0.6514
14938TIP3    H166229   1.045   3.885  14.474  1.2280 -1.0991  1.0917
14938TIP3    H266230   1.124   3.770  14.415  0.6072 -0.9947  0.0282
14939TIP3   OH266231   4.410   3.433   3.380  0.3819 -0.5821  1.0364
14939TIP3    H166232   4.331   3.446   3.433  1.5592  0.6462  2.5734
14939TIP3    H266233   4.482   3.458   3.437  2.0032 -2.6010  0.0140
14940TIP3   OH266234   6.779   1.193   0.574 -0.8453  0.3193  0.1428
14940TIP3    H166235   6.712   1.142   0.527  1.0899 -2.2442 -0.0605
14940TIP3    H266236   6.738   1.213   0.658 -1.6536 -1.9761  0.3973
14941TIP3   OH266237   0.478   1.683  11.473  0.0048  1.0505  0.1467
14941TIP3    H166238   0.512   1.593  11.470  0.1288  1.1046 -0.0486
14941TIP3    H266239   0.519   1.722  11.550 -1.0198  0.5438  0.9796
14942TIP3   OH266240   1.136   4.639  15.282  0.2993  0.0010  0.0652
14942TIP3    H166241   1.211   4.677  15.329 -1.1680  1.0727  1.6500
14942TIP3    H266242   1.126   4.694  15.204 -1.1089  2.3388  1.7683
14943TIP3   OH266243   0.495   4.112  10.911 -0.1490  0.0848  0.4861
14943TIP3    H166244   0.455   4.139  10.828 -0.5388 -0.4650  0.4919
14943TIP3    H266245   0.423   4.076  10.961  0.0883  0.4180  1.0706
14944TIP3   OH266246   4.932   3.839   5.633  0.2615  0.5415 -0.0844
14944TIP3    H166247   4.853   3.784   5.637 -0.9969  2.3031  0.8114
14944TIP3    H266248   5.003   3.778   5.615 -1.5197 -0.9353 -2.8666
14945TIP3   OH266249   6.472   0.052  16.219 -0.0116  0.5559 -0.1602
14945TIP3    H166250   6.474   0.034  16.125  1.4212  1.9928 -0.4442
14945TIP3    H266251   6.558   0.088  16.238  0.4015 -1.4066  2.0951
14946TIP3   OH266252   0.619   2.394  11.721 -0.6683 -0.9385  0.3435
14946TIP3    H166253   0.633   2.323  11.782 -1.6356 -1.7915 -0.3850
14946TIP3    H266254   0.679   2.463  11.749  0.8889 -2.3347  0.5757
14947TIP3   OH266255   1.162   1.438  14.832 -0.0376 -0.4252  0.4519
14947TIP3    H166256   1.097   1.442  14.901  0.1047  1.1913  0.5210
14947TIP3    H266257   1.117   1.472  14.754  0.5353  0.1460  0.3634
14948TIP3   OH266258   3.244   1.176   1.941 -0.3019  0.4867  0.3439
14948TIP3    H166259   3.193   1.101   1.972  0.2634  1.1964  3.3286
14948TIP3    H266260   3.323   1.176   1.995  0.4614  2.3150 -0.6634
14949TIP3   OH266261   4.005   5.506  11.380  0.0291 -0.0691 -0.4591
14949TIP3    H166262   4.029   5.597  11.361  1.1806 -0.3717 -0.5455
14949TIP3    H266263   4.007   5.500  11.476  0.5171 -0.1355 -0.4693
14950TIP3   OH266264   2.223   3.559  10.971 -0.6832  0.1262  0.4128
14950TIP3    H166265   2.269   3.594  10.895 -0.2455 -0.2013  0.5188
14950TIP3    H266266   2.151   3.508  10.935 -0.5700  0.1034  0.2206
14951TIP3   OH266267   3.896   4.090   2.595  0.4465  0.2080 -0.3018
14951TIP3    H166268   3.865   4.032   2.526  1.0566  0.8116 -1.0976
14951TIP3    H266269   3.932   4.031   2.662 -0.3529 -0.3892 -0.3781
14952TIP3   OH266270   2.744   2.359  15.982 -0.6342 -0.0773 -0.0075
14952TIP3    H166271   2.702   2.388  15.901 -0.1279  1.1167  0.1360
14952TIP3    H266272   2.676   2.308  16.026 -1.7678  1.3039 -0.0515
14953TIP3   OH266273   2.291   1.184  13.965 -0.2682 -0.2361 -0.4623
14953TIP3    H166274   2.315   1.244  14.036  0.8420 -0.5958 -0.5141
14953TIP3    H266275   2.202   1.156  13.986 -0.0184 -0.1954  0.6839
14954TIP3   OH266276   5.892   2.793   2.692 -0.3600 -0.6173 -0.0091
14954TIP3    H166277   5.919   2.701   2.692 -0.5621 -0.7538 -2.8150
14954TIP3    H266278   5.974   2.842   2.704 -0.3955 -1.0878  2.7690
14955TIP3   OH266279   0.936   6.762  16.177  0.5913 -0.3276  0.3872
14955TIP3    H166280   0.945   6.854  16.203 -1.3541 -0.1212  0.4547
14955TIP3    H266281   0.997   6.752  16.104  0.4211  1.1755  0.0078
14956TIP3   OH266282   4.652   6.186   0.313  0.3258 -0.3134  0.3406
14956TIP3    H166283   4.744   6.170   0.295  0.2372  0.6688 -1.0538
14956TIP3    H266284   4.644   6.176   0.408  1.5009 -2.1585  0.2872
14957TIP3   OH266285   4.671   4.038  14.679  0.3039 -0.1076 -0.3237
14957TIP3    H166286   4.742   4.093  14.711  1.4951 -0.5340 -2.1293
14957TIP3    H266287   4.592   4.090  14.696  0.7030 -0.3899  3.4673
14958TIP3   OH266288   3.635   2.868   4.676  0.2252 -0.1591 -0.4229
14958TIP3    H166289   3.562   2.924   4.649  1.5075  1.8388  0.0696
14958TIP3    H266290   3.622   2.787   4.626 -0.8847  1.0927 -2.3036
14959TIP3   OH266291   3.147   1.458  11.649  0.0274  0.1864 -0.2036
14959TIP3    H166292   3.163   1.397  11.721 -0.1107  0.8447  0.3874
14959TIP3    H266293   3.067   1.504  11.674  0.8190  1.5147 -0.0247
14960TIP3   OH266294   6.243   2.859   3.758 -0.3378  0.2256  0.3708
14960TIP3    H166295   6.281   2.879   3.844  0.0931  0.1244  0.2053
14960TIP3    H266296   6.313   2.814   3.711 -0.9067 -0.6439  0.3333
14961TIP3   OH266297   6.453   6.361   1.771  0.3273 -0.1031  0.1012
14961TIP3    H166298   6.532   6.412   1.756  0.4401 -0.6084 -1.1452
14961TIP3    H266299   6.440   6.311   1.690 -0.9388 -0.4755  0.4993
14962TIP3   OH266300   6.134   5.993   2.855  0.2372 -0.0426  0.1269
14962TIP3    H166301   6.208   5.981   2.796 -2.2416  0.5093 -3.3645
14962TIP3    H266302   6.126   5.908   2.899  2.1565 -0.4837 -0.2579
14963TIP3   OH266303   2.638   1.587   2.114  0.2491  0.1584 -1.1380
14963TIP3    H166304   2.672   1.508   2.073 -0.4455 -0.3645 -0.7307
14963TIP3    H266305   2.550   1.598   2.076 -0.6285 -0.6478  0.5835
14964TIP3   OH266306   0.744   4.570  16.965 -0.7601  0.4278  0.4706
14964TIP3    H166307   0.776   4.480  16.959  0.0565  0.8052 -1.8763
14964TIP3    H266308   0.815   4.617  17.009 -0.5872  0.1805  0.4593
14965TIP3   OH266309   6.592   4.786  12.669  0.0374 -0.0975 -0.3789
14965TIP3    H166310   6.642   4.744  12.598 -0.0326  0.3546 -0.7011
14965TIP3    H266311   6.507   4.742  12.667 -0.0710  0.1191 -0.7845
14966TIP3   OH266312   4.213   0.779   4.852 -0.2801 -0.0086  0.3707
14966TIP3    H166313   4.250   0.801   4.938  1.7280 -0.1762 -0.3942
14966TIP3    H266314   4.224   0.684   4.845 -0.8149 -0.0527  0.0830
14967TIP3   OH266315   1.715   1.044  15.595 -0.4343 -0.0064  0.0369
14967TIP3    H166316   1.700   0.957  15.633  0.5828  0.4106  1.4682
14967TIP3    H266317   1.679   1.105  15.659  0.7588  0.6980  0.0703
14968TIP3   OH266318   5.699   6.671   4.116  0.0782 -0.2154 -0.2471
14968TIP3    H166319   5.756   6.607   4.074  1.9597  0.0745  1.7112
14968TIP3    H266320   5.666   6.626   4.194 -0.4777  0.4171 -0.1073
14969TIP3   OH266321   6.533   5.463  16.304 -0.2765  0.4859 -0.0042
14969TIP3    H166322   6.592   5.536  16.328 -1.8106  2.3747 -1.6142
14969TIP3    H266323   6.584   5.411  16.241  0.6107  0.5220  0.6620
14970TIP3   OH266324   3.926   4.041  10.884 -0.4783  0.6336  0.1763
14970TIP3    H166325   3.916   4.080  10.797 -0.1727  0.7108  0.1738
14970TIP3    H266326   3.916   4.115  10.944  0.0975  0.7216  0.1722
14971TIP3   OH266327   1.019   3.158  11.752  0.1623 -0.4892 -0.3779
14971TIP3    H166328   1.042   3.233  11.807 -1.1622 -0.0338 -0.3966
14971TIP3    H266329   0.960   3.195  11.685  3.5002 -0.5036 -3.6780
14972TIP3   OH266330   6.801   1.155  13.767  0.4628 -0.0695 -0.0597
14972TIP3    H166331   6.790   1.117  13.679  0.3477 -1.3100  0.4758
14972TIP3    H266332   6.735   1.224  13.771  0.5558  0.0937 -0.9923
14973TIP3   OH266333   3.573   0.501  13.453 -0.3491 -0.4836 -0.0836
14973TIP3    H166334   3.598   0.579  13.403 -1.6149 -1.0757 -1.7173
14973TIP3    H266335   3.574   0.530  13.545 -0.0368  1.2282 -0.6004
14974TIP3   OH266336   6.089   0.619   2.935 -0.7656  0.3549 -0.0106
14974TIP3    H166337   6.054   0.539   2.895 -0.0301  0.0770 -0.1048
14974TIP3    H266338   6.060   0.690   2.878 -0.0127 -0.0046 -0.8497
14975TIP3   OH266339   4.871   3.977   1.937 -0.3200  0.0886 -0.7154
14975TIP3    H166340   4.966   3.987   1.942 -0.0642 -0.8760 -2.8108
14975TIP3    H266341   4.838   4.040   2.001  1.6304  2.8200 -2.1745
14976TIP3   OH266342   3.795   1.576   1.391  0.0643 -0.0110  0.6027
14976TIP3    H166343   3.822   1.549   1.304  0.8790  1.5624  0.3363
14976TIP3    H266344   3.859   1.537   1.450  1.3781  1.4533  0.2036
14977TIP3   OH266345   5.610   0.235  11.782 -0.0312  0.3851 -0.2488
14977TIP3    H166346   5.698   0.199  11.774 -0.2402  0.1306 -1.5986
14977TIP3    H266347   5.618   0.303  11.849  0.4804 -1.7015  1.9565
14978TIP3   OH266348   1.914   5.735   3.316 -0.0532  0.4977  0.4798
14978TIP3    H166349   1.895   5.649   3.278  0.6950  1.3552 -2.0647
14978TIP3    H266350   1.831   5.764   3.353 -0.5764 -0.8866  0.4360
14979TIP3   OH266351   2.259   4.266  13.820  0.4348  0.5118 -0.4321
14979TIP3    H166352   2.295   4.253  13.908 -0.3729  0.1046 -0.1479
14979TIP3    H266353   2.317   4.331  13.780 -0.1243  1.9406  0.9681
14980TIP3   OH266354   4.322   0.763  16.857  0.2207 -0.1630  0.3433
14980TIP3    H166355   4.282   0.801  16.935 -0.1436 -1.2023  0.6800
14980TIP3    H266356   4.396   0.820  16.837 -0.7520  1.1732  0.3689
14981TIP3   OH266357   4.509   2.315   6.477 -0.0619 -0.7497 -0.0730
14981TIP3    H166358   4.604   2.315   6.474 -0.0519  0.6833 -1.9368
14981TIP3    H266359   4.483   2.226   6.454  0.8333 -1.0977  0.2623
14982TIP3   OH266360   0.985   1.790  10.572  0.0141 -0.0107 -0.4344
14982TIP3    H166361   1.062   1.733  10.572 -0.6377 -0.9410 -1.7701
14982TIP3    H266362   1.019   1.878  10.557  1.2138  0.3292  3.1633
14983TIP3   OH266363   0.916   0.014   3.726 -0.4040  0.2153 -0.3262
14983TIP3    H166364   0.979  -0.021   3.788 -0.9323 -1.8628 -0.8820
14983TIP3    H266365   0.900   0.104   3.755  2.3992  0.6381  0.1044
14984TIP3   OH266366   1.821   3.577  16.114 -0.0836 -0.3637  0.2245
14984TIP3    H166367   1.765   3.528  16.174  1.1610 -1.5734  0.4493
14984TIP3    H266368   1.900   3.596  16.164  0.2032  0.2739 -0.4478
14985TIP3   OH266369   6.402   1.936   2.186  0.5384  0.0833  0.1103
14985TIP3    H166370   6.395   2.022   2.228 -1.6084 -0.3635  0.7893
14985TIP3    H266371   6.373   1.950   2.097 -0.8582 -0.1157  0.5188
14986TIP3   OH266372   0.137   0.481  15.504 -0.4447 -0.4659  0.3588
14986TIP3    H166373   0.140   0.577  15.495  0.0467 -0.6502 -2.1975
14986TIP3    H266374   0.048   0.458  15.477 -0.2916 -0.7750  0.1125
14987TIP3   OH266375   1.469   5.413  15.544  0.2739  0.0185 -0.1318
14987TIP3    H166376   1.481   5.501  15.508  0.3488 -0.3212 -0.9676
14987TIP3    H266377   1.548   5.366  15.519  0.0540 -0.4047 -0.0358
14988TIP3   OH266378   3.396   1.683   5.321  0.6148  0.3295 -0.5362
14988TIP3    H166379   3.429   1.772   5.333  0.0883  0.3352  1.1790
14988TIP3    H266380   3.370   1.655   5.409  1.2428 -1.7205 -0.9403
14989TIP3   OH266381   2.164   5.186  15.402  0.2290 -0.1584 -0.6232
14989TIP3    H166382   2.089   5.223  15.450 -0.4784 -1.4789 -0.6402
14989TIP3    H266383   2.223   5.260  15.388 -2.1196  1.4798 -2.6572
14990TIP3   OH266384   3.277   1.701   1.860 -0.0213  0.0401 -0.5125
14990TIP3    H166385   3.250   1.653   1.781 -0.9920 -1.4548  0.6732
14990TIP3    H266386   3.340   1.644   1.903  1.5480  1.4426 -0.8230
14991TIP3   OH266387   2.179   1.972   4.425 -0.0848  0.4689 -0.0581
14991TIP3    H166388   2.136   1.900   4.378 -1.4089  1.8068 -0.9857
14991TIP3    H266389   2.258   1.932   4.461 -2.3491 -2.3597  2.3914
14992TIP3   OH266390   5.136   4.587  13.597  0.0994 -0.5637  0.1027
14992TIP3    H166391   5.161   4.674  13.568 -0.8999 -1.1110 -2.8703
14992TIP3    H266392   5.217   4.547  13.628  0.4930  1.4857  1.9724
14993TIP3   OH266393   6.656   2.036  14.729  0.3586 -0.6901 -0.3237
14993TIP3    H166394   6.741   2.063  14.694 -0.1750  0.2169 -0.9777
14993TIP3    H266395   6.644   1.947  14.695 -0.5237  0.4523 -3.3358
14994TIP3   OH266396   0.086   3.446   2.971  0.3788 -0.7787 -0.4060
14994TIP3    H166397   0.154   3.486   3.025 -0.1433 -0.0628 -0.2734
14994TIP3    H266398   0.068   3.362   3.013 -0.4969  0.0444  0.9420
14995TIP3   OH266399   2.039   1.267  11.614 -0.0523  0.9406 -0.0595
14995TIP3    H166400   2.052   1.354  11.651  0.4827  1.8351 -2.1737
14995TIP3    H266401   1.947   1.265  11.589 -0.1581  0.7522  0.3486
14996TIP3   OH266402   4.518   5.203  16.770 -0.2191 -0.5524  0.2241
14996TIP3    H166403   4.559   5.232  16.688  0.6130 -1.6254  0.2395
14996TIP3    H266404   4.445   5.149  16.742 -0.3637 -0.3407  0.1932
14997TIP3   OH266405   6.706   3.606   2.816  0.2388  0.0867 -0.7377
14997TIP3    H166406   6.762   3.564   2.881 -1.4021 -1.5873 -0.3312
14997TIP3    H266407   6.617   3.578   2.839 -0.3596 -1.3090 -4.1723
14998TIP3   OH266408   6.110   1.628  14.590 -0.2506  0.1555  0.1771
14998TIP3    H166409   6.186   1.621  14.648 -1.0486 -1.9461  1.0534
14998TIP3    H266410   6.147   1.656  14.506  1.3696  0.0449  0.8194
14999TIP3   OH266411   5.860   5.146  11.077 -0.7345  0.3869 -0.0432
14999TIP3    H166412   5.866   5.087  11.002 -1.4029 -0.4646  0.5474
14999TIP3    H266413   5.950   5.154  11.109 -0.5281  0.3159 -0.6007
15000TIP3   OH266414   1.873   2.054   0.520  0.2377 -0.0495 -0.0290
15000TIP3    H166415   1.926   1.977   0.538 -0.0216 -0.2230 -0.0225
15000TIP3    H266416   1.857   2.051   0.425 -1.3480 -1.0088  0.2422
15001TIP3   OH266417   1.055   5.922   3.640  0.1380  0.3720 -0.1925
15001TIP3    H166418   0.995   5.861   3.684 -2.2300  2.4707 -0.2867
15001TIP3    H266419   1.097   5.869   3.572  0.9292 -1.9770  1.9582
15002TIP3   OH266420   3.748   0.328   3.507  0.2263 -0.4023  0.3685
15002TIP3    H166421   3.710   0.343   3.420  0.8065 -1.6870 -0.1244
15002TIP3    H266422   3.840   0.354   3.498 -0.1054  1.1550  1.1155
15003TIP3   OH266423   4.970   5.163  12.293  0.2449 -0.1686 -0.3013
15003TIP3    H166424   4.939   5.074  12.280 -1.1027  0.1241  0.6929
15003TIP3    H266425   5.029   5.157  12.368 -1.0621 -0.0053  0.7733
15004TIP3   OH266426   2.454   4.476  10.159  0.4026 -0.0856 -0.1901
15004TIP3    H166427   2.451   4.569  10.135 -0.0587 -0.6729 -2.7369
15004TIP3    H266428   2.537   4.466  10.206  0.1834  1.7037  0.6684
15005TIP3   OH266429   4.785   3.189  14.388  0.5392 -0.1695 -0.3040
15005TIP3    H166430   4.764   3.250  14.458  2.7409 -0.1047  0.3774
15005TIP3    H266431   4.779   3.241  14.308 -2.7964 -0.4450 -0.3495
15006TIP3   OH266432   5.604   0.974  15.820 -0.1610 -0.8432  0.0181
15006TIP3    H166433   5.646   1.014  15.744  0.8524 -0.2673  0.8337
15006TIP3    H266434   5.612   1.041  15.889 -0.5829 -1.5401  0.7644
15007TIP3   OH266435   2.402   6.070  11.821  0.2388 -0.3626  0.6131
15007TIP3    H166436   2.347   6.000  11.788  0.6028 -0.2345 -0.2798
15007TIP3    H266437   2.369   6.087  11.909 -2.3731  0.9719 -0.5240
15008TIP3   OH266438   0.853   5.269  15.866 -0.5861  0.1256  0.3060
15008TIP3    H166439   0.846   5.178  15.894 -0.3787  0.1095  0.3059
15008TIP3    H266440   0.831   5.267  15.773 -0.2195  0.0206  0.2202
15009TIP3   OH266441   4.023   0.884   4.319  0.2129  0.5359 -0.4046
15009TIP3    H166442   4.107   0.905   4.360  1.4587  0.7852 -2.8676
15009TIP3    H266443   3.957   0.921   4.378  1.7420 -0.4809  2.0698
15010TIP3   OH266444   5.828   4.379   5.017 -0.1451 -0.0976 -0.0016
15010TIP3    H166445   5.862   4.295   4.986 -0.6453 -0.4033  0.2584
15010TIP3    H266446   5.762   4.355   5.082 -2.5584  0.3520 -2.1100
15011TIP3   OH266447   3.065   4.763  11.159  0.5931 -0.2574  0.3434
15011TIP3    H166448   3.100   4.712  11.086  0.4095  1.7017 -1.1881
15011TIP3    H266449   3.141   4.783  11.213  1.2830  0.7482 -0.9262
15012TIP3   OH266450   3.875   6.503  15.534  0.2359 -0.2265 -0.0805
15012TIP3    H166451   3.807   6.549  15.484 -1.5791 -1.6343  0.9670
15012TIP3    H266452   3.848   6.512  15.625  2.0514  0.0279  0.4588
15013TIP3   OH266453   5.830   1.908   1.029 -0.4474  0.1157 -0.0303
15013TIP3    H166454   5.885   1.986   1.032 -0.5164  0.2403 -1.2578
15013TIP3    H266455   5.848   1.870   0.943 -0.0591 -1.4944  0.7254
15014TIP3   OH266456   1.355   3.816  13.494 -0.0573  0.2659  0.2163
15014TIP3    H166457   1.434   3.870  13.485  1.3338 -1.6545  0.2978
15014TIP3    H266458   1.378   3.753  13.563 -0.3448 -2.4730 -2.0539
15015TIP3   OH266459   1.153   4.976  16.572  0.9355  0.2245 -0.5236
15015TIP3    H166460   1.080   5.032  16.547 -0.3136 -0.8698  0.5324
15015TIP3    H266461   1.219   5.036  16.607 -0.1105  1.0917 -0.0053
15016TIP3   OH266462   6.694   5.267  11.784  0.7261 -0.4188 -0.3255
15016TIP3    H166463   6.652   5.306  11.861  1.2916  0.0808 -0.2588
15016TIP3    H266464   6.779   5.236  11.817  1.4376  0.7893 -0.9765
15017TIP3   OH266465   1.010   2.791   5.739 -0.2088 -0.2419 -0.5191
15017TIP3    H166466   0.983   2.843   5.664  0.5252 -0.4889 -0.9659
15017TIP3    H266467   0.952   2.819   5.810  0.7302  1.8300 -0.4979
15018TIP3   OH266468   5.025   0.441   1.643 -0.4806  0.0638 -0.2557
15018TIP3    H166469   4.958   0.483   1.589 -0.5533 -0.0481 -0.2518
15018TIP3    H266470   4.987   0.358   1.670 -0.7230  0.4260  0.5558
15019TIP3   OH266471   5.353   2.130  14.893 -0.0971 -0.4723  0.0538
15019TIP3    H166472   5.265   2.165  14.911  0.4903  0.3787  1.3888
15019TIP3    H266473   5.340   2.071  14.819 -1.1302  2.6535 -2.4835
15020TIP3   OH266474   4.039   0.159  15.205 -0.1187  0.0918  0.3341
15020TIP3    H166475   4.124   0.183  15.242 -0.3142  3.3467 -1.0379
15020TIP3    H266476   3.997   0.242  15.183 -3.6712 -1.3757  0.8250
15021TIP3   OH266477   0.411   3.594  16.868 -0.8524  0.6894  0.3103
15021TIP3    H166478   0.409   3.683  16.904 -1.1679  0.2735  1.3602
15021TIP3    H266479   0.319   3.571  16.857 -0.8821 -0.2759  2.0924
15022TIP3   OH266480   4.818   2.478  12.579  0.8681 -0.5757 -0.4358
15022TIP3    H166481   4.764   2.414  12.624 -0.1822  0.5722 -0.0364
15022TIP3    H266482   4.907   2.442  12.584  0.6499 -0.9332  1.7306
15023TIP3   OH266483   3.523   4.518  16.128 -0.2289  0.4125  0.9530
15023TIP3    H166484   3.493   4.447  16.070 -0.0284  1.5900 -0.6659
15023TIP3    H266485   3.593   4.478  16.180  1.0901 -0.2004 -1.1375
15024TIP3   OH266486   6.474   6.448  14.798 -0.0328  0.4565  0.4358
15024TIP3    H166487   6.449   6.412  14.712  0.8161 -0.7788  0.6800
15024TIP3    H266488   6.445   6.539  14.795 -0.9485  0.1536 -0.7722
15025TIP3   OH266489   1.974   0.983  15.940  0.0891  0.6576 -0.0911
15025TIP3    H166490   1.912   0.931  15.890  1.0200  0.7902 -1.4438
15025TIP3    H266491   2.022   1.033  15.874  0.8239  1.4476  0.9999
15026TIP3   OH266492   2.369   4.838  12.580 -0.0554  0.4995  0.1170
15026TIP3    H166493   2.400   4.819  12.669 -2.1911  1.7948  1.2372
15026TIP3    H266494   2.358   4.933  12.579  2.6386  0.9387 -2.5780
15027TIP3   OH266495   2.159   1.960  15.668  0.0395  0.2721  0.1641
15027TIP3    H166496   2.237   1.964  15.613  0.2675 -0.1304  0.4509
15027TIP3    H266497   2.136   2.051  15.683  1.6008  0.4875  1.6706
15028TIP3   OH266498   5.146   1.292   4.949 -0.0142  0.6780 -0.2967
15028TIP3    H166499   5.073   1.329   4.899 -1.0115  0.7178  1.1193
15028TIP3    H266500   5.224   1.319   4.901 -0.9264  0.4196 -2.0046
15029TIP3   OH266501   2.684   5.648   6.137  0.4655  0.2745  0.2076
15029TIP3    H166502   2.685   5.733   6.092  1.7192 -0.0538 -0.4258
15029TIP3    H266503   2.775   5.619   6.136 -0.1262 -1.7181 -0.7661
15030TIP3   OH266504   4.155   3.255   2.239  0.3888  0.1991 -0.2099
15030TIP3    H166505   4.140   3.311   2.316 -0.2636  0.0604 -0.2378
15030TIP3    H266506   4.076   3.264   2.186  1.2896  1.1915 -1.4514
15031TIP3   OH266507   2.712   1.710  10.997  0.3149 -0.0028  0.0308
15031TIP3    H166508   2.759   1.627  10.999  0.5356  0.0959 -0.7338
15031TIP3    H266509   2.781   1.776  10.989  0.2131  0.3418  1.5949
15032TIP3   OH266510   1.224   5.004   3.272 -0.2704 -0.4338 -0.1353
15032TIP3    H166511   1.305   5.003   3.221 -1.1430 -0.1163 -1.6101
15032TIP3    H266512   1.232   4.931   3.333  1.1877 -0.2973 -0.1440
15033TIP3   OH266513   3.152   5.355  16.542  0.1700 -0.0666 -0.7297
15033TIP3    H166514   3.124   5.416  16.474 -0.7258  0.4898  0.1164
15033TIP3    H266515   3.077   5.348  16.601  1.3998  0.5662  0.9970
15034TIP3   OH266516   5.452   4.340  10.529  0.1770  0.2826  0.2011
15034TIP3    H166517   5.455   4.429  10.562  2.8730  0.4978 -0.4327
15034TIP3    H266518   5.440   4.286  10.607  1.0162  1.0796  0.9060
15035TIP3   OH266519   5.874   3.024   0.893  0.4366  0.1933  0.0577
15035TIP3    H166520   5.859   3.114   0.920 -0.1417  0.4392 -1.0100
15035TIP3    H266521   5.853   2.971   0.970  1.0848  0.9767  0.7915
15036TIP3   OH266522   4.449   4.727  12.083  0.2183 -0.3350  0.2737
15036TIP3    H166523   4.544   4.719  12.083  0.4858  2.0608  2.2967
15036TIP3    H266524   4.430   4.788  12.012  0.3710  0.5748  1.0032
15037TIP3   OH266525   5.843   3.480   4.157  0.0004  0.0153 -0.4081
15037TIP3    H166526   5.849   3.573   4.133  1.3432 -0.3942 -1.9072
15037TIP3    H266527   5.750   3.464   4.171 -0.5200  1.1468 -2.1998
15038TIP3   OH266528   0.238   2.048  15.950 -0.1331  0.4048  0.1418
15038TIP3    H166529   0.238   2.105  16.027 -1.3643  0.0400  0.4290
15038TIP3    H266530   0.207   1.963  15.983 -0.8800  0.3065 -0.7998
15039TIP3   OH266531   4.014   2.653  11.944 -0.4868  0.2572 -0.1979
15039TIP3    H166532   4.095   2.703  11.952 -0.2074 -0.0878 -0.7872
15039TIP3    H266533   3.973   2.661  12.030 -0.4984  1.5639 -0.3092
15040TIP3   OH266534   4.224   1.745   1.658  0.4580 -0.5098 -0.0194
15040TIP3    H166535   4.207   1.690   1.735  1.3462  0.1498  0.6648
15040TIP3    H266536   4.277   1.817   1.691  0.5395 -0.0105 -1.1898
15041TIP3   OH266537   2.890   5.106   5.055 -0.2427 -1.0307 -0.1441
15041TIP3    H166538   2.851   5.180   5.009 -1.2798 -1.2888  0.2989
15041TIP3    H266539   2.816   5.061   5.096  0.6265 -0.9354  1.6054
15042TIP3   OH266540   0.171   4.053   1.767 -0.0007  0.5635  0.3116
15042TIP3    H166541   0.111   4.081   1.837 -0.0592 -0.8950  0.8807
15042TIP3    H266542   0.170   4.126   1.705 -0.1849  1.7823  1.6763
15043TIP3   OH266543   2.698   1.880   4.789  0.1970 -0.1394  0.1930
15043TIP3    H166544   2.707   1.875   4.694 -1.5804  0.5027 -0.0557
15043TIP3    H266545   2.640   1.807   4.811 -1.6685  1.3188  0.3767
15044TIP3   OH266546   2.393   4.239   1.574 -0.2622 -1.3671 -1.2228
15044TIP3    H166547   2.426   4.311   1.520 -2.5076  0.3081 -0.4970
15044TIP3    H266548   2.472   4.194   1.604  1.3756  1.8056 -0.3420
15045TIP3   OH266549   5.563   5.730  16.157  0.5480 -0.3263  0.0021
15045TIP3    H166550   5.522   5.658  16.205  2.8639 -0.1151  2.5195
15045TIP3    H266551   5.490   5.773  16.112 -1.1917 -2.9504  0.0906
15046TIP3   OH266552   4.077   5.422   5.492 -0.4239 -0.3902 -0.2114
15046TIP3    H166553   4.104   5.499   5.543 -1.2549  0.6808 -1.3167
15046TIP3    H266554   3.994   5.395   5.532 -1.5842  1.0524 -1.5370
15047TIP3   OH266555   3.485   5.492  10.664 -0.6147  0.4051  0.1683
15047TIP3    H166556   3.436   5.574  10.657 -0.3983  0.4114 -2.1504
15047TIP3    H266557   3.419   5.423  10.666 -0.7581  0.5456  0.2393
15048TIP3   OH266558   3.011   1.161  15.105 -0.0462  0.4909  0.2944
15048TIP3    H166559   3.037   1.088  15.049 -2.0024  0.4091 -0.6280
15048TIP3    H266560   2.944   1.124  15.163 -0.9531  1.4656 -0.0869
15049TIP3   OH266561   2.062   5.809  10.626 -0.6664 -0.4846  0.4155
15049TIP3    H166562   1.984   5.859  10.649 -1.8627 -1.4673 -1.2251
15049TIP3    H266563   2.124   5.875  10.593 -0.9829  0.2505  1.2647
15050TIP3   OH266564   0.994   1.275   5.791  0.2319 -0.3031  0.0782
15050TIP3    H166565   0.995   1.243   5.701 -2.3122 -1.0439  0.2153
15050TIP3    H266566   0.919   1.230   5.831 -0.3452  1.9857  1.8059
15051TIP3   OH266567   2.564   2.642  15.516  0.0739  0.5607  0.2256
15051TIP3    H166568   2.651   2.681  15.521  0.4390  0.7297 -4.0832
15051TIP3    H266569   2.505   2.716  15.507 -0.1360  0.3537 -0.1299
15052TIP3   OH266570   0.510   2.603  13.061  0.4504  0.0298  0.2746
15052TIP3    H166571   0.421   2.603  13.026  0.9581 -1.7179 -1.1498
15052TIP3    H266572   0.530   2.696  13.075 -1.0091  0.5630 -0.8871
15053TIP3   OH266573   3.156   6.612   2.486  0.4450 -0.2832 -0.3680
15053TIP3    H166574   3.061   6.619   2.491  0.4766 -0.3086  0.5400
15053TIP3    H266575   3.173   6.543   2.423 -0.1761 -1.2826  0.5377
15054TIP3   OH266576   0.637   0.679  12.382 -0.3409 -0.5324  0.2000
15054TIP3    H166577   0.577   0.612  12.350  0.1201 -0.7882 -0.1396
15054TIP3    H266578   0.588   0.726  12.449 -1.5217  0.3825 -1.2511
15055TIP3   OH266579   3.665   0.933   0.996  0.2684  0.2906  0.6570
15055TIP3    H166580   3.697   1.013   1.037  0.2211  0.8761 -0.4101
15055TIP3    H266581   3.599   0.899   1.057 -0.0328  1.3066  0.9187
15056TIP3   OH266582   0.796   3.331   3.649 -0.3438  0.5779  0.6218
15056TIP3    H166583   0.759   3.406   3.602 -0.5648  1.3285  1.9568
15056TIP3    H266584   0.736   3.259   3.629 -0.4405  0.8773 -0.2182
15057TIP3   OH266585   1.909   6.325   2.332 -0.9036 -0.2299  0.0742
15057TIP3    H166586   1.924   6.414   2.298 -0.6800 -0.0978  0.5020
15057TIP3    H266587   1.817   6.308   2.315 -0.7689 -0.2286 -0.7293
15058TIP3   OH266588   1.272   0.971   3.887  0.2870  1.1486 -0.1789
15058TIP3    H166589   1.181   1.001   3.883  0.0213  0.2814 -1.2605
15058TIP3    H266590   1.266   0.876   3.872  1.3122  0.9766  0.4430
15059TIP3   OH266591   5.873   1.803  13.089 -0.1122 -0.3501 -0.2811
15059TIP3    H166592   5.950   1.855  13.110  0.5187 -1.3225 -0.1197
15059TIP3    H266593   5.895   1.759  13.007 -0.4019 -0.8133 -0.1135
15060TIP3   OH266594   0.970   6.640  14.298 -0.1114  0.8305 -0.0389
15060TIP3    H166595   0.884   6.664  14.332 -0.6107  0.7231 -1.1949
15060TIP3    H266596   0.952   6.591  14.218  1.0238  0.6514 -0.2111
15061TIP3   OH266597   3.648   2.633   5.863  0.5884 -0.0041  0.1998
15061TIP3    H166598   3.725   2.576   5.867 -0.0725 -0.8389  1.6078
15061TIP3    H266599   3.682   2.721   5.878  1.1860 -0.4653  1.7474
15062TIP3   OH266600   4.586   1.997  13.052  0.0828  0.1961 -0.5477
15062TIP3    H166601   4.524   2.024  12.985 -0.6205 -0.0986 -0.0307
15062TIP3    H266602   4.533   1.951  13.117  0.7260  0.5437  0.2513
15063TIP3   OH266603   6.572   0.406  17.015  0.1673  0.3165  0.3541
15063TIP3    H166604   6.518   0.332  16.986  0.1389  0.9044 -1.2180
15063TIP3    H266605   6.509   0.466  17.055 -0.0131  0.0523  0.4712
15064TIP3   OH266606   2.550   3.654  11.307  0.4736 -0.2210 -0.4735
15064TIP3    H166607   2.480   3.713  11.337 -0.4751 -0.6272 -1.8023
15064TIP3    H266608   2.546   3.660  11.212  1.6078 -1.0335 -0.5849
15065TIP3   OH266609   3.421   0.235   2.423 -0.1354 -0.2972  0.0356
15065TIP3    H166610   3.365   0.157   2.434 -1.0216  0.4542  1.0723
15065TIP3    H266611   3.361   0.304   2.398  0.4105  0.4088  0.6404
15066TIP3   OH266612   3.869   0.483  16.773 -0.4687  0.1172  0.1910
15066TIP3    H166613   3.806   0.554  16.781 -0.4143  0.1708  0.1485
15066TIP3    H266614   3.921   0.505  16.696 -0.2035  0.2306  0.3993
15067TIP3   OH266615   3.235   4.353   2.671  0.1228  0.2161 -0.0777
15067TIP3    H166616   3.230   4.352   2.575 -1.6013  0.7612 -0.0162
15067TIP3    H266617   3.198   4.270   2.698 -0.6724  0.6306  0.1403
15068TIP3   OH266618   3.695   2.997   0.256 -0.4785 -0.8595  0.4997
15068TIP3    H166619   3.780   2.998   0.299  0.0685 -0.8256 -0.5462
15068TIP3    H266620   3.714   2.976   0.165 -1.1842  2.5186 -0.5677
15069TIP3   OH266621   6.111   4.246  11.475  0.0131  0.2878 -0.3025
15069TIP3    H166622   6.138   4.336  11.489 -1.2991  0.7996 -0.8696
15069TIP3    H266623   6.107   4.236  11.380 -1.2928  0.1174 -0.2572
15070TIP3   OH266624   5.419   1.943  15.866 -0.4106 -0.1435  0.4370
15070TIP3    H166625   5.501   1.924  15.912 -0.5172  0.3044  0.8263
15070TIP3    H266626   5.393   1.860  15.827 -0.0879 -0.4333  0.8329
15071TIP3   OH266627   4.022   1.162  11.882  0.1500  0.1030  0.0479
15071TIP3    H166628   4.074   1.220  11.937 -0.2757 -1.9209  2.8280
15071TIP3    H266629   3.935   1.201  11.880  0.3005  0.4565  0.3955
15072TIP3   OH266630   3.140   0.239   0.438  0.2398 -0.2122  0.6575
15072TIP3    H166631   3.072   0.277   0.382  0.6524  0.7022  0.7627
15072TIP3    H266632   3.218   0.234   0.382  0.1075 -1.2190  0.5483
15073TIP3   OH266633   3.623   0.309  14.400  0.5195  0.5091  0.1631
15073TIP3    H166634   3.666   0.224  14.391  0.2145  0.4323 -0.6633
15073TIP3    H266635   3.545   0.302  14.345  1.6027  2.0587 -1.6724
15074TIP3   OH266636   4.220   5.536  11.718 -0.0752  0.1739 -0.4025
15074TIP3    H166637   4.201   5.562  11.809 -3.0802 -0.4094 -0.7555
15074TIP3    H266638   4.155   5.583  11.666  2.4236  1.5484 -2.4947
15075TIP3   OH266639   5.407   6.729  13.243 -0.1736 -0.2364 -0.0304
15075TIP3    H166640   5.322   6.700  13.209 -0.5369  1.9097 -1.0786
15075TIP3    H266641   5.465   6.727  13.167  0.5416 -0.9608  0.5213
15076TIP3   OH266642   1.019   6.655   5.921 -0.5319 -0.5495 -0.3362
15076TIP3    H166643   0.978   6.605   5.851 -0.4333 -0.4406 -0.4729
15076TIP3    H266644   0.947   6.707   5.958 -0.6567 -0.8807 -0.1145
15077TIP3   OH266645   5.778   0.600   1.125  0.5579  0.5031  0.0821
15077TIP3    H166646   5.722   0.642   1.191  0.5269  2.7572 -1.2650
15077TIP3    H266647   5.719   0.576   1.054  0.3910 -3.0371  1.2256
15078TIP3   OH266648   1.043   2.067  10.540 -0.1439  0.1153 -0.1454
15078TIP3    H166649   1.112   2.115  10.585 -0.6415  0.9855 -0.2988
15078TIP3    H266650   1.033   2.112  10.456  0.6117 -1.3396 -1.0445
15079TIP3   OH266651   4.838   5.879   3.134 -0.0557 -0.0026 -0.0887
15079TIP3    H166652   4.829   5.789   3.102  1.0888  0.6171 -2.2850
15079TIP3    H266653   4.756   5.921   3.108  0.2410  0.1009 -0.8757
15080TIP3   OH266654   5.793   2.612   5.575 -0.6276 -0.0742  0.3037
15080TIP3    H166655   5.738   2.672   5.624 -1.0411  0.1344 -0.4004
15080TIP3    H266656   5.882   2.630   5.605 -0.7872  0.6558  0.3352
15081TIP3   OH266657   3.096   6.579   5.296  0.4018  0.1420 -0.4527
15081TIP3    H166658   3.051   6.502   5.260  3.4090 -2.5862  1.1527
15081TIP3    H266659   3.052   6.594   5.380  1.3322 -1.4872  0.3744
15082TIP3   OH266660   6.271   5.417  15.470 -0.0300 -0.6731  0.3376
15082TIP3    H166661   6.255   5.505  15.504  1.2288 -0.2687 -0.0638
15082TIP3    H266662   6.187   5.389  15.435 -0.8479 -0.2703  1.8664
15083TIP3   OH266663   3.424   3.887   0.372 -0.1343 -0.5668 -0.3956
15083TIP3    H166664   3.344   3.914   0.417  0.3487  2.2393 -1.0795
15083TIP3    H266665   3.485   3.866   0.443 -0.4681  0.4769  0.2198
15084TIP3   OH266666   0.580   3.779   2.924 -0.0633 -0.1088  0.1187
15084TIP3    H166667   0.493   3.778   2.964 -0.0128 -0.9790  0.2366
15084TIP3    H266668   0.568   3.735   2.840  0.4076 -0.9561  0.4814
15085TIP3   OH266669   3.297   5.189   3.730 -0.0587  0.2455 -0.0388
15085TIP3    H166670   3.288   5.161   3.639 -2.1127  0.6531 -0.0107
15085TIP3    H266671   3.282   5.284   3.727  1.0176  0.4529  0.5992
15086TIP3   OH266672   2.428   5.939  13.115 -0.1087  0.3320  0.3920
15086TIP3    H166673   2.439   6.023  13.159  1.6863  0.2100  0.2771
15086TIP3    H266674   2.510   5.892  13.133 -0.4366 -0.7712 -0.8276
15087TIP3   OH266675   1.055   3.938  15.419  0.8813 -0.2121 -0.4783
15087TIP3    H166676   1.065   3.982  15.334  0.5006  1.1582  0.1545
15087TIP3    H266677   1.075   3.846  15.401  1.2584  0.1299 -1.9553
15088TIP3   OH266678   5.160   0.781   6.071 -0.4676 -0.0559 -0.2263
15088TIP3    H166679   5.116   0.856   6.112 -2.0633 -1.1243  0.0967
15088TIP3    H266680   5.151   0.710   6.135  0.6757 -0.6486 -0.6952
15089TIP3   OH266681   0.359   2.398  11.613  0.2859 -0.4536  0.4925
15089TIP3    H166682   0.442   2.410  11.658  0.7101  2.1189 -0.7644
15089TIP3    H266683   0.315   2.483  11.621 -1.0344 -0.9247 -1.1473
15090TIP3   OH266684   6.669   0.219  16.011  0.3605  0.0904 -0.2525
15090TIP3    H166685   6.722   0.142  16.031 -0.2431 -0.6559 -1.3484
15090TIP3    H266686   6.588   0.183  15.974  0.0058  1.2536 -0.6662
15091TIP3   OH266687   0.415   2.141  12.794 -0.1995 -0.2703  0.0327
15091TIP3    H166688   0.364   2.178  12.866 -2.3470 -0.5667 -1.2429
15091TIP3    H266689   0.479   2.209  12.772 -1.6393  1.1739  0.1256
15092TIP3   OH266690   0.091   5.540   2.443 -0.1065 -0.1835  0.0691
15092TIP3    H166691   0.021   5.577   2.497  0.9452  1.1030  0.6085
15092TIP3    H266692   0.115   5.459   2.488  0.0978  0.3807  1.0053
15093TIP3   OH266693   2.328   1.453  14.793 -0.3489 -0.1195 -0.3344
15093TIP3    H166694   2.399   1.485  14.737  0.1852 -1.3917 -0.4184
15093TIP3    H266695   2.249   1.464  14.741 -0.0571  0.2178 -0.7090
15094TIP3   OH266696   0.141   0.787  16.842 -0.0748  0.8387 -0.3858
15094TIP3    H166697   0.179   0.870  16.816  0.5481  0.5882 -0.2870
15094TIP3    H266698   0.213   0.724  16.837 -0.3690  0.4382  0.2024
15095TIP3   OH266699   4.322   6.564  16.170  0.4469 -0.6741 -0.1707
15095TIP3    H166700   4.362   6.636  16.219 -0.5296 -1.1303  1.3786
15095TIP3    H266701   4.396   6.518  16.131  1.4266 -1.0531  1.9856
15096TIP3   OH266702   1.348   0.327  14.354  0.6540  0.0073  0.0088
15096TIP3    H166703   1.363   0.244  14.399  0.0920  0.8624  1.8546
15096TIP3    H266704   1.389   0.393  14.410  1.4395  0.9755 -1.6163
15097TIP3   OH266705   5.271   5.589  10.570  0.4420  0.1076 -0.0625
15097TIP3    H166706   5.273   5.495  10.591 -0.8529  0.3000  1.0677
15097TIP3    H266707   5.261   5.592  10.475 -0.5906 -0.9353 -0.0076
15098TIP3   OH266708   4.808   4.312   3.794 -1.0246 -0.0582  0.2667
15098TIP3    H166709   4.894   4.297   3.835 -0.2578  0.7341 -0.9981
15098TIP3    H266710   4.801   4.245   3.726 -0.4329  1.1900 -1.0671
15099TIP3   OH266711   1.649   1.261   4.210 -0.1295  0.0753 -0.3971
15099TIP3    H166712   1.743   1.257   4.191 -0.1746  3.3068 -1.9097
15099TIP3    H266713   1.638   1.344   4.257 -2.3641  0.3239 -1.2647
15100TIP3   OH266714   6.067   5.572   4.182 -0.4208 -0.0911  0.3618
15100TIP3    H166715   6.053   5.477   4.189 -1.4950  0.0488  0.3397
15100TIP3    H266716   6.053   5.591   4.089 -1.2651  0.2260  0.5405
15101TIP3   OH266717   6.509   0.445  15.178 -0.3930  0.2230  0.3752
15101TIP3    H166718   6.565   0.427  15.103  1.4404 -1.5017  2.0298
15101TIP3    H266719   6.545   0.525  15.217 -0.2655  0.1496  0.4057
15102TIP3   OH266720   5.649   3.784   5.046  0.1850 -0.3916  0.7703
15102TIP3    H166721   5.558   3.770   5.070  0.2157 -1.3522  0.3549
15102TIP3    H266722   5.685   3.696   5.032  0.9181  0.0093 -0.0025
15103TIP3   OH266723   3.547   0.701   4.344 -0.6852 -0.0828 -0.0575
15103TIP3    H166724   3.470   0.737   4.299 -2.1287 -3.1839 -0.3397
15103TIP3    H266725   3.513   0.625   4.391  1.7827  0.0136  2.0534
15104TIP3   OH266726   0.730   4.768  12.624 -0.5186  0.0539 -0.3841
15104TIP3    H166727   0.713   4.773  12.530 -1.1112 -0.3943 -0.3106
15104TIP3    H266728   0.760   4.855  12.648 -1.1900  0.4250 -0.8385
15105TIP3   OH266729   3.059   4.368  11.529 -0.0302 -0.0581 -0.1024
15105TIP3    H166730   2.966   4.356  11.551  0.2898 -0.9758  0.8202
15105TIP3    H266731   3.093   4.279  11.519  0.5193  0.2783 -1.5569
15106TIP3   OH266732   3.428   2.932  15.392 -0.3385 -0.0030 -0.1065
15106TIP3    H166733   3.508   2.951  15.441  0.9191  0.0796 -2.0921
15106TIP3    H266734   3.362   2.915  15.460  0.9645  1.3848  1.6129
15107TIP3   OH266735   4.979   6.728  12.303  0.2840 -0.7550 -0.4636
15107TIP3    H166736   4.993   6.812  12.259 -2.2782 -1.0399 -2.0253
15107TIP3    H266737   5.013   6.742  12.392  1.7795  1.2258 -1.2626
15108TIP3   OH266738   0.748   2.726  10.685 -0.7243 -0.1891 -0.1414
15108TIP3    H166739   0.791   2.670  10.621 -4.3616 -1.2124 -1.9839
15108TIP3    H266740   0.754   2.814  10.648 -0.4717 -0.3650 -0.5261
15109TIP3   OH266741   3.157   0.320   3.248 -0.4212 -0.1994  0.6845
15109TIP3    H166742   3.127   0.380   3.316  0.4854 -1.1933  2.0057
15109TIP3    H266743   3.121   0.235   3.274  0.6430 -0.7482  0.3980
15110TIP3   OH266744   1.749   2.824  15.018 -0.2639  0.0079 -0.2047
15110TIP3    H166745   1.787   2.749  14.972 -2.9726 -1.9253  0.4591
15110TIP3    H266746   1.659   2.798  15.036 -0.3316  2.0218  3.2524
15111TIP3   OH266747   0.967   6.136   1.821 -0.2159  0.1269  0.1606
15111TIP3    H166748   1.020   6.168   1.894  1.3396 -1.2384 -0.3133
15111TIP3    H266749   1.005   6.051   1.799 -1.1336  0.1572 -1.7412
15112TIP3   OH266750   5.495   2.516   5.752  0.6441  0.0538  0.4154
15112TIP3    H166751   5.533   2.450   5.694  2.2866 -1.5039  3.0548
15112TIP3    H266752   5.407   2.484   5.771  1.1936 -1.0879  1.1500
15113TIP3   OH266753   1.640   5.822  11.799 -0.1882  0.5365  0.1425
15113TIP3    H166754   1.682   5.906  11.779 -0.7909  0.6004 -0.9381
15113TIP3    H266755   1.547   5.843  11.809 -0.6494 -0.2391 -2.0044
15114TIP3   OH266756   5.041   6.591  10.838 -0.2514  0.0068 -0.0842
15114TIP3    H166757   4.992   6.642  10.902  1.4181  0.5226  0.8140
15114TIP3    H266758   4.973   6.557  10.779 -1.5710  1.8303  0.2841
15115TIP3   OH266759   6.538   6.798  11.548  0.6373  0.5350 -0.0693
15115TIP3    H166760   6.627   6.786  11.514  1.3032 -0.7921  1.9505
15115TIP3    H266761   6.485   6.814  11.470  2.6230  1.3736 -1.3380
15116TIP3   OH266762   6.450   6.225   0.581 -0.8143 -0.2726 -0.1549
15116TIP3    H166763   6.362   6.258   0.599 -0.2851  1.2443 -0.1502
15116TIP3    H266764   6.498   6.303   0.550  0.2639 -1.2618 -1.0547
15117TIP3   OH266765   6.204   6.126   5.729 -0.0242 -0.1713  0.3273
15117TIP3    H166766   6.225   6.220   5.730 -0.6089 -0.0260  2.0481
15117TIP3    H266767   6.159   6.111   5.812  0.9101 -2.1927  0.5063
15118TIP3   OH266768   1.839   6.460  14.794 -0.4204 -0.3865 -0.0407
15118TIP3    H166769   1.908   6.401  14.824 -0.7593 -0.3759  0.7859
15118TIP3    H266770   1.758   6.410  14.805 -0.7668  0.3891  1.1809
15119TIP3   OH266771   4.455   6.462  16.999 -0.2810  0.4175  0.3004
15119TIP3    H166772   4.502   6.498  17.074  1.5077 -0.4563 -0.3372
15119TIP3    H266773   4.450   6.535  16.936  1.0075  0.3104  0.0472
15120TIP3   OH266774   2.923   5.365  14.975 -0.5874  0.1563  0.1362
15120TIP3    H166775   2.998   5.392  15.028  1.5928  2.8923 -3.8305
15120TIP3    H266776   2.959   5.302  14.913 -1.9245  0.3926 -0.9170
15121TIP3   OH266777   1.803   5.485   5.345  0.3402  0.0451  0.5532
15121TIP3    H166778   1.822   5.392   5.352 -0.0518 -0.0841 -0.0149
15121TIP3    H266779   1.708   5.491   5.356  0.2873  0.3115  0.0080
15122TIP3   OH266780   3.840   5.732  14.532 -0.8207  0.0429 -0.3372
15122TIP3    H166781   3.863   5.675  14.458 -1.3754  1.4993 -1.6781
15122TIP3    H266782   3.923   5.772  14.558 -0.9606  1.3997 -1.8327
15123TIP3   OH266783   2.375   2.821   0.930 -0.4320 -0.4713 -0.4598
15123TIP3    H166784   2.406   2.898   0.883  0.8584 -0.3805  0.5006
15123TIP3    H266785   2.389   2.749   0.869 -2.8424  0.1316 -1.8837
15124TIP3   OH266786   2.274   6.499   6.597 -0.4171  0.2068  0.0815
15124TIP3    H166787   2.247   6.418   6.641  1.9704 -0.6664  0.1017
15124TIP3    H266788   2.365   6.512   6.624 -0.0350  1.6849 -1.6908
15125TIP3   OH266789   2.155   5.075   5.145  0.2873  0.3594  0.5945
15125TIP3    H166790   2.092   5.140   5.176 -1.8255  0.3398 -3.0570
15125TIP3    H266791   2.114   4.990   5.165 -0.1453  0.3189 -0.4106
15126TIP3   OH266792   4.526   2.010  15.125 -0.2955  0.0036  0.0250
15126TIP3    H166793   4.586   1.957  15.177 -0.4202 -0.1746 -0.0101
15126TIP3    H266794   4.582   2.052  15.060 -0.2860 -0.6321 -0.3873
15127TIP3   OH266795   0.761   5.160  12.507 -0.0322  0.1395  0.0869
15127TIP3    H166796   0.848   5.121  12.512 -0.3664 -0.4829  1.4023
15127TIP3    H266797   0.772   5.236  12.449  1.2650 -0.2145 -0.1619
15128TIP3   OH266798   5.038   5.364   2.754  0.7526 -0.0122  0.0083
15128TIP3    H166799   5.015   5.383   2.664  2.5082 -1.9973 -0.9481
15128TIP3    H266800   5.017   5.444   2.802 -1.3540  0.6761 -1.8956
15129TIP3   OH266801   4.251   3.006   2.273  0.1923  0.5759  0.6479
15129TIP3    H166802   4.230   2.955   2.195  1.9707  0.3061  0.3048
15129TIP3    H266803   4.219   3.094   2.254 -1.3718  0.0151  0.5474
15130TIP3   OH266804   0.990   1.645   3.774  0.1691  0.3691 -0.0969
15130TIP3    H166805   0.896   1.648   3.791 -0.0496 -1.2767 -0.7245
15130TIP3    H266806   1.010   1.728   3.732 -0.6827  1.3913  1.4268
15131TIP3   OH266807   1.550   5.582   5.388 -0.6155  0.1644 -0.0201
15131TIP3    H166808   1.487   5.637   5.341 -0.0252  2.4856  1.7072
15131TIP3    H266809   1.590   5.641   5.452  0.1847 -2.2734  1.8980
15132TIP3   OH266810   5.120   3.293  14.220  0.4735 -0.0749 -0.1424
15132TIP3    H166811   5.159   3.377  14.241  1.5127  0.2221 -2.9038
15132TIP3    H266812   5.191   3.243  14.179 -0.5222 -1.7605  0.0932
15133TIP3   OH266813   0.923   0.335   1.711  0.5275  0.1580 -0.4048
15133TIP3    H166814   0.831   0.320   1.734  0.0822  2.2275 -0.5719
15133TIP3    H266815   0.972   0.271   1.762 -0.8485  0.6995  1.7358
15134TIP3   OH266816   5.562   5.115  10.932 -0.2438 -0.1733 -0.5576
15134TIP3    H166817   5.646   5.160  10.927 -0.7539  0.7843 -0.7706
15134TIP3    H266818   5.528   5.139  11.018 -0.2115 -0.7179 -0.3934
15135TIP3   OH266819   0.620   2.238   3.992 -0.1149  0.2571 -0.0976
15135TIP3    H166820   0.650   2.302   3.928 -1.1711 -0.1137 -1.0129
15135TIP3    H266821   0.529   2.263   4.010  0.1569  0.3473  1.2758
15136TIP3   OH266822   3.352   2.318   2.263  0.0779  0.1983  0.1033
15136TIP3    H166823   3.421   2.367   2.219 -0.1404 -1.2171 -2.0001
15136TIP3    H266824   3.351   2.233   2.218 -3.3281  0.3325 -0.3553
15137TIP3   OH266825   5.732   1.446   5.320 -0.0158 -0.1683  0.2324
15137TIP3    H166826   5.663   1.511   5.335  0.8541  0.4787  1.5646
15137TIP3    H266827   5.768   1.428   5.407  1.2184 -0.8101 -0.3866
15138TIP3   OH266828   0.867   4.760   3.854  0.5675  0.3019  0.7802
15138TIP3    H166829   0.777   4.777   3.882  0.9562  0.6251  1.8957
15138TIP3    H266830   0.896   4.689   3.912  1.0052  0.1334  0.3567
15139TIP3   OH266831   0.850   2.657   5.533  0.2106 -0.2740 -0.2058
15139TIP3    H166832   0.826   2.744   5.501 -0.9418 -0.1234  0.9964
15139TIP3    H266833   0.769   2.607   5.530  0.3868 -0.6773  1.0765
15140TIP3   OH266834   4.807   2.614  11.412 -0.3445 -0.0536 -0.2356
15140TIP3    H166835   4.892   2.627  11.453 -0.2328  0.6434 -0.6639
15140TIP3    H266836   4.824   2.552  11.341 -0.2558 -0.1467 -0.1330
15141TIP3   OH266837   4.624   5.453  12.702 -0.4233 -0.2115  0.1450
15141TIP3    H166838   4.614   5.384  12.636 -0.7926 -0.7942  0.7987
15141TIP3    H266839   4.690   5.419  12.762  2.1350  1.5375 -1.4562
15142TIP3   OH266840   5.950   4.338  14.873 -0.0668 -0.8525  0.2705
15142TIP3    H166841   5.936   4.275  14.944 -1.3752  0.2178  1.0362
15142TIP3    H266842   5.867   4.340  14.826 -0.0205  0.1941  0.1967
15143TIP3   OH266843   2.347   0.260   1.416 -0.4660  0.1747  0.4187
15143TIP3    H166844   2.254   0.237   1.412  0.0285 -1.8417 -0.2794
15143TIP3    H266845   2.374   0.234   1.504 -0.5151  0.6749  0.5883
15144TIP3   OH266846   2.626   0.163   3.705 -0.0936  0.4877  0.2938
15144TIP3    H166847   2.718   0.141   3.715 -0.2567  0.3822  1.8920
15144TIP3    H266848   2.603   0.132   3.617  1.4429  0.7895 -0.2528
15145TIP3   OH266849   1.399   5.373  16.152  0.7206 -0.1597 -0.3187
15145TIP3    H166850   1.360   5.459  16.136 -1.4916 -1.0746 -0.2362
15145TIP3    H266851   1.419   5.373  16.246  0.4365  0.1645 -0.2554
15146TIP3   OH266852   1.484   3.846  16.845 -0.3051 -0.1557  0.0982
15146TIP3    H166853   1.557   3.906  16.831 -0.4458 -0.3896 -1.8989
15146TIP3    H266854   1.474   3.842  16.940  0.4650  2.0493  0.3241
15147TIP3   OH266855   4.659   3.362   5.865  0.3241 -0.2445  0.0330
15147TIP3    H166856   4.717   3.305   5.915  1.6728  0.2455 -0.9166
15147TIP3    H266857   4.672   3.449   5.903  0.4464 -0.0790 -0.3783
15148TIP3   OH266858   4.511   1.783   2.310 -0.2145  0.7759  0.0650
15148TIP3    H166859   4.547   1.862   2.350 -1.2911  1.7875 -0.9049
15148TIP3    H266860   4.419   1.803   2.295 -0.3567 -0.4257 -0.8057
15149TIP3   OH266861   5.564   5.525  12.471 -0.2919  0.1895  0.4970
15149TIP3    H166862   5.524   5.529  12.384 -0.6057 -2.1122  0.4927
15149TIP3    H266863   5.657   5.510  12.454 -0.5722 -1.7601  0.5259
15150TIP3   OH266864   5.235   1.310   1.038  0.4814  0.3669 -0.0644
15150TIP3    H166865   5.173   1.300   0.965  0.2472 -2.6937  0.4269
15150TIP3    H266866   5.319   1.284   1.002  0.8993  1.4098  0.1176
15151TIP3   OH266867   3.117   2.726  13.178 -0.5648 -0.4277 -0.6253
15151TIP3    H166868   3.120   2.779  13.258 -0.9941 -1.2677 -0.0345
15151TIP3    H266869   3.190   2.758  13.125 -0.8549  0.7847 -0.3158
15152TIP3   OH266870   6.765   6.671   4.257 -0.0724  0.2797 -0.1492
15152TIP3    H166871   6.832   6.739   4.254 -0.3121  0.4939 -1.9151
15152TIP3    H266872   6.693   6.705   4.203 -2.6038  0.9945  3.3314
15153TIP3   OH266873   6.495   0.105  15.074 -0.2035  0.3198 -0.3911
15153TIP3    H166874   6.422   0.044  15.083  0.3405 -0.3529 -0.4226
15153TIP3    H266875   6.489   0.162  15.151  0.4352 -1.0427  0.7088
15154TIP3   OH266876   4.963   2.417   4.565 -0.3836  0.2865 -0.2644
15154TIP3    H166877   5.047   2.458   4.584 -0.8954  0.2070  2.5284
15154TIP3    H266878   4.904   2.491   4.549 -0.0648  0.3695 -1.1713
15155TIP3   OH266879   6.650   1.644   2.822  0.0279  0.1956  0.6917
15155TIP3    H166880   6.681   1.568   2.871 -0.8966 -0.6551  0.0158
15155TIP3    H266881   6.566   1.615   2.785  0.2469  1.1223 -0.5856
15156TIP3   OH266882   3.761   0.424   2.855  0.2942 -0.3020 -0.4600
15156TIP3    H166883   3.789   0.351   2.910 -3.0960  0.4344  2.5901
15156TIP3    H266884   3.698   0.386   2.794 -1.4410 -0.0429  1.1017
15157TIP3   OH266885   2.935   4.171   3.141  0.5855  0.2078  0.3123
15157TIP3    H166886   2.995   4.160   3.068  0.1867 -1.3152  0.1764
15157TIP3    H266887   2.916   4.265   3.143  0.9024  0.3298 -1.2899
15158TIP3   OH266888   0.653   3.157  14.566  0.1718 -0.4848 -0.3890
15158TIP3    H166889   0.590   3.118  14.505  1.8954 -0.9846 -1.9645
15158TIP3    H266890   0.733   3.165  14.514  1.5638 -0.3709  1.6767
15159TIP3   OH266891   5.873   0.349  13.506  0.4387  0.2032  0.8412
15159TIP3    H166892   5.923   0.413  13.456 -0.8208  1.5412  1.2335
15159TIP3    H266893   5.825   0.401  13.571 -1.2267 -1.0464  0.6730
15160TIP3   OH266894   6.462   3.549  11.974  0.1357 -0.3589 -0.3338
15160TIP3    H166895   6.372   3.522  11.988 -0.3035  1.2823  0.1977
15160TIP3    H266896   6.483   3.517  11.886 -0.5253 -1.8241  0.0055
15161TIP3   OH266897   4.449   5.121  11.152 -0.0528 -0.0375  0.4795
15161TIP3    H166898   4.503   5.044  11.133 -1.7887 -0.6895 -2.4677
15161TIP3    H266899   4.365   5.085  11.182 -1.1337  0.5225 -1.6082
15162TIP3   OH266900   0.410   0.569  11.125  0.4938 -0.0489 -0.2169
15162TIP3    H166901   0.321   0.594  11.100  0.3666 -1.5527 -1.4579
15162TIP3    H266902   0.449   0.649  11.160 -1.8759  0.2745  2.0020
15163TIP3   OH266903   0.484   0.483   3.460 -0.2404 -0.0121 -0.1250
15163TIP3    H166904   0.567   0.530   3.457 -0.5251  0.4462 -1.0133
15163TIP3    H266905   0.472   0.449   3.372 -0.6804 -0.6394  0.1698
15164TIP3   OH266906   2.446   4.725  15.549  0.2775 -0.7153  0.1168
15164TIP3    H166907   2.396   4.762  15.476 -0.0135  0.8308  1.0679
15164TIP3    H266908   2.534   4.760  15.538 -0.5598  2.4565  2.4014
15165TIP3   OH266909   1.997   0.725   0.284 -0.1453  0.1719  0.5716
15165TIP3    H166910   1.943   0.723   0.206 -1.3813  1.1842  1.3579
15165TIP3    H266911   1.941   0.692   0.354  1.6968 -3.1304  0.6994
15166TIP3   OH266912   6.212   1.311  15.881 -0.1017  0.5415 -0.3976
15166TIP3    H166913   6.198   1.245  15.813 -1.7701 -1.0962  1.3909
15166TIP3    H266914   6.211   1.261  15.963 -3.0533  2.8878  1.1793
15167TIP3   OH266915   3.861   0.230  16.028 -0.0635  0.0662 -0.1633
15167TIP3    H166916   3.833   0.193  16.112 -0.4188 -0.0016 -0.3092
15167TIP3    H266917   3.949   0.265  16.045 -0.3950  0.6330  0.4002
15168TIP3   OH266918   3.909   5.310  12.947  0.1242  0.2692  0.2101
15168TIP3    H166919   3.972   5.332  12.878 -0.6915  2.4760  0.0842
15168TIP3    H266920   3.823   5.326  12.907 -0.5217 -1.9486  0.6160
15169TIP3   OH266921   6.119   2.947   2.896  0.0641 -0.3332 -0.1911
15169TIP3    H166922   6.061   2.897   2.953 -0.8601  1.6861  0.7148
15169TIP3    H266923   6.186   2.883   2.870 -0.3034 -1.7285  1.9433
15170TIP3   OH266924   0.445   1.694  13.738 -0.2377  0.5043  0.4890
15170TIP3    H166925   0.379   1.699  13.807  1.6527  0.6999  2.3728
15170TIP3    H266926   0.465   1.785  13.717 -0.3378  0.4452  0.1230
15171TIP3   OH266927   3.360   0.452  12.726  0.1201  0.3002  0.0748
15171TIP3    H166928   3.343   0.429  12.634 -1.4014 -0.3409  0.4895
15171TIP3    H266929   3.283   0.504  12.752  0.6022  0.5890  0.9516
15172TIP3   OH266930   5.786   0.020  15.809  0.1574 -0.4508 -0.2560
15172TIP3    H166931   5.773   0.073  15.888  0.7539 -0.0378 -0.4255
15172TIP3    H266932   5.787  -0.070  15.840 -0.9699 -0.3813  0.0286
15173TIP3   OH266933   1.670   4.847   2.166  0.9417  0.1219  0.2024
15173TIP3    H166934   1.701   4.875   2.080  1.0154  0.9044  0.4732
15173TIP3    H266935   1.729   4.776   2.191  3.2957  2.2350  1.1671
15174TIP3   OH266936   6.318   0.530   0.319 -0.3480 -0.3930 -0.7778
15174TIP3    H166937   6.374   0.526   0.242 -1.8840 -2.5487 -1.8973
15174TIP3    H266938   6.232   0.503   0.288 -0.8212 -2.4108  1.8541
15175TIP3   OH266939   6.112   3.217  15.567 -0.2543  0.5630 -0.5632
15175TIP3    H166940   6.183   3.231  15.629  0.2402 -0.3344 -0.9166
15175TIP3    H266941   6.123   3.287  15.502  1.1160 -0.3295 -1.3367
15176TIP3   OH266942   4.487   3.770   5.948 -0.6095  0.0053 -0.3996
15176TIP3    H166943   4.565   3.718   5.928 -0.1125  0.5919 -0.0133
15176TIP3    H266944   4.517   3.834   6.012 -1.1412  0.9692 -1.0921
15177TIP3   OH266945   5.277   4.162   2.472  0.0286  0.7262 -0.2666
15177TIP3    H166946   5.331   4.218   2.416  3.1013 -1.2668  0.4707
15177TIP3    H266947   5.263   4.214   2.551  2.8146  0.6020  0.4062
15178TIP3   OH266948   5.237   5.640  13.185  0.0122  0.4726 -0.1243
15178TIP3    H166949   5.145   5.654  13.163  0.2188  1.0954 -0.6050
15178TIP3    H266950   5.251   5.691  13.265  0.1154  0.9588 -0.4483
15179TIP3   OH266951   1.089   0.088   6.720 -0.0531 -0.0609 -0.0254
15179TIP3    H166952   1.173   0.062   6.682 -0.3010 -0.4791 -0.3064
15179TIP3    H266953   1.025   0.069   6.651 -0.5683 -1.2504  0.7481
15180TIP3   OH266954   4.097   0.157  14.146 -0.4249 -0.6887  0.4368
15180TIP3    H166955   4.097   0.196  14.234  1.5736 -1.1103  0.6733
15180TIP3    H266956   4.021   0.099  14.146 -1.4350  0.5515  1.2825
15181TIP3   OH266957   0.718   5.931   3.302 -0.2691  0.1005  0.7850
15181TIP3    H166958   0.804   5.936   3.343  0.8479  0.7745 -1.4693
15181TIP3    H266959   0.733   5.885   3.220 -1.9042  0.8785 -0.0115
15182TIP3   OH266960   1.570   0.338   0.432 -0.2074  0.3148  0.0182
15182TIP3    H166961   1.503   0.311   0.494  0.4648  1.4381  1.2935
15182TIP3    H266962   1.642   0.276   0.445 -0.8924 -0.7949 -1.2401
15183TIP3   OH266963   4.463   3.452  16.797  0.2914 -0.1319  0.0694
15183TIP3    H166964   4.450   3.546  16.811  2.7456 -0.0527  2.9293
15183TIP3    H266965   4.543   3.447  16.744  1.1077 -0.5365  1.2880
15184TIP3   OH266966   1.203   5.561  12.333  0.3894  0.6853 -0.1625
15184TIP3    H166967   1.276   5.498  12.328  0.3053  0.4780  0.8723
15184TIP3    H266968   1.132   5.511  12.373 -0.0159  1.1524 -0.2997
15185TIP3   OH266969   4.255   1.850  13.652 -0.6445  0.0029 -0.4569
15185TIP3    H166970   4.225   1.940  13.639  0.8918  0.7523  0.6852
15185TIP3    H266971   4.295   1.851  13.739  1.2946 -1.2201 -1.2461
15186TIP3   OH266972   5.255   0.796  13.327 -0.6030 -0.2668  0.1024
15186TIP3    H166973   5.267   0.828  13.416 -0.7095 -1.1300  0.4301
15186TIP3    H266974   5.317   0.849  13.275 -1.2038  0.8811  0.5215
15187TIP3   OH266975   3.565   0.005  14.765 -0.3721  0.3264 -0.1761
15187TIP3    H166976   3.612   0.014  14.682  2.6497  1.7998  1.5302
15187TIP3    H266977   3.567  -0.088  14.784 -0.9016 -0.0055 -1.5592
15188TIP3   OH266978   5.095   2.812   1.044  0.3343  0.5032  0.1889
15188TIP3    H166979   5.001   2.824   1.031  0.6161  1.7310 -0.9186
15188TIP3    H266980   5.135   2.888   1.001  1.8361  0.0206  0.6715
15189TIP3   OH266981   1.264   2.039  14.768  0.1481  0.3338  0.5402
15189TIP3    H166982   1.230   1.961  14.812 -1.2796  0.8996  0.5050
15189TIP3    H266983   1.253   2.020  14.675  0.1678  0.4062  0.5234
15190TIP3   OH266984   5.228   1.813   6.628  0.3916 -0.0178  0.3113
15190TIP3    H166985   5.230   1.718   6.618  0.5080 -0.0199  0.3664
15190TIP3    H266986   5.210   1.828   6.720  2.4065  0.0265  0.7370
15191TIP3   OH266987   5.077   4.570  13.165  0.0108  0.3488 -0.0837
15191TIP3    H166988   5.122   4.630  13.106  0.6874 -0.5695 -0.5169
15191TIP3    H266989   5.026   4.627  13.222  0.0143  1.2912 -0.9983
15192TIP3   OH266990   0.954   4.931  11.996 -0.4177 -0.1412 -0.0877
15192TIP3    H166991   0.884   4.896  11.940 -0.7919 -0.0515  0.3190
15192TIP3    H266992   1.014   4.857  12.007  0.8470  0.4400 -2.4115
15193TIP3   OH266993   0.663   5.493  12.627 -0.5696  0.7178  0.4227
15193TIP3    H166994   0.569   5.474  12.636 -0.5128  0.6507  0.9316
15193TIP3    H266995   0.698   5.480  12.715 -0.1122  0.9224  0.2729
15194TIP3   OH266996   1.654   3.341  17.079 -0.0017 -0.2389  0.1451
15194TIP3    H166997   1.659   3.260  17.027 -2.6933 -1.1475  1.1362
15194TIP3    H266998   1.626   3.408  17.017  1.8506 -0.1032 -0.6022
15195TIP3   OH266999   2.604   1.848  17.060  0.6401 -0.5667  0.2314
15195TIP3    H167000   2.582   1.939  17.081  0.9887 -0.6303  0.8967
15195TIP3    H267001   2.525   1.813  17.018  0.7748  0.2572 -0.7276
15196TIP3   OH267002   5.175   3.986  11.106 -0.7563 -0.0254 -0.2413
15196TIP3    H167003   5.249   4.047  11.118 -0.5140 -0.4073  0.2101
15196TIP3    H267004   5.126   4.024  11.033 -1.4282  1.5239  0.9581
15197TIP3   OH267005   0.535   3.796  14.104 -0.2424 -0.2339  0.2970
15197TIP3    H167006   0.547   3.890  14.094  1.1855 -0.4778 -0.5402
15197TIP3    H267007   0.558   3.759  14.019 -1.7523 -1.2780  0.3115
15198TIP3   OH267008   5.878   4.735   3.092  0.5736 -0.2565 -0.1879
15198TIP3    H167009   5.862   4.829   3.103  2.0106 -0.1307  1.3229
15198TIP3    H267010   5.817   4.708   3.024  1.0697  2.0400 -1.6773
15199TIP3   OH267011   2.558   3.692  15.245  0.1273 -0.1407 -0.5889
15199TIP3    H167012   2.611   3.640  15.184 -0.5023  0.4083 -1.6262
15199TIP3    H267013   2.487   3.728  15.191 -0.6275  0.1081  0.5318
15200TIP3   OH267014   5.843   6.406   3.002  0.0124 -0.2728  0.0084
15200TIP3    H167015   5.875   6.457   2.927 -3.2762 -0.2342 -1.5436
15200TIP3    H267016   5.856   6.315   2.976  1.0556 -0.2624  0.4656
15201TIP3   OH267017   1.730   2.912   4.045  0.4267 -0.3529  0.0810
15201TIP3    H167018   1.699   2.859   3.972 -1.0156 -1.5333  1.4640
15201TIP3    H267019   1.669   2.985   4.049  1.4365  0.5701 -0.8137
15202TIP3   OH267020   2.389   6.195  13.782 -0.1937  0.0021  0.1934
15202TIP3    H167021   2.411   6.271  13.836 -1.1259 -1.1407  2.3298
15202TIP3    H267022   2.319   6.151  13.831 -0.7770 -1.3761 -1.7657
15203TIP3   OH267023   1.487   5.423   4.608  0.1452  0.2745  0.2241
15203TIP3    H167024   1.524   5.456   4.690 -1.4419  1.7951  0.3812
15203TIP3    H267025   1.477   5.500   4.553  0.1454 -0.5694 -1.0053
15204TIP3   OH267026   0.440   0.943  11.540  0.3524 -0.4134 -0.5519
15204TIP3    H167027   0.436   0.848  11.550  2.6542 -0.3198  2.6108
15204TIP3    H267028   0.357   0.974  11.575  1.4257 -1.1784  3.1588
15205TIP3   OH267029   5.976   2.767   3.050  0.4306  0.3986 -0.1944
15205TIP3    H167030   6.046   2.703   3.047  0.1725  0.0568  0.8392
15205TIP3    H267031   5.950   2.771   3.142 -0.4436  1.0184 -0.4523
15206TIP3   OH267032   6.802   5.606   4.137 -0.0358 -0.3211 -0.2843
15206TIP3    H167033   6.837   5.682   4.183 -1.1969  0.7141 -1.0439
15206TIP3    H267034   6.836   5.530   4.185  0.8692  0.6769  0.6883
15207TIP3   OH267035   2.326   4.236   3.027  0.4858 -0.4814  0.8593
15207TIP3    H167036   2.317   4.170   3.095  0.2120 -0.5342  0.7737
15207TIP3    H267037   2.413   4.272   3.040  1.1577 -1.7803  0.0787
15208TIP3   OH267038   6.494   6.568  13.329  0.2724  0.0793 -0.7322
15208TIP3    H167039   6.496   6.472  13.332 -1.3797  0.0368 -0.4095
15208TIP3    H267040   6.574   6.591  13.282  0.2351 -1.4911 -1.6469
15209TIP3   OH267041   0.384   0.524   5.229  0.5720  0.0879 -0.4650
15209TIP3    H167042   0.393   0.594   5.164  2.3756 -0.5601 -0.9874
15209TIP3    H267043   0.474   0.493   5.242  0.1064 -0.5588  1.5128
15210TIP3   OH267044   0.730   5.698  12.465 -0.3333 -0.7590 -0.7313
15210TIP3    H167045   0.712   5.611  12.500  0.7520 -1.0624 -0.8689
15210TIP3    H267046   0.662   5.755  12.502 -1.1360 -1.6871 -0.7560
15211TIP3   OH267047   5.269   2.138   1.913  0.3671  0.1101  0.8469
15211TIP3    H167048   5.226   2.192   1.979  1.5642  1.4785  0.5652
15211TIP3    H267049   5.200   2.083   1.878 -1.0583  1.8838  0.7407
15212TIP3   OH267050   5.130   5.114   2.805 -0.0541  0.5795  0.3511
15212TIP3    H167051   5.101   5.201   2.780  0.4554  0.3215 -1.2623
15212TIP3    H267052   5.057   5.057   2.779 -0.0313  0.4311  0.6105
15213TIP3   OH267053   4.611   0.885   2.991 -0.0722  0.9151 -0.3695
15213TIP3    H167054   4.608   0.889   3.087  0.2344  0.4350 -0.3377
15213TIP3    H267055   4.519   0.893   2.964 -0.2151  0.5076 -0.0143
15214TIP3   OH267056   2.058   4.805   5.267  0.3247  0.0812  0.2785
15214TIP3    H167057   1.977   4.846   5.237  1.4021  0.9336 -1.7336
15214TIP3    H267058   2.036   4.766   5.351 -1.5911  2.1568  0.8546
15215TIP3   OH267059   3.738   2.894  11.425  0.1882 -0.3781 -0.3604
15215TIP3    H167060   3.668   2.957  11.411  0.0145 -0.4252  0.2764
15215TIP3    H267061   3.784   2.891  11.341 -0.2249  0.0715 -0.6102
15216TIP3   OH267062   5.148   5.206  15.565  0.2026 -0.3612  0.0803
15216TIP3    H167063   5.176   5.174  15.651  0.9212 -1.8223 -0.6608
15216TIP3    H267064   5.223   5.256  15.532 -0.3489  0.8447  0.5867
15217TIP3   OH267065   0.009   5.232  13.860 -0.2083 -0.0170 -0.0072
15217TIP3    H167066  -0.049   5.201  13.929 -0.9389  2.1641  0.4661
15217TIP3    H267067   0.027   5.156  13.806 -2.2450 -1.0884  0.7456
15218TIP3   OH267068   2.323   4.631   5.104  0.1563  0.2365  0.0729
15218TIP3    H167069   2.311   4.586   5.188 -1.2126 -2.4080 -1.3982
15218TIP3    H267070   2.251   4.694   5.099 -0.4173 -0.3803  0.4361
15219TIP3   OH267071   1.593   5.972  15.361 -0.2387  0.2844 -0.1664
15219TIP3    H167072   1.518   5.986  15.419 -0.4935 -4.9720  1.3665
15219TIP3    H267073   1.660   5.932  15.417  2.0209  0.7581 -2.3549
15220TIP3   OH267074   1.458   2.153   0.811  0.0829 -0.1846  0.0902
15220TIP3    H167075   1.411   2.187   0.887 -0.2750  2.1245 -1.0620
15220TIP3    H267076   1.551   2.167   0.832  0.0360 -0.3729  0.4354
15221TIP3   OH267077   5.452   3.442   3.060  0.0624  0.3436 -0.7301
15221TIP3    H167078   5.406   3.363   3.033  1.7734 -0.4950 -1.3345
15221TIP3    H267079   5.384   3.497   3.100 -0.9910 -1.7948  0.5647
15222TIP3   OH267080   1.029   5.339  11.349 -0.2419 -0.4917 -0.3527
15222TIP3    H167081   1.048   5.311  11.260  1.3507  0.4306 -0.3392
15222TIP3    H267082   1.115   5.343  11.392 -0.8305  0.4496  0.7985
15223TIP3   OH267083   0.237   1.513  16.248 -0.4924 -0.0721 -0.7834
15223TIP3    H167084   0.257   1.435  16.301 -0.9061 -0.0518 -0.5939
15223TIP3    H267085   0.248   1.586  16.309 -1.0678 -0.0551 -0.6971
15224TIP3   OH267086   4.178   3.043  15.510  0.2888 -0.4447  0.0111
15224TIP3    H167087   4.240   3.105  15.547 -1.1088 -0.2205  2.2169
15224TIP3    H267088   4.231   2.984  15.457  2.3994 -0.3137  1.8377
15225TIP3   OH267089   5.955   3.421  11.464 -0.1046  0.2389 -1.1438
15225TIP3    H167090   5.910   3.419  11.549  0.3043  0.4091 -0.9210
15225TIP3    H267091   6.004   3.339  11.462  0.5554  0.6160 -0.8434
15226TIP3   OH267092   1.249   3.248   4.749 -0.2197 -0.0583 -0.1538
15226TIP3    H167093   1.175   3.290   4.704 -0.0532 -0.7901 -1.1480
15226TIP3    H267094   1.314   3.318   4.759 -0.4869  0.2522 -0.5556
15227TIP3   OH267095   1.501   2.583   5.358  0.8294 -0.8496  0.3563
15227TIP3    H167096   1.493   2.530   5.437 -0.7356 -0.3352  0.5788
15227TIP3    H267097   1.586   2.625   5.366  0.2100  0.1557  2.4195
15228TIP3   OH267098   6.747   0.648  11.391 -0.1695  0.0388  0.7642
15228TIP3    H167099   6.781   0.711  11.328 -2.1177  1.1056  0.6819
15228TIP3    H267100   6.768   0.563  11.353 -2.6009  0.5912 -2.2469
15229TIP3   OH267101   3.051   3.893   2.982 -0.5434  0.4602 -0.4532
15229TIP3    H167102   2.961   3.862   2.971 -0.6443  0.6991 -0.3009
15229TIP3    H267103   3.058   3.918   3.074 -0.6923  1.5784 -0.7234
15230TIP3   OH267104   0.078   4.665  14.114 -0.0476  0.5792 -0.2007
15230TIP3    H167105   0.065   4.683  14.021  0.3194 -0.5056 -0.4800
15230TIP3    H267106   0.019   4.592  14.133 -0.0436  0.7273  0.3884
15231TIP3   OH267107   4.781   3.865  13.889 -0.1126  0.1495 -0.2330
15231TIP3    H167108   4.830   3.931  13.839 -1.2072  1.1374 -0.0441
15231TIP3    H267109   4.728   3.916  13.950 -0.7022 -0.9385  0.1877
15232TIP3   OH267110   6.245   1.389   0.464  0.0790 -0.2893  0.1337
15232TIP3    H167111   6.298   1.373   0.386 -0.7679 -2.7876 -0.0291
15232TIP3    H267112   6.161   1.419   0.430 -0.2244 -1.1890  0.0482
15233TIP3   OH267113   6.331   1.083  14.848 -0.5820  0.3483  0.1671
15233TIP3    H167114   6.342   0.988  14.856 -0.6081  0.2133 -1.2214
15233TIP3    H267115   6.290   1.109  14.930 -0.4811 -0.8241  0.6088
15234TIP3   OH267116   2.296   6.134   1.265 -0.0863  0.3315 -0.2406
15234TIP3    H167117   2.272   6.050   1.227  0.0867 -0.2416  0.8817
15234TIP3    H267118   2.267   6.199   1.200  0.0815 -0.5946 -1.2705
15235TIP3   OH267119   5.692   6.807   1.676 -0.4922 -0.0184  0.3974
15235TIP3    H167120   5.685   6.720   1.635 -0.2205  0.1652 -0.0475
15235TIP3    H267121   5.705   6.867   1.603 -1.5887  0.5195  0.6193
15236TIP3   OH267122   0.235   4.923  16.149  0.7299  0.1825 -0.2241
15236TIP3    H167123   0.277   4.922  16.064  0.5216 -3.2835 -0.4181
15236TIP3    H267124   0.305   4.948  16.210  0.7708  3.1298 -1.3516
15237TIP3   OH267125   4.816   4.544   3.246 -0.0115  0.4838  0.3170
15237TIP3    H167126   4.724   4.516   3.241  0.6073 -1.4973 -1.1106
15237TIP3    H267127   4.837   4.573   3.157  1.2100 -0.6856  0.2092
15238TIP3   OH267128   0.148   0.574   2.257  0.5208  0.1379  0.8283
15238TIP3    H167129   0.202   0.597   2.181  0.0040  0.6059  0.5957
15238TIP3    H267130   0.099   0.497   2.228 -1.6445  1.8311 -0.3092
15239TIP3   OH267131   4.758   6.554  14.958  0.3327  0.4264  0.2002
15239TIP3    H167132   4.850   6.544  14.932  0.2156 -0.1899  0.0082
15239TIP3    H267133   4.762   6.566  15.053  0.4575 -3.0633  0.7698
15240TIP3   OH267134   5.746   0.459  15.459 -0.1128  0.3113 -0.3594
15240TIP3    H167135   5.695   0.504  15.391 -0.2623  0.5427 -0.0972
15240TIP3    H267136   5.792   0.390  15.412 -2.1345 -1.1420 -0.3152
15241TIP3   OH267137   5.384   3.733   1.397 -0.4751  0.3776 -0.1166
15241TIP3    H167138   5.291   3.740   1.420 -0.6988 -2.3920  0.2774
15241TIP3    H267139   5.426   3.805   1.442 -2.3931  1.5545 -0.0909
15242TIP3   OH267140   1.765   1.444  13.569 -0.1719 -0.3522 -0.3952
15242TIP3    H167141   1.740   1.356  13.542 -0.5494 -0.2792 -0.2906
15242TIP3    H267142   1.696   1.471  13.631  0.0691 -0.0789 -0.2428
15243TIP3   OH267143   3.728   1.603  14.522  0.4268 -0.5460 -0.6788
15243TIP3    H167144   3.804   1.545  14.515  0.3805 -0.7305  0.2975
15243TIP3    H267145   3.747   1.661  14.595 -0.6211 -1.0048 -0.0063
15244TIP3   OH267146   1.089   4.711   1.477 -0.1857  0.1222  0.0675
15244TIP3    H167147   1.180   4.728   1.455  0.1346 -1.3220  0.2124
15244TIP3    H267148   1.073   4.763   1.556  0.8294 -0.4431  0.6589
15245TIP3   OH267149   2.497   0.077  12.240 -0.5635  0.2459 -0.0448
15245TIP3    H167150   2.566   0.102  12.178 -0.4815  1.5011  0.5315
15245TIP3    H267151   2.545   0.052  12.320 -0.6298 -1.9686 -0.6258
15246TIP3   OH267152   1.861   2.646   4.773 -0.4303 -0.0667  0.1099
15246TIP3    H167153   1.848   2.551   4.766 -1.3412  0.2108 -4.0277
15246TIP3    H267154   1.832   2.667   4.862 -3.6535 -3.2027  0.0086
15247TIP3   OH267155   6.643   4.505  15.871 -0.5838  0.4331 -0.6471
15247TIP3    H167156   6.579   4.511  15.942 -0.7664  0.2150 -0.7904
15247TIP3    H267157   6.648   4.593  15.836 -0.5394  0.5282 -0.4001
15248TIP3   OH267158   6.746   3.102  16.409  0.4371 -0.6184  0.2467
15248TIP3    H167159   6.690   3.025  16.423 -0.7150 -0.0865 -1.1512
15248TIP3    H267160   6.687   3.176  16.419  0.5478 -0.0683 -2.3699
15249TIP3   OH267161   5.962   4.893   1.919  0.4875 -0.5486 -0.0904
15249TIP3    H167162   6.007   4.858   1.996 -2.5724 -1.3577  1.4696
15249TIP3    H267163   5.915   4.819   1.882 -0.6671  0.5149 -0.8443
15250TIP3   OH267164   1.601   2.806  12.675  0.0641  0.1374 -0.1380
15250TIP3    H167165   1.691   2.833  12.694 -0.5297  2.0559  0.1882
15250TIP3    H267166   1.601   2.711  12.690  2.3071 -0.1346 -1.3577
15251TIP3   OH267167   1.020   3.046   4.796 -0.3346 -0.1430  0.1735
15251TIP3    H167168   1.045   2.981   4.862 -0.8681  0.6529  1.1896
15251TIP3    H267169   1.052   3.129   4.830 -2.4927  0.6076  0.5449
15252TIP3   OH267170   3.125   4.738  16.806 -0.2606 -0.6614 -0.3286
15252TIP3    H167171   3.135   4.692  16.723  0.7925 -0.8878 -0.0917
15252TIP3    H267172   3.182   4.690  16.867 -0.9509 -0.4454  0.5000
15253TIP3   OH267173   0.124   4.257  14.321  0.2546 -0.1226  0.3512
15253TIP3    H167174   0.047   4.307  14.350  0.7147  0.2692  0.9335
15253TIP3    H267175   0.129   4.274  14.227 -0.3046 -0.0615  0.3253
15254TIP3   OH267176   6.685   6.221   4.435  0.2620 -0.1172 -0.0426
15254TIP3    H167177   6.685   6.316   4.448  0.1734 -0.0657 -0.4020
15254TIP3    H267178   6.726   6.185   4.514  1.1802  0.2783 -0.3223
15255TIP3   OH267179   4.677   3.345   5.453  0.0153 -0.4191 -0.3609
15255TIP3    H167180   4.631   3.423   5.484  0.3202  0.0929 -1.1469
15255TIP3    H267181   4.641   3.273   5.505 -0.3526  0.2263  0.3006
15256TIP3   OH267182   1.491   0.386   1.879 -0.6665 -0.0673  0.0845
15256TIP3    H167183   1.558   0.322   1.900  0.3623  0.2245 -2.0598
15256TIP3    H267184   1.442   0.347   1.807 -0.1889  1.3837 -1.0902
15257TIP3   OH267185   6.740   3.223   2.506 -0.4074 -0.1746 -0.5556
15257TIP3    H167186   6.659   3.272   2.518  1.4885  2.8220  1.2347
15257TIP3    H267187   6.755   3.222   2.412 -1.7255  0.5683 -0.7930
15258TIP3   OH267188   2.112   2.292   5.018  0.3154 -0.1984 -0.0984
15258TIP3    H167189   2.183   2.285   4.954 -0.1414  1.2650 -0.8115
15258TIP3    H267190   2.155   2.278   5.103  1.3397 -0.0085 -0.5672
15259TIP3   OH267191   1.571   0.612   1.712 -0.0831 -0.5682 -0.3731
15259TIP3    H167192   1.537   0.535   1.758 -0.2294 -0.7839 -0.8342
15259TIP3    H267193   1.539   0.602   1.623  1.1858 -0.7741 -0.8201
15260TIP3   OH267194   1.337   4.384  13.025  0.0720 -0.4449 -0.0409
15260TIP3    H167195   1.417   4.419  12.986 -0.6132  0.4538 -0.6801
15260TIP3    H267196   1.361   4.366  13.116  1.1398 -0.6897 -0.3564
15261TIP3   OH267197   1.515   5.611   4.423 -0.4089 -0.0096 -0.1609
15261TIP3    H167198   1.550   5.608   4.334  3.3360  0.7100  1.1233
15261TIP3    H267199   1.540   5.697   4.456 -0.9965 -0.5725  1.8734
15262TIP3   OH267200   4.996   2.126  11.031  0.0521  0.0444  0.3191
15262TIP3    H167201   4.982   2.099  10.939  0.6765 -0.1498  0.2776
15262TIP3    H267202   4.946   2.061  11.082 -1.0283  0.6696  0.0914
15263TIP3   OH267203   6.233   6.461  11.529  0.1529 -0.2476 -0.1562
15263TIP3    H167204   6.289   6.522  11.577 -1.0740  1.8608 -1.2718
15263TIP3    H267205   6.192   6.407  11.597  2.0772 -0.5964  0.7862
15264TIP3   OH267206   4.046   1.398  15.648 -0.3212  0.0342  0.3118
15264TIP3    H167207   4.068   1.322  15.593  0.6626 -1.1960  2.2898
15264TIP3    H267208   4.123   1.455  15.643 -0.4998  0.2414 -0.0918
15265TIP3   OH267209   5.200   3.397  15.934  0.0240  0.3422  0.0730
15265TIP3    H167210   5.201   3.303  15.950  0.4177  0.4888  1.0070
15265TIP3    H267211   5.251   3.409  15.854  3.3950  0.0629  2.0165
15266TIP3   OH267212   3.101   4.648   5.708  0.8226  0.1293  0.1451
15266TIP3    H167213   3.057   4.569   5.674  0.7167  0.1362  0.2661
15266TIP3    H267214   3.180   4.614   5.751 -0.1480 -0.1133  1.8452
15267TIP3   OH267215   6.683   3.034   2.866 -0.5699 -0.0408  0.0259
15267TIP3    H167216   6.743   3.104   2.890 -0.1955 -0.4455  0.2746
15267TIP3    H267217   6.739   2.964   2.833 -0.9361 -0.2498 -0.1596
15268TIP3   OH267218   0.520   4.013   4.101 -0.1932 -0.2578 -0.5774
15268TIP3    H167219   0.473   3.960   4.036 -0.0672 -0.5556 -0.4312
15268TIP3    H267220   0.586   4.060   4.050 -0.9352  0.5066 -0.8477
15269TIP3   OH267221   3.856   3.757  11.562  0.1691  0.4091  0.3005
15269TIP3    H167222   3.773   3.768  11.516 -0.6282 -0.2599  1.5267
15269TIP3    H267223   3.838   3.691  11.629  1.7639  0.0684  0.4298
15270TIP3   OH267224   2.174   6.490   3.588 -0.4576 -0.6199  0.1962
15270TIP3    H167225   2.126   6.466   3.668 -2.1459  0.1301 -0.5389
15270TIP3    H267226   2.117   6.553   3.544  1.1409  0.1644 -0.8567
15271TIP3   OH267227   0.351   2.763  16.464 -0.0439 -0.4713  0.1284
15271TIP3    H167228   0.297   2.840  16.449 -1.6014 -1.3038  1.2167
15271TIP3    H267229   0.297   2.689  16.432  1.1603 -1.1822 -0.3410
15272TIP3   OH267230   0.031   2.545  12.208 -0.6064 -0.4644 -0.3040
15272TIP3    H167231   0.025   2.607  12.281  1.2077 -1.5217  0.8184
15272TIP3    H267232   0.098   2.582  12.151 -0.3031 -0.8491 -0.1965
15273TIP3   OH267233   2.714   3.200   2.460  0.2025 -0.0773  0.2567
15273TIP3    H167234   2.770   3.175   2.534  0.7049 -2.9495 -0.9452
15273TIP3    H267235   2.775   3.209   2.387 -0.4995  0.8787 -0.2349
15274TIP3   OH267236   4.935   0.265  12.403  0.5573  0.1081  0.3685
15274TIP3    H167237   4.996   0.261  12.329  1.5582 -3.2942  1.1562
15274TIP3    H267238   4.991   0.271  12.480 -0.3644  1.3561  0.9731
15275TIP3   OH267239   3.025   6.264  12.129 -0.0063 -0.0042 -0.3915
15275TIP3    H167240   2.952   6.202  12.130  0.1474 -0.1865 -0.6669
15275TIP3    H267241   3.062   6.257  12.041  0.5712 -0.1763 -0.1386
15276TIP3   OH267242   0.840   2.381   0.668 -0.2659  0.2038 -0.0143
15276TIP3    H167243   0.823   2.366   0.761  0.3524 -2.3618 -0.2410
15276TIP3    H267244   0.794   2.463   0.648  1.2696  1.9708  2.9693
15277TIP3   OH267245   4.111   6.640  15.401  0.0931 -0.3273  0.7133
15277TIP3    H167246   4.132   6.733  15.402  0.0309 -0.2940 -0.2245
15277TIP3    H267247   4.017   6.635  15.416 -0.1320 -0.1440 -0.4864
15278TIP3   OH267248   0.251   6.636  12.698  0.5769  0.6800 -0.3454
15278TIP3    H167249   0.262   6.720  12.653  2.8376 -0.3082 -1.8109
15278TIP3    H267250   0.180   6.592  12.650  2.3629  0.0043 -2.5275
15279TIP3   OH267251   1.966   3.175  12.109  0.3375 -0.4948  0.1751
15279TIP3    H167252   2.045   3.221  12.135 -0.4734  1.4867 -0.6705
15279TIP3    H267253   1.943   3.211  12.023  0.1912 -3.2583 -1.0713
15280TIP3   OH267254   2.078   3.343  10.863 -0.0732 -0.2300 -0.2840
15280TIP3    H167255   2.111   3.323  10.775  1.6561 -1.4885  0.5945
15280TIP3    H267256   1.986   3.364  10.849  0.1695 -0.3185 -2.4068
15281TIP3   OH267257   2.035   3.603  13.255 -0.1082 -0.3965  0.0647
15281TIP3    H167258   2.107   3.597  13.319  0.0767 -0.7455 -0.1697
15281TIP3    H267259   1.963   3.641  13.304  0.3401  0.2723  0.2149
15282TIP3   OH267260   2.622   1.596   1.498 -0.5040  0.2358  0.0287
15282TIP3    H167261   2.606   1.543   1.420  1.8538  2.2645 -1.9641
15282TIP3    H267262   2.628   1.686   1.467  2.5617  0.9492  2.1339
15283TIP3   OH267263   2.705   1.557  17.120  0.1252  0.1571 -0.8089
15283TIP3    H167264   2.745   1.617  17.184 -1.0038 -0.3355  0.4131
15283TIP3    H267265   2.675   1.614  17.049  0.2835  0.8812 -0.3061
15284TIP3   OH267266   0.803   3.297   0.702  0.2534  0.0940 -0.1901
15284TIP3    H167267   0.782   3.270   0.612  0.1257  0.8344 -0.3897
15284TIP3    H267268   0.805   3.216   0.752  0.2198 -0.3151 -0.8452
15285TIP3   OH267269   1.007   5.117   3.521 -0.0754 -0.9751  0.5043
15285TIP3    H167270   0.931   5.073   3.559 -1.0705  0.0700 -0.1851
15285TIP3    H267271   1.012   5.201   3.567  1.5735 -1.6003  1.5573
15286TIP3   OH267272   0.147   4.149   1.422  0.2373  0.5840 -0.8301
15286TIP3    H167273   0.214   4.168   1.488 -1.8564 -0.3779  1.7911
15286TIP3    H267274   0.098   4.231   1.415 -0.4360  0.2691 -0.0024
15287TIP3   OH267275   1.125   3.014   0.192  0.8805 -0.1971  0.2325
15287TIP3    H167276   1.150   3.015   0.284  0.5156 -1.1122  0.3520
15287TIP3    H267277   1.035   3.046   0.192  0.1347 -2.1694  0.4603
15288TIP3   OH267278   3.366   3.324   2.510 -0.3201 -0.1155 -0.0011
15288TIP3    H167279   3.300   3.386   2.478 -1.7771 -1.9015 -0.6626
15288TIP3    H267280   3.446   3.350   2.466 -0.8732  1.3156 -0.2176
15289TIP3   OH267281   5.915   6.369   5.695  0.1909  0.2832 -0.0521
15289TIP3    H167282   5.966   6.366   5.776  1.1853  1.3323 -0.6148
15289TIP3    H267283   5.978   6.352   5.626 -0.9814 -2.5173 -0.5562
15290TIP3   OH267284   6.160   4.583   4.028  0.4729  0.3559  0.3064
15290TIP3    H167285   6.136   4.587   3.936  2.9124  1.2913 -0.3657
15290TIP3    H267286   6.154   4.490   4.050  3.1753 -0.4628 -1.8618
15291TIP3   OH267287   0.344   1.193   2.292 -0.2663 -0.2619  0.2435
15291TIP3    H167288   0.370   1.266   2.236 -0.2347 -0.6461 -0.2461
15291TIP3    H267289   0.313   1.126   2.231 -0.8828 -0.4220  0.7283
15292TIP3   OH267290   3.304   5.405   2.230  0.9632  0.2359  0.1993
15292TIP3    H167291   3.259   5.464   2.170 -0.7137 -0.4539  0.7239
15292TIP3    H267292   3.298   5.449   2.315  0.6751 -0.1856  0.3969
15293TIP3   OH267293   1.938   0.686  12.214  0.4042 -0.3321  0.1706
15293TIP3    H167294   2.020   0.666  12.260  0.5860  0.3887  0.1704
15293TIP3    H267295   1.920   0.777  12.237 -0.6698 -0.6404  0.5809
15294TIP3   OH267296   4.584   6.058   5.215  0.6104 -0.0956  0.0189
15294TIP3    H167297   4.547   5.981   5.171 -0.1771  1.1441 -1.5933
15294TIP3    H267298   4.508   6.103   5.251  1.2042 -0.8862  2.4852
15295TIP3   OH267299   1.380   2.939   5.927 -0.1586 -0.7676 -0.6712
15295TIP3    H167300   1.458   2.974   5.884  0.7967 -1.4223  0.4620
15295TIP3    H267301   1.336   2.888   5.860  1.6017 -2.2582 -0.7643
15296TIP3   OH267302   2.412   6.579   3.475 -0.0661  0.0624 -0.3205
15296TIP3    H167303   2.323   6.544   3.476 -0.0577 -0.1105 -2.0593
15296TIP3    H267304   2.427   6.609   3.564 -0.8103 -2.5066  0.7673
15297TIP3   OH267305   5.244   0.061   2.507  0.3404 -0.0101  0.1635
15297TIP3    H167306   5.249   0.026   2.418  1.7085 -0.7429  0.4939
15297TIP3    H267307   5.227  -0.015   2.562  1.5126  0.1080  0.7150
15298TIP3   OH267308   4.453   6.736  13.672 -0.0482  0.6016  0.2940
15298TIP3    H167309   4.358   6.742  13.657 -0.2131  0.3504  1.1645
15298TIP3    H267310   4.480   6.826  13.689 -0.2963  0.5682  0.9091
15299TIP3   OH267311   5.264   0.356  12.169 -0.0828 -0.2884  0.0105
15299TIP3    H167312   5.255   0.430  12.108 -0.9014 -0.2901  0.1176
15299TIP3    H267313   5.327   0.298  12.127  2.5207  1.5898  1.0467
15300TIP3   OH267314   0.114   5.698  11.657 -0.3000  0.0763 -0.5475
15300TIP3    H167315   0.205   5.680  11.678 -0.3318  0.7245  0.1737
15300TIP3    H267316   0.097   5.647  11.578  0.2816 -1.1569  0.0998
15301TIP3   OH267317   5.629   1.397  15.817 -0.4402  0.0801  0.4293
15301TIP3    H167318   5.703   1.452  15.793  0.3103 -1.3427 -0.6463
15301TIP3    H267319   5.666   1.333  15.878 -0.9698 -0.1887  0.4746
15302TIP3   OH267320   2.659   4.893  15.455  0.0513  0.6744  0.5312
15302TIP3    H167321   2.704   4.938  15.527  0.8488  1.9315 -0.6985
15302TIP3    H267322   2.727   4.879  15.389 -0.7207 -0.2128 -0.1067
15303TIP3   OH267323   0.261   1.377   2.787  0.1403 -0.4202  0.2303
15303TIP3    H167324   0.247   1.303   2.728 -0.2712 -0.3772  0.2745
15303TIP3    H267325   0.295   1.338   2.868 -2.0038 -0.8137  1.0168
15304TIP3   OH267326   4.973   5.161   0.568  0.3311  0.0986  0.4829
15304TIP3    H167327   5.057   5.185   0.606  0.0396  0.3663  0.9781
15304TIP3    H267328   4.948   5.234   0.512  2.0968 -1.4615 -2.5946
15305TIP3   OH267329   1.885   3.079  14.852  0.5193  0.2505  0.7051
15305TIP3    H167330   1.925   3.085  14.938 -1.5972 -0.8381  1.8403
15305TIP3    H267331   1.813   3.142  14.854  1.0931  0.9940 -0.6803
15306TIP3   OH267332   5.830   2.651   0.094  0.1007  0.2974 -0.1711
15306TIP3    H167333   5.902   2.648   0.156 -0.8997 -0.3222  1.0082
15306TIP3    H267334   5.850   2.583   0.030  0.5564  0.1168  0.1614
15307TIP3   OH267335   1.863   1.316  13.017  0.4648  0.5153  0.4844
15307TIP3    H167336   1.818   1.307  12.933  0.4462 -0.7430  0.6051
15307TIP3    H267337   1.954   1.292  12.998 -0.2964 -4.2054  1.5423
15308TIP3   OH267338   5.469   6.693  10.274  0.0259  0.2128  0.4116
15308TIP3    H167339   5.388   6.654  10.306 -0.1491  0.2067 -0.0317
15308TIP3    H267340   5.464   6.784  10.303 -0.5408  0.4326 -0.3324
15309TIP3   OH267341   3.216   1.508   4.519  0.3015  0.4688 -0.7262
15309TIP3    H167342   3.155   1.575   4.489  0.6281  0.6741 -0.9429
15309TIP3    H267343   3.214   1.440   4.451  0.1835  0.3925 -0.6470
15310TIP3   OH267344   2.345   6.089   5.006  0.1565 -0.4047  0.8537
15310TIP3    H167345   2.410   6.159   4.997 -0.1092 -0.1908  0.6024
15310TIP3    H267346   2.334   6.054   4.918 -0.1205 -0.3964  0.8855
15311TIP3   OH267347   5.862   1.383   6.282 -0.3331 -0.1988  0.0100
15311TIP3    H167348   5.878   1.477   6.290 -1.3633  0.0271 -0.4676
15311TIP3    H267349   5.792   1.366   6.345 -0.8769 -0.4384 -0.6477
15312TIP3   OH267350   4.271   3.332   5.918  0.7913  0.1141  0.2868
15312TIP3    H167351   4.302   3.325   6.009  1.6952  1.7412  0.1508
15312TIP3    H267352   4.277   3.426   5.899 -1.2716  0.0604 -0.8266
15313TIP3   OH267353   5.155   3.410   5.497 -0.1554  0.0704 -0.7898
15313TIP3    H167354   5.080   3.373   5.544  0.0297  1.0390  0.2879
15313TIP3    H267355   5.168   3.350   5.423 -0.2147 -1.6942  0.5676
15314TIP3   OH267356   2.488   5.277   6.185  0.0076 -0.0773 -0.3513
15314TIP3    H167357   2.581   5.265   6.203  0.8039  3.5125 -1.3362
15314TIP3    H267358   2.468   5.365   6.218 -3.3457 -1.0643  0.7079
15315TIP3   OH267359   6.791   5.642  11.906  0.3196 -0.0207  0.1542
15315TIP3    H167360   6.741   5.635  11.824  0.8481 -0.2136 -0.1516
15315TIP3    H267361   6.862   5.703  11.885  2.5795 -2.7133 -0.6091
15316TIP3   OH267362   0.942   3.133  13.822  0.1359 -0.1898  0.1871
15316TIP3    H167363   0.965   3.188  13.747 -0.5163  0.4901  0.4823
15316TIP3    H267364   0.938   3.193  13.896  0.7739 -0.8593  0.7802
15317TIP3   OH267365   1.084   2.877   1.604  0.4961  0.1086 -0.0764
15317TIP3    H167366   1.113   2.932   1.677  1.3205 -2.1671  1.4324
15317TIP3    H267367   1.135   2.908   1.529 -1.2569  3.3281 -0.1140
15318TIP3   OH267368   2.448   4.874   1.340  0.0571 -0.3000  0.0402
15318TIP3    H167369   2.509   4.945   1.358 -1.7041  0.8379  1.9720
15318TIP3    H267370   2.439   4.828   1.423  0.6364 -2.4307 -1.0022
15319TIP3   OH267371   6.036   0.980   4.441 -0.0688  0.3516  0.5426
15319TIP3    H167372   6.052   0.912   4.376  1.2594  1.4011 -0.2793
15319TIP3    H267373   6.084   0.951   4.519  1.4944  0.8781 -0.1871
15320TIP3   OH267374   2.176   5.698   1.058 -0.0955 -0.6351  0.1143
15320TIP3    H167375   2.097   5.705   1.003 -0.6580  0.8204  1.0473
15320TIP3    H267376   2.201   5.606   1.052 -2.5027 -1.4029  0.6405
15321TIP3   OH267377   5.313   3.011   1.123  0.3876  0.2025  0.0510
15321TIP3    H167378   5.220   3.022   1.144  0.0232  0.1810 -1.4166
15321TIP3    H267379   5.347   2.957   1.194 -0.2403  1.8395  1.6899
15322TIP3   OH267380   2.266   2.735  10.432 -0.3873 -0.3035 -0.4495
15322TIP3    H167381   2.292   2.663  10.374  0.0260  0.5977 -1.4410
15322TIP3    H267382   2.198   2.699  10.488  1.5702 -2.1995  0.8495
15323TIP3   OH267383   2.926   1.093   1.281 -0.2671  0.1491  0.4140
15323TIP3    H167384   3.012   1.102   1.241 -0.5069 -0.9676 -0.4130
15323TIP3    H267385   2.908   1.179   1.318  0.7104  0.7361 -0.4028
15324TIP3   OH267386   6.691   1.205   5.077 -0.7824 -0.4881 -0.4915
15324TIP3    H167387   6.696   1.110   5.079  2.3129 -0.4112  0.8942
15324TIP3    H267388   6.631   1.227   5.148  0.1787 -1.4077  0.6509
15325TIP3   OH267389   0.939   5.279   0.303 -0.0238  0.5303  0.7546
15325TIP3    H167390   0.969   5.190   0.319 -0.6554  0.1075 -0.2875
15325TIP3    H267391   1.015   5.325   0.270 -0.0811 -0.0726 -0.2555
15326TIP3   OH267392   0.909   4.078  16.141 -0.1954 -0.1313  0.3785
15326TIP3    H167393   0.993   4.119  16.164 -0.1786 -0.7656  1.4676
15326TIP3    H267394   0.886   4.119  16.057  0.6584  0.8542  0.5953
15327TIP3   OH267395   5.782   3.095  13.057  0.4903 -0.2677 -0.1300
15327TIP3    H167396   5.832   3.131  12.984  0.6482  1.2870  0.7156
15327TIP3    H267397   5.810   3.003  13.062  1.2992 -0.1065 -1.2995
15328TIP3   OH267398   4.621   4.227  15.523  0.3624  0.3822  0.3355
15328TIP3    H167399   4.551   4.174  15.485  0.2063 -0.2603  1.4818
15328TIP3    H267400   4.580   4.271  15.597  1.4270 -0.8726  1.7147
15329TIP3   OH267401   5.340   4.816   4.878 -0.2165 -0.1786 -0.0008
15329TIP3    H167402   5.339   4.904   4.841  2.1492 -0.1618 -0.1693
15329TIP3    H267403   5.275   4.768   4.827 -0.7537  1.1730 -0.6357
15330TIP3   OH267404   0.129   5.161  12.833  0.0903 -0.0700  0.6038
15330TIP3    H167405   0.095   5.092  12.776 -0.3492 -0.7429  1.6625
15330TIP3    H267406   0.224   5.156  12.821  0.0397 -0.6176  0.3933
15331TIP3   OH267407   2.598   4.482  17.028  0.7820  0.0915 -0.3352
15331TIP3    H167408   2.520   4.497  16.976  0.0932 -1.2732  0.2373
15331TIP3    H267409   2.659   4.439  16.968 -0.8247 -3.5990  0.3666
15332TIP3   OH267410   5.165   4.934   0.562 -0.0236  0.4117  0.2191
15332TIP3    H167411   5.211   4.858   0.526 -0.1687 -0.6482  2.0943
15332TIP3    H267412   5.091   4.896   0.609  0.3032  1.6411  1.8088
15333TIP3   OH267413   2.787   0.233   3.380  0.0459  0.3617 -0.1723
15333TIP3    H167414   2.794   0.291   3.455 -2.0556 -0.4424  0.7148
15333TIP3    H267415   2.871   0.186   3.379  0.2413  0.6039  1.4778
15334TIP3   OH267416   4.197   1.925   4.105  0.5251  0.5085  0.9462
15334TIP3    H167417   4.124   1.869   4.132  0.6878 -0.9106 -1.2957
15334TIP3    H267418   4.155   2.000   4.064  0.3281  0.8499  1.7539
15335TIP3   OH267419   5.030   4.812  13.310  0.3295 -1.0335 -0.1096
15335TIP3    H167420   4.952   4.829  13.364 -0.2884  1.0431 -1.5183
15335TIP3    H267421   5.103   4.819  13.371 -0.3082  1.7246  0.4746
15336TIP3   OH267422   6.209   1.833  12.959 -0.2891  0.0294 -0.2689
15336TIP3    H167423   6.303   1.849  12.960 -0.1947 -0.5629  0.0370
15336TIP3    H267424   6.200   1.738  12.956 -0.8772  0.0708  0.0326
15337TIP3   OH267425   3.030   0.391  15.637 -0.2565 -0.3524 -0.2242
15337TIP3    H167426   2.971   0.322  15.665  1.5189 -2.1073 -0.6144
15337TIP3    H267427   3.096   0.347  15.583 -0.3781  2.0170 -2.5032
15338TIP3   OH267428   0.632   5.690  13.421 -0.3400 -0.0545  0.2545
15338TIP3    H167429   0.559   5.674  13.480  0.8992  1.5932  2.3953
15338TIP3    H267430   0.697   5.623  13.443 -0.4274 -0.3128 -0.2597
15339TIP3   OH267431   6.086   1.893  12.216  0.3469  0.2234  0.1912
15339TIP3    H167432   6.001   1.894  12.173  0.6253  0.9478 -0.3637
15339TIP3    H267433   6.150   1.894  12.144  0.8370 -0.6874  0.5915
15340TIP3   OH267434   4.841   5.901   0.037 -0.1050 -0.8194  0.0483
15340TIP3    H167435   4.876   5.824  -0.008 -0.3514 -0.2029 -1.2461
15340TIP3    H267436   4.771   5.866   0.093 -0.3790 -1.5174 -0.7120
15341TIP3   OH267437   6.759   2.817   6.570 -0.1501 -0.8763  0.3818
15341TIP3    H167438   6.722   2.731   6.590 -1.1935 -0.4919  0.1599
15341TIP3    H267439   6.740   2.869   6.647  0.9510 -0.9671  0.7387
15342TIP3   OH267440   0.034   6.219   4.220 -0.0246 -0.1553 -0.2284
15342TIP3    H167441  -0.001   6.178   4.299  0.7937  1.8015  1.2217
15342TIP3    H267442  -0.025   6.189   4.150 -1.0940 -1.5195  1.1732
15343TIP3   OH267443   0.188   6.362   1.985  0.3768  0.1695  0.3648
15343TIP3    H167444   0.217   6.314   1.907  0.6425  2.9352 -1.3483
15343TIP3    H267445   0.256   6.344   2.050  0.2294 -2.0908 -0.0068
15344TIP3   OH267446   2.763   1.439  11.317  0.3300  0.2920 -0.1815
15344TIP3    H167447   2.799   1.351  11.329  0.8624  0.7677  1.9943
15344TIP3    H267448   2.768   1.480  11.403 -1.5889  1.8487 -0.7209
15345TIP3   OH267449   1.478   2.428  10.311 -0.2838 -0.0435 -0.0667
15345TIP3    H167450   1.433   2.473  10.240 -1.0057 -2.8456 -1.5362
15345TIP3    H267451   1.411   2.416  10.378 -0.8765 -1.2697 -0.8408
15346TIP3   OH267452   1.278   6.188   2.498 -0.5602 -0.3450 -0.1560
15346TIP3    H167453   1.312   6.241   2.571  3.0276 -0.3466 -1.6031
15346TIP3    H267454   1.185   6.210   2.493 -0.3933  1.5734  2.7835
15347TIP3   OH267455   5.676   3.871   0.943 -0.3603  0.2305 -0.1022
15347TIP3    H167456   5.617   3.841   1.012  0.7199  0.0525  0.7698
15347TIP3    H267457   5.643   3.957   0.919 -0.2116  0.6974  1.2900
15348TIP3   OH267458   4.803   1.287   2.390  0.6242 -0.2740 -0.1507
15348TIP3    H167459   4.868   1.319   2.452  0.4227 -1.2422  0.5843
15348TIP3    H267460   4.764   1.211   2.433  0.8834 -1.3308 -1.7076
15349TIP3   OH267461   4.043   5.704   3.626  0.0141  0.0981 -0.0134
15349TIP3    H167462   4.071   5.774   3.566  0.2249  0.7960  0.8669
15349TIP3    H267463   4.030   5.628   3.570  0.5068  0.6452 -0.9002
15350TIP3   OH267464   3.473   1.745  15.481  0.0325  0.0702 -0.2637
15350TIP3    H167465   3.384   1.765  15.510  0.1255  1.5149 -0.9045
15350TIP3    H267466   3.518   1.719  15.561 -1.5903 -3.3471 -0.3002
15351TIP3   OH267467   6.150   1.424  14.958 -0.7232 -0.4365 -0.3437
15351TIP3    H167468   6.072   1.461  14.999  0.3805 -0.8177  2.2869
15351TIP3    H267469   6.217   1.491  14.967  0.2793 -1.5618  1.0680
15352TIP3   OH267470   6.557   3.549  15.400 -0.3747 -0.2243  0.2315
15352TIP3    H167471   6.522   3.511  15.319 -2.5988 -0.9287  1.4224
15352TIP3    H267472   6.538   3.643  15.392 -2.1171 -0.5026  0.5658
15353TIP3   OH267473   1.658   0.169  11.770 -0.1597 -0.2712  0.3978
15353TIP3    H167474   1.736   0.151  11.718 -0.1215 -1.6533  0.8994
15353TIP3    H267475   1.691   0.180  11.860 -0.5046 -0.4725  0.5500
15354TIP3   OH267476   1.949   2.202   2.122 -0.3956 -0.3930  0.2624
15354TIP3    H167477   1.935   2.251   2.041 -1.3035 -1.4759 -0.2786
15354TIP3    H267478   1.941   2.110   2.096  1.1742 -0.8435  1.2558
15355TIP3   OH267479   2.062   6.439   5.673  0.1448 -0.5344  0.7373
15355TIP3    H167480   2.025   6.406   5.756  1.4549 -0.0634  1.5302
15355TIP3    H267481   2.141   6.387   5.660 -0.1167 -0.6924 -0.3148
15356TIP3   OH267482   0.311   4.663   3.279  0.2319 -0.0902 -0.0319
15356TIP3    H167483   0.302   4.701   3.367  0.4776  1.2910 -0.5673
15356TIP3    H267484   0.341   4.574   3.294 -0.8195 -0.2604  1.3185
15357TIP3   OH267485   5.871   2.836  13.011  0.0585  0.1758 -0.1529
15357TIP3    H167486   5.950   2.859  12.962 -0.2887  1.5304 -0.1392
15357TIP3    H267487   5.808   2.811  12.945  0.2412 -0.0833 -0.2296
15358TIP3   OH267488   2.419   1.400  11.608 -0.2158 -0.1539 -0.1708
15358TIP3    H167489   2.478   1.381  11.681 -1.4428  0.4760  1.0143
15358TIP3    H267490   2.437   1.492  11.586 -0.6976  0.0184  0.1473
15359TIP3   OH267491   6.759   1.986  12.170 -0.3522  0.0041 -0.2316
15359TIP3    H167492   6.758   2.062  12.228 -2.4697  0.1592 -0.3989
15359TIP3    H267493   6.692   1.928  12.205  0.7795 -1.5437 -0.4826
15360TIP3   OH267494   4.876   4.841  12.543 -0.6393 -0.5714  0.2650
15360TIP3    H167495   4.861   4.842  12.449  0.8691  0.2646 -0.0105
15360TIP3    H267496   4.849   4.754  12.572 -1.7697 -0.6025 -0.8022
15361TIP3   OH267497   1.382   4.246  14.672  0.0609 -0.8467 -0.6320
15361TIP3    H167498   1.353   4.337  14.666 -0.5812 -0.6631  3.1082
15361TIP3    H267499   1.302   4.195  14.685  0.6335 -1.5891  0.1252
15362TIP3   OH267500   6.748   5.673  12.283  0.1113 -0.0835  0.5573
15362TIP3    H167501   6.774   5.596  12.333  1.7425  0.8237  1.1942
15362TIP3    H267502   6.767   5.651  12.192  1.2031 -0.2222  0.8030
15363TIP3   OH267503   3.151   1.256  12.059 -0.7684  0.4730 -0.0531
15363TIP3    H167504   3.162   1.268  12.153  0.2861 -0.7640 -0.0028
15363TIP3    H267505   3.100   1.175  12.051  1.3510 -0.8978 -0.5490
15364TIP3   OH267506   4.869   3.607  14.010  0.3034 -0.0362  0.2977
15364TIP3    H167507   4.963   3.618  14.025  0.4050 -0.0216 -0.3207
15364TIP3    H267508   4.838   3.695  13.989  0.1930 -0.0768  0.2908
15365TIP3   OH267509   1.908   2.544  14.243  0.3933  0.1707 -0.3229
15365TIP3    H167510   1.894   2.467  14.188 -3.5067 -1.3776  2.3546
15365TIP3    H267511   1.988   2.525  14.291  1.2292 -0.6591 -1.9860
15366TIP3   OH267512   3.263   6.542  14.880  0.0647 -0.1009 -0.0633
15366TIP3    H167513   3.190   6.486  14.853  0.5887 -1.1363  0.6142
15366TIP3    H267514   3.226   6.630  14.880 -0.9106 -0.4912 -0.6995
15367TIP3   OH267515   1.374   4.358   1.239  0.0092  0.1932  0.3778
15367TIP3    H167516   1.371   4.274   1.285 -0.2902 -0.0462 -0.0678
15367TIP3    H267517   1.309   4.412   1.285  0.4698  0.3107  0.9027
15368TIP3   OH267518   3.119   1.730   1.179 -0.0630 -0.1934 -0.2227
15368TIP3    H167519   3.032   1.752   1.212  0.5075  0.6403  0.8061
15368TIP3    H267520   3.114   1.637   1.158 -1.0911 -0.2449  0.1966
15369TIP3   OH267521   1.160   2.496   3.107  0.4785  0.0554 -0.6014
15369TIP3    H167522   1.156   2.512   3.013  2.3020 -0.1771 -0.7603
15369TIP3    H267523   1.096   2.427   3.123  1.3243 -1.0954 -1.9749
15370TIP3   OH267524   1.353   6.757   2.127 -0.1313  0.2236  0.0157
15370TIP3    H167525   1.261   6.751   2.099 -1.0494 -0.3112  2.7744
15370TIP3    H267526   1.372   6.670   2.163  1.3849  0.4290 -0.2249
15371TIP3   OH267527   2.049   2.689   0.777 -0.5724 -0.5671 -0.2916
15371TIP3    H167528   2.036   2.627   0.849  0.8940  1.0980  1.5138
15371TIP3    H267529   2.014   2.772   0.810  0.8118  0.4088 -1.1750
15372TIP3   OH267530   5.140   1.402   2.133 -0.3905 -0.2332  0.4023
15372TIP3    H167531   5.114   1.325   2.081 -0.3009  0.3248 -0.4864
15372TIP3    H267532   5.142   1.370   2.223 -2.4910 -0.7479  0.3321
15373TIP3   OH267533   6.146   1.693  11.348 -0.4349 -0.0002  0.2410
15373TIP3    H167534   6.084   1.736  11.407  1.5095  4.0777 -0.3615
15373TIP3    H267535   6.232   1.722  11.379  0.9089 -1.4595 -1.8832
15374TIP3   OH267536   6.150   2.641  11.438 -0.5758  0.9036 -0.8270
15374TIP3    H167537   6.142   2.555  11.481 -1.3475  1.0553 -0.6500
15374TIP3    H267538   6.144   2.621  11.344 -0.7842  0.7597 -0.7858
15375TIP3   OH267539   4.932   3.565   3.538 -0.3905  0.1593  0.3571
15375TIP3    H167540   4.892   3.491   3.584  1.0605 -0.6554  0.3638
15375TIP3    H267541   4.885   3.569   3.454  0.9320 -2.2438 -0.6190
15376TIP3   OH267542   5.142   1.052  14.534 -0.8141  0.1517 -0.3675
15376TIP3    H167543   5.206   0.982  14.550 -0.1947  0.8919  0.4631
15376TIP3    H267544   5.071   1.008  14.487  1.0116 -0.3725 -2.8782
15377TIP3   OH267545   6.362   5.669  16.219  0.1584 -0.3362  0.1963
15377TIP3    H167546   6.373   5.749  16.270 -0.7527  0.2801 -0.5200
15377TIP3    H267547   6.441   5.618  16.234  1.0339  0.9906  0.1657
15378TIP3   OH267548   3.473   0.615  15.421 -0.7000  0.2377  0.1638
15378TIP3    H167549   3.448   0.708  15.424 -3.3435 -0.2691 -2.1720
15378TIP3    H267550   3.438   0.579  15.503 -2.4464  0.7482 -0.3206
15379TIP3   OH267551   5.588   4.141  10.411 -0.1524  0.0778 -0.0254
15379TIP3    H167552   5.507   4.101  10.380 -0.7922  0.5095  1.0397
15379TIP3    H267553   5.559   4.215  10.464  0.9399  0.1172  0.5303
15380TIP3   OH267554   2.899   2.244  14.961  0.1406  0.3296  0.1528
15380TIP3    H167555   2.907   2.283  14.874 -0.3243 -0.3090 -0.1833
15380TIP3    H267556   2.947   2.303  15.018  0.8498  0.5014 -0.6107
15381TIP3   OH267557   1.086   6.410   3.082 -0.3609  0.4065 -0.0043
15381TIP3    H167558   1.044   6.325   3.072  0.9078 -0.4620  1.6853
15381TIP3    H267559   1.103   6.439   2.992  1.2180 -2.1579 -0.6271
15382TIP3   OH267560   1.059   1.063   3.103 -0.2808 -0.3834 -0.1382
15382TIP3    H167561   1.090   0.975   3.080  0.5682 -0.2684  0.5093
15382TIP3    H267562   1.083   1.117   3.027 -2.0868 -0.9464 -1.1733
15383TIP3   OH267563   2.278   3.581  14.702 -0.1607 -0.4469  0.2888
15383TIP3    H167564   2.372   3.597  14.702 -0.5697  2.3511 -0.2070
15383TIP3    H267565   2.262   3.532  14.622  0.8122 -0.5641  0.1583
15384TIP3   OH267566   4.857   4.186  13.553  0.3087 -0.1503 -0.6906
15384TIP3    H167567   4.775   4.176  13.505  0.1039 -0.1924 -0.3396
15384TIP3    H267568   4.874   4.281  13.552 -0.9036  0.1329  1.0954
15385TIP3   OH267569   1.600   3.412   2.796 -0.2308  0.1144  0.3226
15385TIP3    H167570   1.560   3.334   2.758  0.0857  0.0017  0.2111
15385TIP3    H267571   1.527   3.468   2.821 -0.4612 -0.2305  0.4241
15386TIP3   OH267572   6.090   5.126   4.629 -0.2814  0.4471 -0.4348
15386TIP3    H167573   6.008   5.120   4.679 -0.7886  1.8131 -1.0216
15386TIP3    H267574   6.064   5.169   4.547  0.8189 -0.2338 -1.1699
15387TIP3   OH267575   1.980   0.260  12.121 -0.1906 -0.7099 -0.2528
15387TIP3    H167576   1.945   0.327  12.062  2.1304 -0.1060 -1.0481
15387TIP3    H267577   1.969   0.297  12.208 -1.3418 -0.4757 -0.4834
15388TIP3   OH267578   1.040   2.701  12.399  0.0688 -0.4207 -0.3443
15388TIP3    H167579   1.083   2.742  12.474  0.0923  2.9869 -1.9936
15388TIP3    H267580   0.949   2.731  12.405  0.0902 -0.0028 -1.6457
15389TIP3   OH267581   0.724   1.383   5.974 -0.1922  0.2156  0.4590
15389TIP3    H167582   0.722   1.477   5.993 -1.0043  0.1578  0.7112
15389TIP3    H267583   0.678   1.343   6.049 -1.8824 -0.1781 -0.7279
15390TIP3   OH267584   0.711   6.053  16.005  0.7887 -0.4647 -0.5209
15390TIP3    H167585   0.763   5.977  16.030  1.0839 -0.1589 -0.1893
15390TIP3    H267586   0.649   6.020  15.940  0.4222 -1.1406  0.1582
15391TIP3   OH267587   3.301   6.624   5.123 -0.5993 -0.1670  0.7471
15391TIP3    H167588   3.257   6.609   5.206 -0.0835  2.6103  1.6302
15391TIP3    H267589   3.231   6.646   5.062 -0.7945  0.2415  1.1098
15392TIP3   OH267590   3.216   3.422  13.655  0.0921  0.2177 -0.4321
15392TIP3    H167591   3.170   3.504  13.635  0.7201  1.0425  1.3210
15392TIP3    H267592   3.147   3.355  13.653 -1.0892  1.3047  1.3788
15393TIP3   OH267593   5.896   3.091   6.572  0.2233 -0.0817  0.9878
15393TIP3    H167594   5.906   3.008   6.525 -0.2957  0.3059  0.1763
15393TIP3    H267595   5.820   3.078   6.628  0.5017 -0.3523  1.3070
15394TIP3   OH267596   2.880   4.649  14.895 -0.2171 -0.2097 -0.1727
15394TIP3    H167597   2.856   4.587  14.825 -3.1033  2.6877 -2.0260
15394TIP3    H267598   2.805   4.648  14.954  1.2850 -1.0159  1.8415
15395TIP3   OH267599   6.305   0.964   1.605  0.3512  0.0762 -0.0578
15395TIP3    H167600   6.282   1.004   1.689  0.3384 -0.4506  0.1897
15395TIP3    H267601   6.384   0.914   1.623  0.9294  0.7836 -0.5970
15396TIP3   OH267602   4.942   0.640   1.934 -0.0430 -0.3134  0.0652
15396TIP3    H167603   4.878   0.600   1.875 -0.3014  1.0280 -0.5986
15396TIP3    H267604   5.012   0.671   1.876 -0.3584  1.1279  0.4205
15397TIP3   OH267605   3.599   4.945   0.762  0.0694 -0.2307  0.8030
15397TIP3    H167606   3.531   5.000   0.722 -0.8388 -1.1923  0.9772
15397TIP3    H267607   3.656   5.007   0.808  1.1612  0.9510 -1.9188
15398TIP3   OH267608   1.036   5.162  13.770 -0.2266  0.2347 -0.1108
15398TIP3    H167609   1.105   5.145  13.834 -0.1155 -1.7027 -0.6850
15398TIP3    H267610   0.992   5.241  13.803  2.2186  1.5284  0.2569
15399TIP3   OH267611   1.764   1.351   5.398  0.7725  0.5881  0.0243
15399TIP3    H167612   1.838   1.334   5.340  0.2419 -0.2978 -0.4077
15399TIP3    H267613   1.756   1.446   5.400  2.1476  0.7247  0.3707
15400TIP3   OH267614   3.635   5.343   4.220  0.1488  0.4091 -0.0944
15400TIP3    H167615   3.705   5.287   4.255 -1.9800 -2.4605 -0.0963
15400TIP3    H267616   3.623   5.410   4.287  3.0810  1.2284 -0.2566
15401TIP3   OH267617   1.910   2.802  11.447  0.6179 -0.0419  0.1773
15401TIP3    H167618   1.897   2.781  11.540  0.1214 -1.3521 -0.1689
15401TIP3    H267619   1.850   2.875  11.431  0.6506  0.1483  0.8622
15402TIP3   OH267620   6.544   6.607  16.288 -0.5149 -0.2724 -0.4488
15402TIP3    H167621   6.474   6.556  16.247  0.6018 -0.6222 -2.0136
15402TIP3    H267622   6.523   6.698  16.267 -0.0457 -0.4366 -1.7031
15403TIP3   OH267623   3.507   0.076  15.840  0.5434  0.2767  0.1722
15403TIP3    H167624   3.453   0.005  15.805  1.4998 -0.0594 -0.6884
15403TIP3    H267625   3.587   0.033  15.871  0.8714  0.8944  0.2076
15404TIP3   OH267626   6.000   2.339   3.473  0.1715  0.2649 -0.6002
15404TIP3    H167627   6.000   2.253   3.514  1.0715  0.8570  0.7148
15404TIP3    H267628   5.988   2.321   3.379 -1.8110 -1.1242 -0.1275
15405TIP3   OH267629   2.863   5.370   5.303  0.3362 -0.0363 -0.0793
15405TIP3    H167630   2.861   5.386   5.208 -1.5559  0.0430 -0.0486
15405TIP3    H267631   2.790   5.311   5.319  0.5706  0.0447  1.3561
15406TIP3   OH267632   3.072   3.200  14.303 -0.3580 -0.3716 -0.3402
15406TIP3    H167633   3.012   3.190  14.376 -1.9309  1.0441 -1.3556
15406TIP3    H267634   3.159   3.198  14.343 -1.1249 -0.7919  1.4023
15407TIP3   OH267635   4.585   4.765   4.839  0.3564  0.5940 -0.6221
15407TIP3    H167636   4.554   4.732   4.923  0.8993 -0.6193 -0.8757
15407TIP3    H267637   4.629   4.847   4.860 -0.2745  0.7478  0.1485
15408TIP3   OH267638   2.382   0.381   2.618  0.2107  0.6784  0.0290
15408TIP3    H167639   2.320   0.450   2.645 -0.2331 -0.0846  1.0383
15408TIP3    H267640   2.332   0.300   2.628  0.1863  0.2633 -2.6669
15409TIP3   OH267641   6.584   4.460   1.952 -0.4899 -0.2341 -0.0446
15409TIP3    H167642   6.489   4.449   1.960 -0.8396  1.0144 -1.7833
15409TIP3    H267643   6.606   4.418   1.869  0.6475 -1.2302  0.7296
15410TIP3   OH267644   2.351   4.296   3.460 -0.0829  0.5900  0.2179
15410TIP3    H167645   2.318   4.222   3.409 -1.8626 -0.3840  2.5729
15410TIP3    H267646   2.398   4.256   3.533 -0.3257  1.7930  1.0750
15411TIP3   OH267647   6.458   1.318  14.714 -0.1536 -0.4098 -0.3064
15411TIP3    H167648   6.471   1.287  14.624 -1.9334 -1.1941 -0.3455
15411TIP3    H267649   6.421   1.242  14.759 -4.1067  1.3063 -0.2241
15412TIP3   OH267650   3.234   3.248  17.053  0.4659  0.3668 -0.0649
15412TIP3    H167651   3.145   3.283  17.053  0.2758 -0.0932 -0.7942
15412TIP3    H267652   3.227   3.164  17.099  0.5250  0.3295 -0.1233
15413TIP3   OH267653   4.783   3.330   4.648  0.0697 -0.1412  0.1042
15413TIP3    H167654   4.799   3.398   4.583 -0.9541  0.6419  0.6494
15413TIP3    H267655   4.844   3.351   4.719  0.8411 -0.7149 -0.3619
15414TIP3   OH267656   4.567   2.878  13.996 -0.1410  0.2335 -0.4358
15414TIP3    H167657   4.517   2.957  14.010  0.8388  0.8065 -0.0524
15414TIP3    H267658   4.537   2.817  14.064 -0.1953  0.6221 -0.1126
15415TIP3   OH267659   0.183   5.356   1.941 -0.4601 -0.0965 -0.3578
15415TIP3    H167660   0.199   5.337   2.033 -0.5442  0.3348 -0.2495
15415TIP3    H267661   0.205   5.276   1.895 -0.0971 -0.2075  0.0064
15416TIP3   OH267662   5.056   6.128  14.155  0.2698  0.1733 -0.4743
15416TIP3    H167663   4.991   6.058  14.150  0.7822 -0.3034 -0.6410
15416TIP3    H267664   5.049   6.174  14.071 -0.4470  0.6744 -0.1468
15417TIP3   OH267665   3.809   2.305   5.223 -0.2519  0.2490  0.3572
15417TIP3    H167666   3.868   2.336   5.291  1.5786  0.1096 -1.1006
15417TIP3    H267667   3.808   2.376   5.158  1.2744 -1.2284 -1.3759
15418TIP3   OH267668   3.485   6.634   3.398 -0.0960 -0.3838  0.2476
15418TIP3    H167669   3.421   6.586   3.346  0.2710  0.0523 -0.6306
15418TIP3    H267670   3.505   6.576   3.471 -1.1315 -0.7229  0.2749
15419TIP3   OH267671   0.922   6.556   1.535 -0.0560  0.1645  0.5070
15419TIP3    H167672   0.880   6.625   1.587  0.5251 -0.0306  1.2578
15419TIP3    H267673   0.901   6.475   1.580  0.0521 -0.0581  0.1607
15420TIP3   OH267674   4.813   4.192   1.786 -0.3592 -0.0025 -0.5591
15420TIP3    H167675   4.828   4.105   1.823  0.2677  0.8106  1.1571
15420TIP3    H267676   4.868   4.251   1.838 -1.3224  1.5315 -1.2157
15421TIP3   OH267677   1.761   5.739   3.001  0.0224 -0.4010 -0.1362
15421TIP3    H167678   1.829   5.806   3.008  1.1341 -1.5011 -0.0097
15421TIP3    H267679   1.730   5.744   2.910 -0.3438  0.6614  0.0319
15422TIP3   OH267680   5.461   5.661   4.319 -0.4096 -0.0104  0.0801
15422TIP3    H167681   5.515   5.664   4.240  1.4066 -0.4616  1.2709
15422TIP3    H267682   5.435   5.569   4.327 -1.2837  0.1798 -0.4112
15423TIP3   OH267683   2.490   6.648  14.697  0.7002  0.4833  0.3895
15423TIP3    H167684   2.585   6.643  14.683  0.8143 -2.6812  1.3921
15423TIP3    H267685   2.479   6.710  14.769  1.9173  1.3166 -0.1034
15424TIP3   OH267686   4.832   1.079  15.279 -0.2909 -0.6964  0.0874
15424TIP3    H167687   4.893   1.092  15.207 -0.4778 -1.3163 -0.1942
15424TIP3    H267688   4.866   1.003  15.326  0.3852  0.2938  1.2566
15425TIP3   OH267689   4.488   1.688   5.018 -0.0622 -0.7400  0.3705
15425TIP3    H167690   4.492   1.779   5.048  1.1619 -0.6463  0.0079
15425TIP3    H267691   4.475   1.694   4.923  1.1861 -0.8859  0.1658
15426TIP3   OH267692   1.135   5.344  14.130 -0.3545 -0.0250  0.2349
15426TIP3    H167693   1.217   5.371  14.087 -0.2888 -1.0237 -0.2930
15426TIP3    H267694   1.068   5.355  14.062 -0.2447 -1.6605 -0.1697
15427TIP3   OH267695   2.416   2.432   4.280 -0.2230  0.0956  0.4206
15427TIP3    H167696   2.428   2.354   4.227 -0.6969  0.9864 -1.0347
15427TIP3    H267697   2.340   2.476   4.243 -0.9888  0.4182  2.2599
15428TIP3   OH267698   4.509   4.307  12.196  0.0505 -0.2443 -0.1026
15428TIP3    H167699   4.492   4.221  12.233  1.9804 -0.7090 -0.1660
15428TIP3    H267700   4.562   4.352  12.262 -1.0322  0.9666 -0.0151
15429TIP3   OH267701   6.634   2.966  14.298 -0.6055 -0.4091 -0.7106
15429TIP3    H167702   6.673   2.879  14.307 -0.8099 -0.4311  0.0611
15429TIP3    H267703   6.621   2.995  14.389  0.4056  0.8489 -0.9373
15430TIP3   OH267704   4.525   6.579  14.536  0.8882  0.2204  0.8170
15430TIP3    H167705   4.485   6.657  14.497  0.6515 -1.3988 -2.4653
15430TIP3    H267706   4.595   6.614  14.592  0.8295  2.7906 -0.5643
15431TIP3   OH267707   1.290   6.584  10.515 -0.4710 -0.0219  0.3803
15431TIP3    H167708   1.378   6.568  10.479 -0.2134 -0.0416  0.9925
15431TIP3    H267709   1.307   6.618  10.603 -1.0784  0.2852  0.3818
15432TIP3   OH267710   1.446   0.986   0.070 -0.6157  0.0442  0.0513
15432TIP3    H167711   1.378   0.962   0.007 -0.5037  1.6615 -0.7187
15432TIP3    H267712   1.430   1.078   0.090  1.3627  0.4968 -0.1990
15433TIP3   OH267713   4.947   1.671  17.148 -0.0486  0.3725 -0.4615
15433TIP3    H167714   4.942   1.631  17.061 -0.0325  0.2572 -0.4110
15433TIP3    H267715   4.945   1.765  17.131 -1.4060  0.3583 -0.5041
15434TIP3   OH267716   5.277   4.696   0.229  0.0806 -0.3495 -0.1259
15434TIP3    H167717   5.235   4.610   0.228 -1.0601  0.1394  1.3314
15434TIP3    H267718   5.294   4.714   0.322  0.0705  1.0983 -0.3732
15435TIP3   OH267719   4.017   4.582   1.877 -0.3580 -0.6763  0.0408
15435TIP3    H167720   4.057   4.551   1.796  1.8409  2.5000 -0.2754
15435TIP3    H267721   4.074   4.548   1.946 -0.1438 -0.4640 -0.0289
15436TIP3   OH267722   5.386   2.870   0.630  0.1189  0.6939 -0.3323
15436TIP3    H167723   5.360   2.961   0.641 -0.2167  0.6142 -0.4378
15436TIP3    H267724   5.337   2.840   0.553 -0.9111  0.0099  0.5492
15437TIP3   OH267725   4.141   0.523  11.181 -0.3759 -0.0419  0.2483
15437TIP3    H167726   4.225   0.488  11.152 -0.5856  1.0314 -1.8288
15437TIP3    H267727   4.165   0.590  11.245  0.3471  0.0940 -0.1452
15438TIP3   OH267728   1.955   1.384  16.776  0.1951 -0.5235 -0.0938
15438TIP3    H167729   1.961   1.474  16.743 -0.4934  0.1208  1.4303
15438TIP3    H267730   2.035   1.342  16.745  0.2836  0.4583 -1.2777
15439TIP3   OH267731   4.854   5.702  10.790 -0.0246  0.4557 -0.3135
15439TIP3    H167732   4.826   5.669  10.875  0.4784  0.9747  0.0612
15439TIP3    H267733   4.949   5.712  10.799  0.2300 -0.6947 -1.3534
15440TIP3   OH267734   2.671   1.719   3.148 -0.2440  0.7401 -0.6673
15440TIP3    H167735   2.708   1.664   3.218 -1.6801  0.8862  0.2384
15440TIP3    H267736   2.748   1.749   3.099  0.6108 -1.8887 -1.0873
15441TIP3   OH267737   3.736   1.998  13.131  0.2109 -0.2750 -0.1183
15441TIP3    H167738   3.687   2.004  13.214 -1.8368  0.6277 -1.3232
15441TIP3    H267739   3.796   2.072  13.133 -2.1761  1.7846 -0.8187
15442TIP3   OH267740   0.072   2.345   0.884 -0.7008  0.5041 -0.7506
15442TIP3    H167741   0.035   2.393   0.959 -0.1485 -1.0281  0.5482
15442TIP3    H267742  -0.004   2.301   0.845 -0.9539  1.1212 -0.9777
15443TIP3   OH267743   2.966   1.454   1.685 -0.5354 -0.1430  0.1014
15443TIP3    H167744   3.011   1.415   1.610  0.2414 -3.9184  2.2826
15443TIP3    H267745   2.877   1.418   1.681 -1.2958  1.6461 -0.2821
15444TIP3   OH267746   4.090   1.838  16.694 -0.1087  0.2888  0.1091
15444TIP3    H167747   4.149   1.914  16.695  1.1236 -0.6179  1.5767
15444TIP3    H267748   4.003   1.876  16.686  0.4594  1.8931  1.0095
15445TIP3   OH267749   5.036   4.916   3.087 -0.3905  0.0737  0.3308
15445TIP3    H167750   5.066   4.947   3.173  0.6217 -0.5392  0.2123
15445TIP3    H267751   5.108   4.938   3.028 -0.9466  0.1906 -0.3061
15446TIP3   OH267752   5.248   5.126  11.685 -0.3672 -1.0676 -0.3529
15446TIP3    H167753   5.322   5.183  11.705 -1.6945  1.7110 -2.5414
15446TIP3    H267754   5.287   5.051  11.640  1.2692 -0.7648  0.4827
15447TIP3   OH267755   6.675   4.627   2.741  0.4468 -0.0590 -0.6202
15447TIP3    H167756   6.628   4.670   2.812  1.4321  0.9533 -0.5407
15447TIP3    H267757   6.660   4.683   2.665  0.1681 -0.6293 -0.9932
15448TIP3   OH267758   0.107   3.913   4.901 -0.0019 -0.0115 -0.1024
15448TIP3    H167759   0.020   3.954   4.907  1.0090  2.1005  1.4432
15448TIP3    H267760   0.095   3.827   4.942 -1.4728 -0.0026 -0.4425
15449TIP3   OH267761   5.908   6.630  14.788 -0.0241  0.3186 -0.3079
15449TIP3    H167762   5.874   6.543  14.806 -1.0784  0.6066 -0.7710
15449TIP3    H267763   5.883   6.647  14.697 -0.6663  1.4493  0.0555
15450TIP3   OH267764   1.312   0.930   1.223  0.5135  0.1383 -0.4975
15450TIP3    H167765   1.299   0.922   1.318  0.1418 -0.1498 -0.5718
15450TIP3    H267766   1.390   0.984   1.215  1.7283 -1.4706 -0.0080
15451TIP3   OH267767   0.449   4.918  12.283 -0.0755  0.1822 -0.7422
15451TIP3    H167768   0.410   4.885  12.202 -0.5581 -0.6974 -0.1718
15451TIP3    H267769   0.505   4.990  12.255  1.5247 -1.5069 -2.1560
15452TIP3   OH267770   4.385   5.604   5.785 -0.2373  0.0987 -0.2684
15452TIP3    H167771   4.430   5.671   5.733  0.1290  0.4769  0.5167
15452TIP3    H267772   4.437   5.597   5.865 -0.8700 -0.3659  0.1096
15453TIP3   OH267773   3.734   2.918  15.308  0.2360 -0.8131  0.1947
15453TIP3    H167774   3.687   2.921  15.224 -0.7403  0.8434  0.7479
15453TIP3    H267775   3.714   2.831  15.343  0.9365 -1.6648 -1.4173
15454TIP3   OH267776   0.511   4.270   1.160  0.2541  0.1172  0.0775
15454TIP3    H167777   0.436   4.210   1.167 -0.5471  1.1717  1.0713
15454TIP3    H267778   0.472   4.355   1.138  0.9212  1.0720  2.2468
15455TIP3   OH267779   0.892   2.795   0.243  0.8887 -0.0351  0.5760
15455TIP3    H167780   0.974   2.791   0.194  0.8186 -0.9301  0.5111
15455TIP3    H267781   0.847   2.873   0.210  0.3329 -1.1926 -1.6163
15456TIP3   OH267782   4.044   5.861   1.172  0.5941  0.2992  0.1983
15456TIP3    H167783   4.065   5.816   1.090  1.3524 -0.7153  0.9219
15456TIP3    H267784   4.063   5.796   1.240  0.4869  1.3026  1.2046
15457TIP3   OH267785   1.208   3.387  10.520 -0.0631 -0.4923  0.9114
15457TIP3    H167786   1.186   3.357  10.432 -1.7205  2.6683  0.1127
15457TIP3    H267787   1.249   3.311  10.562  0.6393 -2.1551 -2.4829
15458TIP3   OH267788   1.399   2.761   5.170  0.3420  1.0144 -0.0305
15458TIP3    H167789   1.327   2.798   5.221 -0.8585 -1.3655  0.1260
15458TIP3    H267790   1.439   2.696   5.228  0.8753  0.3695 -1.0768
15459TIP3   OH267791   4.008   1.514  16.652  0.0468  0.0377  0.6246
15459TIP3    H167792   3.983   1.481  16.739  0.4977  0.0443  0.7585
15459TIP3    H267793   4.005   1.609  16.661 -2.1360  0.0805 -0.0148
15460TIP3   OH267794   3.263   5.465  14.766 -0.3053 -0.3460 -0.4074
15460TIP3    H167795   3.179   5.422  14.779 -1.2818  1.2407 -1.1056
15460TIP3    H267796   3.321   5.426  14.831 -1.4641 -1.7524 -0.1747
15461TIP3   OH267797   2.041   1.465   0.256  0.3287  0.3497 -0.7787
15461TIP3    H167798   1.992   1.384   0.269  0.3603  0.0116 -2.5354
15461TIP3    H267799   1.987   1.515   0.193 -0.4677  2.3927  1.3815
15462TIP3   OH267800   4.378   5.343   2.664 -0.1365 -0.0875  0.0531
15462TIP3    H167801   4.447   5.343   2.597  0.6792 -1.8026  0.8355
15462TIP3    H267802   4.424   5.352   2.747 -1.0378  0.7113  0.4932
15463TIP3   OH267803   6.520   4.991   5.220 -0.1142 -0.0050  0.2123
15463TIP3    H167804   6.494   5.007   5.130 -0.8800 -0.9229  0.2644
15463TIP3    H267805   6.515   5.077   5.262  0.7094  0.5205 -0.7125
15464TIP3   OH267806   2.417   5.430  13.783  0.2054 -0.1895 -0.1255
15464TIP3    H167807   2.417   5.525  13.798  2.1382 -0.2778  0.7527
15464TIP3    H267808   2.338   5.414  13.730  0.0924  1.9649 -0.7172
15465TIP3   OH267809   1.828   1.929   3.775  0.1593  0.2481  0.2061
15465TIP3    H167810   1.738   1.916   3.746  0.7590 -0.6601 -1.3727
15465TIP3    H267811   1.834   2.023   3.794 -0.8006  0.5493 -0.8445
15466TIP3   OH267812   1.043   1.392   2.816  0.4228 -0.2773 -0.1831
15466TIP3    H167813   0.968   1.366   2.762  0.8715 -0.3733 -0.7541
15466TIP3    H267814   1.095   1.449   2.761  1.8290 -1.7790 -0.5008
15467TIP3   OH267815   3.193   4.650  15.466  0.2094  0.5813 -0.0533
15467TIP3    H167816   3.252   4.649  15.541 -1.7328  2.3851  1.6293
15467TIP3    H267817   3.156   4.562  15.462  3.0201 -0.6622 -1.2845
15468TIP3   OH267818   6.189   0.867   5.361  0.0986  0.6692 -0.4031
15468TIP3    H167819   6.268   0.843   5.312  1.6798  2.9053  0.8745
15468TIP3    H267820   6.200   0.823   5.446 -1.1033 -0.6795 -0.9078
15469TIP3   OH267821   1.829   5.611   6.386  0.2074  0.2590  0.5438
15469TIP3    H167822   1.889   5.643   6.453 -0.8267 -0.0761  1.6770
15469TIP3    H267823   1.802   5.690   6.339 -1.5076  1.0441  2.6300
15470TIP3   OH267824   1.965   2.392  13.201 -0.4787 -0.2672 -0.2698
15470TIP3    H167825   1.902   2.416  13.268 -1.7204 -0.1622 -1.4375
15470TIP3    H267826   1.914   2.345  13.135  0.7244 -0.4692 -1.1005
15471TIP3   OH267827   4.463   4.746  11.569  0.6052  0.5058  0.8397
15471TIP3    H167828   4.556   4.764  11.557  0.4298  2.4175  2.0403
15471TIP3    H267829   4.447   4.761  11.662 -1.1124  1.3551  0.4518
15472TIP3   OH267830   5.114   5.620  14.632 -1.1433  0.2004  0.8035
15472TIP3    H167831   5.111   5.628  14.727  0.5386 -0.9178  1.0110
15472TIP3    H267832   5.194   5.570  14.616 -0.8036  1.3195 -1.2699
15473TIP3   OH267833   3.863   3.766  15.565 -0.1861  0.3540 -0.6703
15473TIP3    H167834   3.846   3.828  15.494 -0.7347  0.0495 -0.8129
15473TIP3    H267835   3.799   3.696  15.551 -1.3109  0.9870  0.9626
15474TIP3   OH267836   4.643   4.718  10.173  0.3715 -0.7587 -0.0475
15474TIP3    H167837   4.552   4.732  10.196  0.2703  2.8972 -1.8316
15474TIP3    H267838   4.693   4.766  10.239  0.6290  1.1142 -1.5021
15475TIP3   OH267839   1.530   6.694  12.266 -0.5178 -0.1887 -0.2065
15475TIP3    H167840   1.533   6.788  12.253 -1.5607  0.4731  3.2654
15475TIP3    H267841   1.563   6.681  12.355 -2.4696 -2.8256  0.2567
15476TIP3   OH267842   6.442   1.849   3.993  0.2697  0.0842  0.0106
15476TIP3    H167843   6.376   1.804   4.046 -0.1975  1.2035  0.4103
15476TIP3    H267844   6.441   1.939   4.025 -0.3063  0.8928 -2.1417
15477TIP3   OH267845   3.818   3.461  12.481  0.0344  0.7800 -0.1297
15477TIP3    H167846   3.866   3.424  12.555  1.8185 -0.9128 -2.0061
15477TIP3    H267847   3.750   3.397  12.462 -0.3096  1.1247 -0.0623
15478TIP3   OH267848   5.894   1.472  12.275 -0.0375  0.2535 -0.0509
15478TIP3    H167849   5.904   1.444  12.184  1.3921 -0.0666  0.1810
15478TIP3    H267850   5.874   1.566  12.270 -0.9106  0.0433 -0.7085
15479TIP3   OH267851   3.394   2.656   6.405  0.3430 -0.1381 -0.1107
15479TIP3    H167852   3.364   2.649   6.496  0.8627 -2.7173 -0.0660
15479TIP3    H267853   3.429   2.746   6.398 -0.8600  0.5473  1.8358
15480TIP3   OH267854   1.638   3.135   4.765 -0.1225 -0.1995  0.3145
15480TIP3    H167855   1.689   3.132   4.684 -0.3695 -1.4408  0.1838
15480TIP3    H267856   1.554   3.094   4.743 -0.6713  0.6024  0.8744
15481TIP3   OH267857   1.410   2.923  16.774  0.4257  0.0980 -0.0182
15481TIP3    H167858   1.473   2.856  16.747  0.8037  0.0170  1.0141
15481TIP3    H267859   1.419   2.928  16.869 -0.9926  0.2285  0.1389
15482TIP3   OH267860   5.516   4.803  16.035 -0.3178  0.0730  0.1206
15482TIP3    H167861   5.539   4.867  16.102 -0.1207  0.4762 -0.3280
15482TIP3    H267862   5.533   4.718  16.077 -0.8127  0.2993  0.8042
15483TIP3   OH267863   5.103   3.860   0.929  0.2989 -0.2966  0.4592
15483TIP3    H167864   5.046   3.807   0.984 -1.6139  0.5395 -0.5974
15483TIP3    H267865   5.157   3.797   0.882 -1.0331 -1.2735  0.1698
15484TIP3   OH267866   5.273   6.381   1.771 -0.1740 -0.1087  0.0437
15484TIP3    H167867   5.301   6.407   1.684 -1.1641  2.9638  0.5189
15484TIP3    H267868   5.353   6.376   1.822  0.1909  0.9330 -0.4021
15485TIP3   OH267869   3.349   3.256  14.440  0.3671 -0.0442  0.3251
15485TIP3    H167870   3.431   3.210  14.461  1.1941  1.9867  1.9482
15485TIP3    H267871   3.353   3.336  14.493 -1.4124  1.4354 -1.6228
15486TIP3   OH267872   4.838   6.063  14.481  0.0723  0.1547  0.2076
15486TIP3    H167873   4.896   6.001  14.524  1.5449  1.4150  0.0968
15486TIP3    H267874   4.820   6.023  14.396  1.5058  0.1322 -0.1104
15487TIP3   OH267875   5.201   1.848  14.732 -0.2730  0.3395 -0.0037
15487TIP3    H167876   5.235   1.765  14.697  0.4366  0.7178 -0.2426
15487TIP3    H267877   5.129   1.870  14.674  0.4554  0.6096 -0.8352
15488TIP3   OH267878   3.310   4.591  13.405 -0.1416 -0.2044 -0.3129
15488TIP3    H167879   3.375   4.617  13.339 -0.7428 -1.1400 -1.3166
15488TIP3    H267880   3.233   4.644  13.385  0.5326  1.5250  1.4086
15489TIP3   OH267881   4.876   1.567  14.725 -0.0355 -0.7787 -0.1978
15489TIP3    H167882   4.808   1.582  14.790 -0.3342 -0.4329 -0.5890
15489TIP3    H267883   4.833   1.579  14.640  0.7610  0.5942 -0.4379
15490TIP3   OH267884   0.555   2.945   5.542 -0.1411 -0.1382  0.6522
15490TIP3    H167885   0.560   3.031   5.499 -0.1329 -1.2838 -1.8019
15490TIP3    H267886   0.588   2.961   5.631  1.9039  1.9958 -0.3723
15491TIP3   OH267887   0.048   1.033  12.932 -0.1720  0.8587  0.4199
15491TIP3    H167888   0.064   1.029  13.026  0.4576 -0.3014  0.2794
15491TIP3    H267889   0.121   0.985  12.893 -1.1054  0.2215 -0.5917
15492TIP3   OH267890   5.143   4.372   4.591  0.2011  0.5352  0.3470
15492TIP3    H167891   5.141   4.463   4.623 -2.3117  0.2466  1.2413
15492TIP3    H267892   5.204   4.327   4.649 -1.4061  0.8781  2.4243
15493TIP3   OH267893   1.681   4.423   1.942  0.0255 -0.5384 -0.4979
15493TIP3    H167894   1.608   4.465   1.897  0.6884  0.7391 -0.4500
15493TIP3    H267895   1.729   4.378   1.873  0.2477  0.2315 -0.8641
15494TIP3   OH267896   3.499   4.735   1.023 -0.1876 -0.1021  0.2707
15494TIP3    H167897   3.417   4.693   1.048 -0.6009 -1.2247 -2.5393
15494TIP3    H267898   3.567   4.672   1.048 -0.5195 -0.8479 -0.6384
15495TIP3   OH267899   6.717   5.264   1.874 -0.1383 -0.4983  0.1640
15495TIP3    H167900   6.806   5.228   1.873 -0.1449 -0.5289 -0.7721
15495TIP3    H267901   6.698   5.280   1.966  1.3105  0.6615  0.2964
15496TIP3   OH267902   0.772   3.676   6.386  0.4923 -0.0400 -0.5096
15496TIP3    H167903   0.805   3.680   6.476 -0.0491 -0.5326 -0.2773
15496TIP3    H267904   0.847   3.649   6.334  1.2017  1.6850 -0.4404
15497TIP3   OH267905   5.350   3.610   3.251 -0.0502 -0.2510  0.2260
15497TIP3    H167906   5.401   3.664   3.311 -0.5466 -0.7272  1.1039
15497TIP3    H267907   5.300   3.551   3.308  0.2037 -1.3913 -0.6922
15498TIP3   OH267908   2.031   6.441  14.486 -0.0590  0.1125 -0.1299
15498TIP3    H167909   2.076   6.399  14.412 -0.1207 -0.2494  0.0332
15498TIP3    H267910   2.102   6.479  14.538  0.0100  0.0910 -0.2076
15499TIP3   OH267911   2.519   6.055   0.232 -0.0995 -0.1338  0.3460
15499TIP3    H167912   2.484   6.141   0.208  0.7120  0.4923  1.2903
15499TIP3    H267913   2.586   6.037   0.167 -0.1226  0.0554  0.2693
15500TIP3   OH267914   5.064   4.351  15.080 -0.1389  0.6374  0.8333
15500TIP3    H167915   4.976   4.340  15.045 -0.7887 -1.5002  2.8933
15500TIP3    H267916   5.051   4.360  15.175  1.8897 -0.5054  1.2731
15501TIP3   OH267917   5.305   5.708   2.219  0.2721  0.2384  0.2714
15501TIP3    H167918   5.371   5.653   2.177 -0.0600  0.3851 -0.4558
15501TIP3    H267919   5.252   5.741   2.147 -0.8789 -0.2364  0.8631
15502TIP3   OH267920   2.765   4.280   4.816 -0.4677  0.1221 -0.3020
15502TIP3    H167921   2.744   4.358   4.764  0.3198 -0.2109 -1.1409
15502TIP3    H267922   2.688   4.223   4.805 -0.7790  0.5118 -0.1874
15503TIP3   OH267923   3.065   1.197   3.173 -0.0171  0.5192 -0.4207
15503TIP3    H167924   3.113   1.258   3.117 -0.9138  0.9905 -0.7009
15503TIP3    H267925   3.097   1.216   3.261 -0.2004  1.3334 -0.5162
15504TIP3   OH267926   5.531   1.534  15.186 -0.4130 -0.0788 -0.5972
15504TIP3    H167927   5.480   1.607  15.222 -0.4066 -0.7493  0.8448
15504TIP3    H267928   5.622   1.556  15.206 -0.3783 -0.2852 -0.5293
15505TIP3   OH267929   3.653   1.916   0.779 -0.2128 -0.8776 -0.3224
15505TIP3    H167930   3.673   1.854   0.849 -0.4742 -2.6908 -1.7734
15505TIP3    H267931   3.645   1.862   0.701  0.7987  1.1526 -1.9213
15506TIP3   OH267932   0.280   1.258  16.347 -0.3893  0.5246  0.1460
15506TIP3    H167933   0.252   1.197  16.415 -2.7647  0.6872 -0.6067
15506TIP3    H267934   0.264   1.212  16.265  3.3981 -0.0887 -0.4642
15507TIP3   OH267935   4.298   3.899   4.101 -0.3079  0.0444 -0.3542
15507TIP3    H167936   4.275   3.967   4.164  0.9142 -1.1446  1.5026
15507TIP3    H267937   4.269   3.932   4.016 -2.3688  1.5700  0.8738
15508TIP3   OH267938   4.091   0.447   5.884  0.1349 -0.3462  0.1209
15508TIP3    H167939   4.033   0.381   5.847  1.4577 -1.3400 -0.2365
15508TIP3    H267940   4.034   0.522   5.901 -0.9673 -0.7463 -1.6101
15509TIP3   OH267941   5.518   4.263  14.215 -0.0337 -0.7052  0.3360
15509TIP3    H167942   5.522   4.350  14.253  0.3761 -1.0625  1.1555
15509TIP3    H267943   5.566   4.270  14.133  0.1368 -0.1918  0.4785
15510TIP3   OH267944   2.059   0.720   5.796  0.1593  0.2471  0.2340
15510TIP3    H167945   1.971   0.688   5.777  0.0238 -1.3149  2.9444
15510TIP3    H267946   2.046   0.806   5.836 -0.2301 -0.3267  1.3696
15511TIP3   OH267947   6.515   4.574   3.669 -0.0473  0.3292  0.6423
15511TIP3    H167948   6.510   4.653   3.615 -1.1374 -0.1267  0.0539
15511TIP3    H267949   6.553   4.604   3.751 -0.1576  1.4090  0.3122
15512TIP3   OH267950   4.987   5.005  13.671 -0.1768 -0.1589  0.2402
15512TIP3    H167951   5.004   5.058  13.593 -0.5132 -0.4725 -0.0465
15512TIP3    H267952   4.953   5.067  13.735 -3.6255 -0.4870 -1.0992
15513TIP3   OH267953   0.202   1.527  11.394 -0.3249 -0.3193 -0.1843
15513TIP3    H167954   0.231   1.442  11.428  1.0463 -0.0780 -0.6587
15513TIP3    H267955   0.243   1.533  11.307  0.4358  1.2286  0.2372
15514TIP3   OH267956   2.026   4.158  10.852  0.1038 -0.2420  0.6049
15514TIP3    H167957   2.119   4.159  10.828  0.2943  2.6731  1.1335
15514TIP3    H267958   2.006   4.066  10.867  2.3277 -1.1947 -1.6342
15515TIP3   OH267959   3.933   6.481  13.031 -0.5729 -0.2455  0.4017
15515TIP3    H167960   3.990   6.418  12.987  0.2111  1.1224 -0.6677
15515TIP3    H267961   3.858   6.431  13.060  1.2007 -2.1583  1.9489
15516TIP3   OH267962   3.885   0.133   4.867 -0.8981  0.4695 -0.7459
15516TIP3    H167963   3.830   0.067   4.824 -0.3585  0.4075 -1.3513
15516TIP3    H267964   3.965   0.135   4.815  0.2088 -0.3496  0.8689
15517TIP3   OH267965   3.863   1.796   3.516 -0.2314 -0.1822 -0.6544
15517TIP3    H167966   3.824   1.861   3.574 -0.2222  0.3773 -1.2718
15517TIP3    H267967   3.954   1.824   3.506 -0.3595  0.0122 -1.3371
15518TIP3   OH267968   1.959   4.997   4.473 -0.1099  0.1403  0.2668
15518TIP3    H167969   1.899   4.964   4.406  0.5648 -1.6276  0.4912
15518TIP3    H267970   1.929   4.955   4.554  0.1162  0.9388  0.7730
15519TIP3   OH267971   5.887   6.749  12.974  0.3205  0.4572  0.0822
15519TIP3    H167972   5.870   6.841  12.956  1.3948  0.9530  1.4347
15519TIP3    H267973   5.902   6.710  12.888 -0.5370  1.4462 -0.5419
15520TIP3   OH267974   2.310   6.388  16.318 -0.6591 -0.7542 -0.2842
15520TIP3    H167975   2.311   6.484  16.313 -0.1590 -0.7918 -3.7299
15520TIP3    H267976   2.240   6.368  16.379 -1.4038  1.8300 -0.1566
15521TIP3   OH267977   0.142   1.263   0.363  0.1982 -0.4589 -0.0995
15521TIP3    H167978   0.173   1.173   0.376  0.3346 -0.2286  1.2534
15521TIP3    H267979   0.091   1.283   0.442 -0.9638  0.1978 -0.9852
15522TIP3   OH267980   3.775   2.527   2.924 -0.2819  0.1049 -0.3554
15522TIP3    H167981   3.842   2.521   2.857 -0.3019 -0.2684 -0.3429
15522TIP3    H267982   3.754   2.436   2.945  0.9996  0.1837  1.4408
15523TIP3   OH267983   4.096   5.474   2.597  0.0020  0.0278  0.4998
15523TIP3    H167984   4.107   5.567   2.581  0.7270  0.6558  3.8991
15523TIP3    H267985   4.181   5.435   2.577  0.5501  0.5954  1.6149
15524TIP3   OH267986   6.576   6.256   3.344  0.8385  0.3772 -0.7710
15524TIP3    H167987   6.493   6.235   3.387  0.4852 -2.3184 -2.4740
15524TIP3    H267988   6.643   6.218   3.401  0.4597 -2.0497 -1.8188
15525TIP3   OH267989   2.871   5.212   2.975  0.1191  0.7640 -0.6748
15525TIP3    H167990   2.965   5.226   2.960  0.2436 -0.1792 -0.8946
15525TIP3    H267991   2.836   5.298   2.996  0.6288  1.5624 -2.8330
15526TIP3   OH267992   0.767   3.880  11.196 -0.0279 -0.2877  0.0035
15526TIP3    H167993   0.831   3.889  11.266  0.3793  0.2690 -0.4298
15526TIP3    H267994   0.686   3.917  11.232 -0.0725 -0.8517  0.4971
15527TIP3   OH267995   4.651   2.930  15.477  0.0292  0.2531 -0.3034
15527TIP3    H167996   4.640   3.025  15.481 -1.2549  0.1485 -0.7865
15527TIP3    H267997   4.669   2.904  15.567 -1.7157  0.7544  0.2313
15528TIP3   OH267998   1.495   4.099  15.196  0.0706  0.6035  0.5039
15528TIP3    H167999   1.421   4.161  15.192 -2.0483 -1.7811  0.1127
15528TIP3    H268000   1.454   4.013  15.193  3.0096 -0.8787 -1.2407
15529TIP3   OH268001   4.968   5.853  10.429  0.2949  0.3523 -0.1171
15529TIP3    H168002   5.042   5.822  10.482  0.4509  1.8929  0.6018
15529TIP3    H268003   4.891   5.822  10.475  0.4053 -2.0475 -1.3357
15530TIP3   OH268004   5.888   1.862  16.382 -0.4307 -0.3760  0.7700
15530TIP3    H168005   5.871   1.875  16.476  1.2275 -1.7920  1.3178
15530TIP3    H268006   5.977   1.896  16.369 -0.6253 -0.2439 -0.2753
15531TIP3   OH268007   2.554   0.619   0.445  0.1569  0.6117 -0.2333
15531TIP3    H168008   2.468   0.577   0.449  0.5775 -0.1585  1.1338
15531TIP3    H268009   2.550   0.673   0.366 -1.6713  0.8044 -0.0509
15532TIP3   OH268010   1.356   1.447  16.160  0.1081 -0.3952  0.1323
15532TIP3    H168011   1.369   1.395  16.239  0.2974  0.5652  0.7444
15532TIP3    H268012   1.261   1.442  16.143 -0.0088 -0.1949  0.7127
15533TIP3   OH268013   2.470   6.148   6.551  0.3966 -0.0444  0.4573
15533TIP3    H168014   2.527   6.073   6.532  1.4602  0.9933 -0.5876
15533TIP3    H268015   2.451   6.186   6.466 -2.0897 -0.4527  0.7385
15534TIP3   OH268016   5.138   1.734   4.443  0.1730  0.2947 -0.3701
15534TIP3    H168017   5.204   1.785   4.491  0.9539  0.8623 -1.9829
15534TIP3    H268018   5.073   1.798   4.416  0.4342  0.2140 -1.2082
15535TIP3   OH268019   6.798   2.642  15.413  0.0869 -0.0688 -0.1488
15535TIP3    H168020   6.888   2.656  15.440 -0.2229  0.7728  0.4857
15535TIP3    H268021   6.804   2.586  15.335  1.0695 -1.3265  0.8070
15536TIP3   OH268022   0.674   1.572  14.286  0.2399  0.4384  0.0612
15536TIP3    H168023   0.667   1.642  14.351 -0.1922  0.5447 -0.0915
15536TIP3    H268024   0.759   1.533  14.302  0.6789  1.2902 -0.1447
15537TIP3   OH268025   6.364   1.044  12.153 -0.6154  0.2622  0.0593
15537TIP3    H168026   6.350   1.133  12.186  0.9089  0.9523 -1.0132
15537TIP3    H268027   6.332   1.047  12.063 -0.7517 -0.3451  0.0843
15538TIP3   OH268028   1.970   5.372  14.729 -0.5118 -0.1746  0.1913
15538TIP3    H168029   1.914   5.416  14.792  0.7402  2.0034 -0.1388
15538TIP3    H268030   2.042   5.337  14.781  1.2188  2.7521 -0.0396
15539TIP3   OH268031   2.701   0.372  14.440 -0.0212 -0.0708  0.2267
15539TIP3    H168032   2.668   0.462  14.440  2.0795  0.7607  0.4015
15539TIP3    H268033   2.778   0.375  14.497  1.4717 -1.4173 -1.5883
15540TIP3   OH268034   2.621   3.683   1.459  0.4664  0.5472 -0.5022
15540TIP3    H168035   2.665   3.715   1.538  0.4828 -0.1156 -0.2354
15540TIP3    H268036   2.584   3.598   1.484  0.1850  0.4788 -1.1119
15541TIP3   OH268037   5.468   1.232  12.702  0.4707  0.0764  0.3435
15541TIP3    H168038   5.556   1.200  12.723  0.2545  1.0095  3.2122
15541TIP3    H268039   5.411   1.184  12.762 -0.8670  0.1272 -0.8588
15542TIP3   OH268040   2.794   0.815   5.415 -0.5333  0.0058  0.8358
15542TIP3    H168041   2.862   0.749   5.423 -1.2220 -1.0977 -1.5457
15542TIP3    H268042   2.715   0.765   5.394 -1.0964  1.5289 -0.9266
15543TIP3   OH268043   0.536   0.477  17.142  0.1410  0.2781  0.1062
15543TIP3    H168044   0.467   0.426  17.101 -0.3725 -0.2989  1.6052
15543TIP3    H268045   0.509   0.484  17.234  1.5676  0.9136  0.5063
15544TIP3   OH268046   1.823   2.956   2.985 -0.0516 -0.2596 -0.9315
15544TIP3    H168047   1.892   3.006   2.943  2.2065 -1.5494  1.0401
15544TIP3    H268048   1.830   2.868   2.948 -1.1116 -0.2669 -1.1744
15545TIP3   OH268049   3.036   5.662   3.123  0.3483  0.1828  0.0606
15545TIP3    H168050   3.061   5.654   3.215  2.7826 -0.2974 -0.5760
15545TIP3    H268051   3.108   5.623   3.075 -1.7737 -1.4807 -2.0404
15546TIP3   OH268052   1.161   5.015   3.987  0.3768  0.3899  0.2247
15546TIP3    H168053   1.099   5.060   3.929 -0.2834  0.4224  0.9430
15546TIP3    H268054   1.221   4.971   3.927 -0.3160  0.3888 -0.4945
15547TIP3   OH268055   1.813   0.717   2.909  0.9002 -0.6385  1.3203
15547TIP3    H168056   1.761   0.660   2.853  0.4025 -0.1349  1.2532
15547TIP3    H268057   1.801   0.681   2.997  0.4779 -0.5666  1.2985
15548TIP3   OH268058   1.123   2.789   4.896 -0.0189 -0.3877 -0.2988
15548TIP3    H168059   1.208   2.790   4.941  0.1965 -1.4549 -0.6446
15548TIP3    H268060   1.142   2.749   4.812 -1.0303 -1.5225 -0.0129
15549TIP3   OH268061   5.805   1.323   5.094 -0.0919 -0.4987 -0.3947
15549TIP3    H168062   5.812   1.228   5.109 -1.4520 -0.3539  1.3955
15549TIP3    H268063   5.792   1.360   5.181 -0.8392  1.2197 -1.2068
15550TIP3   OH268064   1.137   2.035  11.388  0.1431 -0.0116  0.0370
15550TIP3    H168065   1.044   2.024  11.372  0.1436 -2.1461  1.1816
15550TIP3    H268066   1.173   2.060  11.303 -1.6333  2.7433 -0.0631
15551TIP3   OH268067   2.445   0.183  10.559 -0.2800 -0.1642  0.3072
15551TIP3    H168068   2.369   0.149  10.511  0.8770 -0.7639 -1.1891
15551TIP3    H268069   2.519   0.132  10.526  0.7038 -0.1121  2.2649
15552TIP3   OH268070   0.625   1.059   3.504  0.4738 -0.7039 -0.5002
15552TIP3    H168071   0.662   1.007   3.433 -2.1017 -1.8429 -1.1090
15552TIP3    H268072   0.618   1.147   3.468 -0.2488 -1.1430 -1.4862
15553TIP3   OH268073   4.361   2.946  11.389  0.1432  0.3121  0.3179
15553TIP3    H168074   4.396   3.008  11.453  0.7468 -1.1417  1.4587
15553TIP3    H268075   4.298   2.893  11.437  0.8438 -1.0286 -0.1672
15554TIP3   OH268076   2.854   0.792   4.019 -0.3412 -0.2140 -0.3862
15554TIP3    H168077   2.802   0.768   3.942  0.2231  1.5365 -1.3866
15554TIP3    H268078   2.899   0.873   3.993 -2.0181  1.9036  2.5731
15555TIP3   OH268079   1.313   3.286   3.778 -0.6445  0.0303 -0.2447
15555TIP3    H168080   1.397   3.243   3.759  0.0195  1.0716  0.2313
15555TIP3    H268081   1.308   3.358   3.715 -1.2677 -0.1291 -0.3839
15556TIP3   OH268082   4.671   0.918   1.602 -0.7654 -0.8912 -0.5084
15556TIP3    H168083   4.598   0.873   1.561 -0.6195 -1.0140 -0.6364
15556TIP3    H268084   4.709   0.972   1.533 -0.4145 -1.2282 -0.5872
15557TIP3   OH268085   0.825   2.770   1.884  0.2156  0.5305 -0.2342
15557TIP3    H168086   0.809   2.691   1.936 -2.4029  1.9043  1.2667
15557TIP3    H268087   0.795   2.748   1.796  0.9722 -0.5766 -0.2418
15558TIP3   OH268088   2.571   2.408   1.617  0.3204 -0.5658  0.0553
15558TIP3    H168089   2.665   2.423   1.623  0.6804 -2.1660 -0.9359
15558TIP3    H268090   2.550   2.357   1.695  0.5464 -1.3613 -0.3948
15559TIP3   OH268091   5.524   2.786  10.961 -0.0890  0.2479 -0.1600
15559TIP3    H168092   5.572   2.860  10.924  0.7789  0.4851  1.3472
15559TIP3    H268093   5.433   2.816  10.967  0.6234  2.2131  2.7369
15560TIP3   OH268094   2.519   2.232   3.244 -0.2830  0.4651  0.4722
15560TIP3    H168095   2.469   2.156   3.215  0.6242  0.0505 -0.0340
15560TIP3    H268096   2.497   2.301   3.181 -0.1620  0.2664  0.2139
15561TIP3   OH268097   1.209   1.518  13.320 -0.1290 -0.4026 -0.6833
15561TIP3    H168098   1.248   1.467  13.249  0.2123  0.9253 -1.4853
15561TIP3    H268099   1.133   1.467  13.348  0.1975 -1.3333 -1.4688
15562TIP3   OH268100   6.482   5.319  14.219  0.3234 -0.2169 -0.0985
15562TIP3    H168101   6.489   5.260  14.144  0.8390 -1.3456  0.8056
15562TIP3    H268102   6.478   5.406  14.180  1.2949 -0.7248 -1.4226
15563TIP3   OH268103   0.486   3.777  16.037  0.1001  0.3216 -0.0162
15563TIP3    H168104   0.578   3.801  16.025  0.0794  1.0813  1.1796
15563TIP3    H268105   0.439   3.860  16.031 -0.4482  0.0083 -0.0901
15564TIP3   OH268106   2.149   4.640   4.054 -0.0172  0.1927 -0.0587
15564TIP3    H168107   2.077   4.698   4.029 -1.2703 -1.6676 -1.0351
15564TIP3    H268108   2.227   4.696   4.053 -1.2024  1.9076 -0.5982
15565TIP3   OH268109   4.256   6.004  13.387 -0.1910  0.2244 -0.2057
15565TIP3    H168110   4.226   6.078  13.439 -0.8976 -0.1205 -0.1230
15565TIP3    H268111   4.344   6.030  13.358  0.1937  0.4391  1.1042
15566TIP3   OH268112   2.767   5.644  16.572 -0.4025  0.4557  0.0431
15566TIP3    H168113   2.699   5.687  16.520 -1.8478  0.2502  1.6677
15566TIP3    H268114   2.737   5.553  16.580  0.5466  0.1302  0.0361
15567TIP3   OH268115   0.616   4.629  12.832 -0.4462  0.1591 -0.3401
15567TIP3    H168116   0.673   4.679  12.773 -0.3907 -2.2582 -2.5239
15567TIP3    H268117   0.527   4.652  12.804 -0.5118  1.1716  0.6267
15568TIP3   OH268118   0.131   4.320  11.478  0.4012 -0.1363  0.0712
15568TIP3    H168119   0.097   4.245  11.527 -1.3304  0.6966  0.2262
15568TIP3    H268120   0.081   4.319  11.396  0.3685  0.8381  0.0689
15569TIP3   OH268121   2.773   0.436  14.153 -0.1037  0.6219 -0.0603
15569TIP3    H168122   2.767   0.349  14.114 -0.2097  0.0507  1.1847
15569TIP3    H268123   2.750   0.423  14.245 -0.2172  1.9846  0.1257
15570TIP3   OH268124   3.496   2.659   5.636  0.3327 -0.3756 -0.1983
15570TIP3    H168125   3.514   2.611   5.716  0.3312  1.8250  1.2102
15570TIP3    H268126   3.568   2.722   5.628 -0.4073  0.3961 -1.1360
15571TIP3   OH268127   6.261   0.395  12.041 -0.0019 -0.1309 -0.2990
15571TIP3    H168128   6.238   0.307  12.072 -0.9104  0.0028 -0.5594
15571TIP3    H268129   6.315   0.379  11.963 -1.0756 -0.4889 -1.0078
15572TIP3   OH268130   4.891   2.609  10.761  0.5385 -0.1144  0.6959
15572TIP3    H168131   4.964   2.646  10.711 -0.1377  1.8201  1.0604
15572TIP3    H268132   4.929   2.535  10.808  1.0616 -2.6390 -3.2246
15573TIP3   OH268133   3.174   2.977  15.489 -0.1628 -0.3368 -0.3704
15573TIP3    H168134   3.137   3.042  15.428 -0.5444 -0.6527 -0.4806
15573TIP3    H268135   3.098   2.942  15.535  0.2641  1.2186  1.6346
15574TIP3   OH268136   4.070   3.349  11.563  0.3048  0.0978 -0.2947
15574TIP3    H168137   4.096   3.316  11.478 -0.8954  0.5850 -0.8752
15574TIP3    H268138   3.974   3.344  11.563  0.2913 -0.3216  1.2008
15575TIP3   OH268139   3.287   0.432   0.577  0.1689  0.3801 -0.0549
15575TIP3    H168140   3.241   0.361   0.533  1.0739 -0.7619  0.7604
15575TIP3    H268141   3.238   0.446   0.658 -0.3346  1.0936 -0.4719
15576TIP3   OH268142   4.101   0.335  15.970 -0.5220  0.3824 -0.0571
15576TIP3    H168143   4.169   0.386  16.014 -0.1184  0.2663 -0.5295
15576TIP3    H268144   4.094   0.374  15.883  0.4646 -0.9148 -0.7624
15577TIP3   OH268145   4.706   4.241  14.279 -0.2262  0.9046  0.0382
15577TIP3    H168146   4.729   4.306  14.212 -0.6109  0.4865 -0.5128
15577TIP3    H268147   4.676   4.293  14.354 -0.3122  1.3648 -0.3112
15578TIP3   OH268148   6.234   0.149  12.887 -0.7830  0.2882  0.4603
15578TIP3    H168149   6.150   0.123  12.850 -0.1368  0.2651 -1.0432
15578TIP3    H268150   6.273   0.068  12.918  0.2722 -0.3033 -2.2238
15579TIP3   OH268151   1.576   5.287   4.149  0.0103 -0.1235  0.0293
15579TIP3    H168152   1.670   5.292   4.135 -0.1734  1.5773 -0.8922
15579TIP3    H268153   1.538   5.316   4.066 -1.3038  0.6251  0.8569
15580TIP3   OH268154   6.306   0.459  14.998  0.2852 -0.3184 -0.2962
15580TIP3    H168155   6.345   0.422  14.919 -0.9574  0.1521 -1.1645
15580TIP3    H268156   6.373   0.450  15.065  0.9381 -1.7887 -1.1132
15581TIP3   OH268157   3.453   3.995  14.241  0.1634  0.6605 -0.2593
15581TIP3    H168158   3.546   3.977  14.231  0.5985 -0.0601  3.4946
15581TIP3    H268159   3.409   3.914  14.216  0.8190 -0.0054  0.6860
15582TIP3   OH268160   3.174   5.486  11.152 -0.0620 -0.1069  0.3127
15582TIP3    H168161   3.096   5.444  11.115 -0.2126  0.4294  0.0212
15582TIP3    H268162   3.242   5.473  11.085 -0.2044  0.4245  0.0582
15583TIP3   OH268163   4.148   1.767  14.753 -0.5481 -0.1710 -0.9185
15583TIP3    H168164   4.203   1.829  14.801 -1.2073  1.3827 -2.0386
15583TIP3    H268165   4.070   1.757  14.807  0.4951 -1.8742  0.3623
15584TIP3   OH268166   3.838   4.810  12.132 -0.2716  0.4921  0.0167
15584TIP3    H168167   3.777   4.858  12.076  1.2647  0.3526 -1.8508
15584TIP3    H268168   3.901   4.875  12.162  1.4341 -0.1611 -1.9912
15585TIP3   OH268169   3.014   4.313  15.741  0.1441 -0.5783  0.1698
15585TIP3    H168170   2.931   4.264  15.738 -0.4206  0.3548  0.1747
15585TIP3    H268171   2.987   4.405  15.749  1.1787 -0.2430 -0.0820
15586TIP3   OH268172   1.883   5.739  16.671 -0.3964 -0.3493 -0.1070
15586TIP3    H168173   1.850   5.764  16.757 -1.7670 -0.0762 -0.6918
15586TIP3    H268174   1.967   5.696  16.689 -0.6518 -0.2771  1.3528
15587TIP3   OH268175   3.642   4.534  11.880 -0.7764 -0.6763  0.0865
15587TIP3    H168176   3.713   4.543  11.816  0.7328  2.0979  1.9310
15587TIP3    H268177   3.611   4.444  11.868  1.5966 -1.3347 -2.2770
15588TIP3   OH268178   6.556   0.297  12.041  0.0378 -0.1538 -0.1856
15588TIP3    H168179   6.509   0.248  12.109 -0.2734 -2.0570 -1.6932
15588TIP3    H268180   6.648   0.291  12.067 -0.2986  1.9893  1.7793
15589TIP3   OH268181   4.011   3.840   0.594 -0.0736  0.3403 -0.6393
15589TIP3    H168182   4.059   3.779   0.650 -1.5630 -0.6179 -0.3431
15589TIP3    H268183   3.940   3.872   0.650 -1.2198 -0.1474 -1.7569
15590TIP3   OH268184   6.442   5.940  15.878  0.7171 -0.1407 -0.0607
15590TIP3    H168185   6.384   5.982  15.942  0.1510 -2.2025  0.8380
15590TIP3    H268186   6.412   5.849  15.874  0.8818 -0.1853 -3.0972
15591TIP3   OH268187   5.211   5.487   4.471 -0.8338  0.6168  0.0547
15591TIP3    H168188   5.143   5.551   4.451 -0.2120  1.5662  0.8692
15591TIP3    H268189   5.257   5.474   4.389 -1.9633 -0.0281 -0.5068
15592TIP3   OH268190   6.749   2.637   6.020  0.5965  0.5968 -0.7755
15592TIP3    H168191   6.679   2.572   6.014  1.4395 -0.5152  0.8452
15592TIP3    H268192   6.703   2.721   6.020 -0.8524 -0.1271  0.9701
15593TIP3   OH268193   5.936   5.274   4.892  0.0831  0.1179  0.7605
15593TIP3    H168194   5.995   5.341   4.857  0.1829  0.7706  2.1155
15593TIP3    H268195   5.864   5.323   4.931  0.2256 -0.5559  1.8936
15594TIP3   OH268196   3.255   3.728  12.682  0.0816 -0.2509 -0.0982
15594TIP3    H168197   3.278   3.636  12.695  1.7619  0.0524 -0.6247
15594TIP3    H268198   3.304   3.775  12.750  2.0263  0.5175 -1.9033
15595TIP3   OH268199   5.961   0.458   2.766  0.0144  0.4978  0.0264
15595TIP3    H168200   5.984   0.398   2.695  0.6512  1.9930 -1.0820
15595TIP3    H268201   5.865   0.463   2.762  0.1112  2.0909 -2.1015
15596TIP3   OH268202   0.376   3.640  15.832 -0.0238 -0.9611  0.5988
15596TIP3    H168203   0.463   3.650  15.794 -1.0377  2.0007 -1.3335
15596TIP3    H268204   0.375   3.699  15.907 -0.0869 -1.7643  1.2434
15597TIP3   OH268205   1.445   3.024   2.199  0.0772  0.1972 -0.3193
15597TIP3    H168206   1.525   2.991   2.239  0.5530 -0.2098 -1.5432
15597TIP3    H268207   1.406   3.081   2.265  0.0756 -1.5219  1.2322
15598TIP3   OH268208   5.307   4.241  13.002 -0.1179 -1.0616 -0.5053
15598TIP3    H168209   5.219   4.279  12.992  0.3506  0.6819  1.2474
15598TIP3    H268210   5.306   4.200  13.088  1.1038  0.0432  0.0734
15599TIP3   OH268211   6.215   0.149   4.603 -0.2557  0.1979 -0.3213
15599TIP3    H168212   6.134   0.180   4.645 -0.6421 -1.3517  0.1690
15599TIP3    H268213   6.185   0.085   4.538  0.6078 -1.6831  1.0428
15600TIP3   OH268214   2.614   6.072  11.165 -0.3531 -0.1343  0.2544
15600TIP3    H168215   2.556   6.109  11.098 -0.6302  0.4260  0.7948
15600TIP3    H268216   2.557   6.013  11.215 -0.0607 -0.8346 -0.2136
15601TIP3   OH268217   2.287   1.536  15.672 -0.3510  0.4927 -0.2550
15601TIP3    H168218   2.381   1.549  15.682 -0.2614 -0.2470 -0.0322
15601TIP3    H268219   2.248   1.570  15.752 -0.2688  0.7526 -0.3257
15602TIP3   OH268220   1.797   4.750  14.998  0.1981  0.7163 -0.3812
15602TIP3    H168221   1.775   4.766  14.906  0.8581 -1.2000 -0.9247
15602TIP3    H268222   1.892   4.759  15.002  0.1178  1.4161  0.2803
15603TIP3   OH268223   5.173   4.108   1.261  0.0847  0.2944  0.0792
15603TIP3    H168224   5.166   4.064   1.176  0.2017  0.3815  0.0238
15603TIP3    H268225   5.144   4.043   1.324 -2.3565  0.9905 -0.2148
15604TIP3   OH268226   5.407   1.718  15.385  0.0027 -0.9219 -0.3315
15604TIP3    H168227   5.398   1.810  15.361 -0.8887 -1.3720 -1.8928
15604TIP3    H268228   5.325   1.697  15.430  0.6455 -0.7119  0.9813
15605TIP3   OH268229   1.092   1.715   1.043  0.1525 -0.3348 -0.6976
15605TIP3    H168230   1.012   1.669   1.018 -1.5566  1.7480  0.6455
15605TIP3    H268231   1.087   1.799   0.997  1.2911  0.0447 -0.1729
15606TIP3   OH268232   5.544   1.438   4.453 -0.5622  1.1461 -0.3483
15606TIP3    H168233   5.451   1.460   4.458 -0.6667  0.5564  0.5565
15606TIP3    H268234   5.572   1.433   4.544  0.0631  0.1587 -0.5803
15607TIP3   OH268235   2.181   2.455  15.746  0.0213 -0.4248  0.4707
15607TIP3    H168236   2.181   2.544  15.781 -1.2443  0.8711 -2.4814
15607TIP3    H268237   2.264   2.448  15.699  0.4379 -1.1193  1.2673
15608TIP3   OH268238   3.997   0.906   1.056  1.0039  0.3460  0.3418
15608TIP3    H168239   4.065   0.842   1.036  0.7307 -0.1999  1.1461
15608TIP3    H268240   4.015   0.934   1.145  0.1605  0.1801  0.5665
15609TIP3   OH268241   2.171   2.599   2.456 -0.0564  0.1546 -0.3671
15609TIP3    H168242   2.174   2.582   2.361 -0.5849 -1.6703 -0.0881
15609TIP3    H268243   2.084   2.637   2.470  0.2318  0.9499 -0.6754
15610TIP3   OH268244   0.983   1.834  15.402 -0.5548 -0.0936 -0.6642
15610TIP3    H168245   1.012   1.859  15.490 -0.1203  0.9208 -1.0756
15610TIP3    H268246   1.018   1.746  15.389  4.6309  1.7934 -2.0128
15611TIP3   OH268247   2.395   4.274   4.209  0.6901 -0.0421 -0.3845
15611TIP3    H168248   2.433   4.336   4.145  1.6581 -1.3568 -1.1426
15611TIP3    H268249   2.308   4.255   4.175 -0.0777  1.7247  0.4638
15612TIP3   OH268250   6.087   6.427   4.102  0.0136 -0.0279 -0.1629
15612TIP3    H168251   6.014   6.436   4.040 -1.2945  1.5333  1.5039
15612TIP3    H268252   6.147   6.498   4.078  0.1171 -0.1965 -0.4066
15613TIP3   OH268253   6.466   5.464   3.956  0.2271 -0.1826 -0.0570
15613TIP3    H168254   6.515   5.382   3.957  0.3762 -0.1078 -0.6139
15613TIP3    H268255   6.481   5.502   4.042  0.7967 -0.3725 -0.0681
15614TIP3   OH268256   2.411   2.572   3.107 -0.7338 -0.7599  0.8357
15614TIP3    H168257   2.356   2.647   3.128 -0.6341 -0.5425  0.3413
15614TIP3    H268258   2.353   2.497   3.113 -1.1176 -0.5216  0.2270
15615TIP3   OH268259   2.401   6.208   4.591 -0.2557  0.6794 -0.2678
15615TIP3    H168260   2.391   6.301   4.609  0.5528  1.3883 -3.0331
15615TIP3    H268261   2.333   6.187   4.527  0.3843 -0.3048 -0.6597
15616TIP3   OH268262   0.931   0.078  13.415 -0.0403  0.4396 -0.6697
15616TIP3    H168263   0.922   0.050  13.324  0.5000  1.8309 -1.1960
15616TIP3    H268264   0.853   0.131  13.432  0.6104  1.4874 -0.8636
15617TIP3   OH268265   1.425   3.762   0.992 -0.1546 -0.5321 -0.2569
15617TIP3    H168266   1.471   3.682   0.967 -0.6413 -0.3400 -1.9128
15617TIP3    H268267   1.490   3.832   0.977 -1.1615 -0.1357 -3.6754
15618TIP3   OH268268   6.102   2.932   5.717  0.0571 -0.0040  0.0912
15618TIP3    H168269   6.157   2.956   5.643  0.1256 -0.3789  0.0182
15618TIP3    H268270   6.013   2.929   5.680  0.0255  0.2904  0.1382
15619TIP3   OH268271   1.149   0.003  12.552  0.0896  0.5539  0.1798
15619TIP3    H168272   1.101   0.065  12.607  0.8923  0.1681  1.3500
15619TIP3    H268273   1.147   0.043  12.464 -0.3523  1.6890  0.6838
15620TIP3   OH268274   2.197   4.522   0.609  0.0025  0.7056 -0.0589
15620TIP3    H168275   2.159   4.437   0.631 -0.6214  1.1443  0.6369
15620TIP3    H268276   2.262   4.504   0.541 -2.0891  0.0270 -1.9966
15621TIP3   OH268277   3.056   2.676   1.605 -0.2683  0.1909  0.1188
15621TIP3    H168278   3.080   2.583   1.610 -1.5797 -0.1706 -0.0248
15621TIP3    H268279   3.108   2.710   1.532 -1.7144 -1.0662 -1.5778
15622TIP3   OH268280   1.518   4.562  12.167  0.0941 -0.0188 -0.2614
15622TIP3    H168281   1.487   4.489  12.220  1.7516 -0.8598 -0.3696
15622TIP3    H268282   1.531   4.524  12.080 -1.9421  1.1747 -1.1611
15623TIP3   OH268283   3.631   3.937  12.277 -0.3063  0.9936 -0.0036
15623TIP3    H168284   3.566   3.998  12.243 -1.1034 -0.8167 -1.9065
15623TIP3    H268285   3.583   3.884  12.341 -0.7433 -0.2841 -1.3441
15624TIP3   OH268286   4.822   6.055  15.391  0.1919  0.1035 -0.1362
15624TIP3    H168287   4.770   6.063  15.471  0.2664 -1.9792  0.1905
15624TIP3    H268288   4.769   6.094  15.323 -1.3051 -0.8844  0.4076
15625TIP3   OH268289   5.716   0.154   1.095 -0.6048  0.0504 -0.1442
15625TIP3    H168290   5.768   0.076   1.113 -0.6041  0.0140 -0.3000
15625TIP3    H268291   5.777   0.227   1.109 -0.0407 -0.0508 -1.8648
15626TIP3   OH268292   4.155   3.963   3.044 -0.8330  0.0050  0.2864
15626TIP3    H168293   4.180   3.915   3.123 -2.0422 -0.1115  0.6210
15626TIP3    H268294   4.237   3.998   3.010 -0.0019 -1.8107  0.3516
15627TIP3   OH268295   4.528   6.513  15.337  0.4062 -0.1667  0.3620
15627TIP3    H168296   4.459   6.461  15.377  0.7864 -0.9021  0.0840
15627TIP3    H268297   4.482   6.584  15.292 -0.2642 -1.2154 -0.6663
15628TIP3   OH268298   2.179   3.607  13.488  0.3797  0.2501  0.0429
15628TIP3    H168299   2.246   3.544  13.461 -0.3683 -0.0747 -1.1563
15628TIP3    H268300   2.186   3.610  13.583 -0.3755 -2.6077  0.2812
15629TIP3   OH268301   0.531   1.489  11.831  0.1881 -0.2343  0.1798
15629TIP3    H168302   0.598   1.438  11.875  0.6910  0.4640  0.2445
15629TIP3    H268303   0.455   1.431  11.826  0.9912 -1.2736 -0.4642
15630TIP3   OH268304   3.833   6.336   0.108 -0.0704 -0.3824  0.4825
15630TIP3    H168305   3.783   6.342   0.026 -1.2390 -0.2640  1.1922
15630TIP3    H268306   3.924   6.346   0.080 -0.4087 -0.7073 -0.8547
15631TIP3   OH268307   6.534   5.270  10.579  0.1957  0.1648  0.4029
15631TIP3    H168308   6.596   5.329  10.537  1.8499 -1.0414  1.0453
15631TIP3    H268309   6.562   5.183  10.553 -0.6924 -0.4604  1.4414
15632TIP3   OH268310   1.382   4.521   4.338  0.9587  0.0383 -0.0820
15632TIP3    H168311   1.451   4.582   4.362 -0.1837  1.2196  0.3514
15632TIP3    H268312   1.323   4.572   4.283  0.3326 -0.8906 -0.3025
15633TIP3   OH268313   4.716   5.740  12.015  0.3526 -0.0362 -0.5079
15633TIP3    H168314   4.774   5.704  11.949 -1.9643 -0.2131 -2.5988
15633TIP3    H268315   4.658   5.668  12.039 -0.7361  0.7875 -0.5506
15634TIP3   OH268316   0.156   2.934  15.040  0.0361 -0.7808  0.2439
15634TIP3    H168317   0.182   3.017  15.000 -0.0674 -1.2763 -0.8910
15634TIP3    H268318   0.191   2.938  15.129  1.0620 -0.0170 -0.1791
15635TIP3   OH268319   3.576   4.052   0.830  1.1105 -0.1553  0.0784
15635TIP3    H168320   3.500   4.107   0.847  0.8574 -0.5760  0.3232
15635TIP3    H268321   3.592   4.006   0.912  0.3629 -1.6049 -0.5526
15636TIP3   OH268322   6.726   0.747  11.747  0.7121 -0.0032 -0.9660
15636TIP3    H168323   6.682   0.829  11.770  0.9400  0.2808 -1.5080
15636TIP3    H268324   6.665   0.678  11.775  1.0283  0.3026  0.5509
15637TIP3   OH268325   4.652   1.144   1.908 -0.2311 -0.5974 -0.0936
15637TIP3    H168326   4.571   1.138   1.957  1.6672 -1.4625  3.2423
15637TIP3    H268327   4.663   1.238   1.891  0.0074  0.0963  3.2007
15638TIP3   OH268328   0.923   3.706   4.743  0.3585  0.1785  0.9411
15638TIP3    H168329   0.878   3.777   4.788 -1.7324 -0.7828  0.5204
15638TIP3    H268330   0.940   3.641   4.812  0.3447  0.2023  0.9668
15639TIP3   OH268331   0.830   0.466   4.924 -0.5766 -0.2701 -0.4774
15639TIP3    H168332   0.796   0.536   4.868 -1.2417 -1.0918 -1.1137
15639TIP3    H268333   0.911   0.438   4.882 -1.2176 -1.0766 -1.2032
15640TIP3   OH268334   0.547   6.780   1.889 -0.1534 -0.4993  0.4168
15640TIP3    H168335   0.591   6.695   1.896 -0.4803 -0.6545  0.6298
15640TIP3    H268336   0.594   6.826   1.820 -1.4171 -1.7366 -1.3312
15641TIP3   OH268337   2.775   5.453  16.357 -0.1750 -0.1295 -0.0621
15641TIP3    H168338   2.705   5.392  16.381 -0.3593 -0.2785 -0.9365
15641TIP3    H268339   2.732   5.517  16.299  0.4034 -0.2316 -0.6182
15642TIP3   OH268340   5.181   5.393   2.030 -0.0977  0.1739  0.0536
15642TIP3    H168341   5.150   5.472   2.075  0.3139  0.6773 -0.5240
15642TIP3    H268342   5.241   5.352   2.093  1.8053  1.7721 -0.6079
15643TIP3   OH268343   0.283   2.202  16.405  0.0015  0.3943  0.3402
15643TIP3    H168344   0.233   2.144  16.462  0.2438  3.8495  4.5756
15643TIP3    H268345   0.364   2.155  16.388 -1.2561 -1.9473  0.2777
15644TIP3   OH268346   4.108   5.692   2.388  0.4039 -0.0304  0.6532
15644TIP3    H168347   4.202   5.706   2.399  0.1586  1.6643  0.8441
15644TIP3    H268348   4.095   5.692   2.294  0.5857 -0.3217  0.6240
15645TIP3   OH268349   3.758   0.905   2.572 -0.0689 -0.1928 -0.3243
15645TIP3    H168350   3.845   0.867   2.577 -0.1283 -0.3144 -0.1915
15645TIP3    H268351   3.721   0.891   2.660 -0.6428 -1.1520 -0.7073
15646TIP3   OH268352   5.189   1.372   4.022  0.0066  0.0082 -0.4095
15646TIP3    H168353   5.239   1.444   3.983 -0.7667  1.1144  0.5872
15646TIP3    H268354   5.239   1.348   4.101  0.1177 -0.3758 -0.5935
15647TIP3   OH268355   4.829   6.158  12.511 -0.0944 -0.0347 -0.1510
15647TIP3    H168356   4.777   6.150  12.590  0.5127  2.6789  0.6227
15647TIP3    H268357   4.765   6.169  12.441 -0.6126 -0.0693  0.3151
15648TIP3   OH268358   0.321   0.939   1.794 -0.2817  0.6098  0.1968
15648TIP3    H168359   0.404   0.906   1.829  0.1120  0.6959 -0.6398
15648TIP3    H268360   0.295   0.874   1.730  0.3267  1.7055 -1.2217
15649TIP3   OH268361   6.312   2.796  15.292  0.0972  0.1887  0.6398
15649TIP3    H168362   6.395   2.812  15.245 -0.6883  1.1115 -0.5041
15649TIP3    H268363   6.311   2.863  15.361  0.0564  0.5337  0.3087
15650TIP3   OH268364   5.685   2.273   3.245 -0.6633 -0.3357  0.2843
15650TIP3    H168365   5.758   2.334   3.238 -1.1451  0.0990 -1.4312
15650TIP3    H268366   5.722   2.195   3.287  0.6243  0.1013 -0.0056
15651TIP3   OH268367   3.373   2.786  14.808  0.2051  0.0634 -0.4057
15651TIP3    H168368   3.333   2.868  14.781  0.0100 -0.2898 -1.2204
15651TIP3    H268369   3.451   2.778  14.753 -1.2284 -1.6108 -2.3184
15652TIP3   OH268370   1.927   3.491  12.584  0.3792 -0.1662  0.1657
15652TIP3    H168371   2.018   3.460  12.584 -0.5581 -3.3110 -0.7587
15652TIP3    H268372   1.895   3.468  12.672 -0.4639 -2.5576 -0.6870
15653TIP3   OH268373   4.374   4.650  13.276  1.0459  0.2081 -0.4819
15653TIP3    H168374   4.329   4.735  13.271  1.9477  0.7140 -0.3336
15653TIP3    H268375   4.437   4.662  13.347 -0.0939 -1.2219  0.8414
15654TIP3   OH268376   1.836   5.044   5.901  0.1140  0.1156 -0.4519
15654TIP3    H168377   1.789   5.124   5.875  0.1881  0.4733  0.5079
15654TIP3    H268378   1.872   5.064   5.987  0.5626 -0.7819 -0.4266
15655TIP3   OH268379   3.433   6.457  11.826  0.0267  0.9101  0.0743
15655TIP3    H168380   3.385   6.423  11.751  2.4925 -0.5131 -0.9751
15655TIP3    H268381   3.436   6.552  11.811  1.0861  0.5982 -2.0876
15656TIP3   OH268382   3.895   2.010  13.532  0.3241  0.6298 -0.3655
15656TIP3    H168383   3.899   1.923  13.493 -2.4342 -0.1427  0.8219
15656TIP3    H268384   3.971   2.013  13.591  0.2331 -1.1368 -0.1019
15657TIP3   OH268385   6.370   3.791   1.356 -0.1376 -0.3136  0.2951
15657TIP3    H168386   6.331   3.860   1.302  0.6245 -0.3014 -0.2731
15657TIP3    H268387   6.419   3.737   1.293  2.9556  1.1894  1.2321
15658TIP3   OH268388   0.493   6.369  11.339 -0.2428  0.1446  0.3488
15658TIP3    H168389   0.501   6.332  11.427  0.7274 -1.3416 -0.3361
15658TIP3    H268390   0.477   6.462  11.354  1.6371  0.2605  2.1125
15659TIP3   OH268391   6.020   4.101   5.246 -0.5474  0.5032 -0.0625
15659TIP3    H168392   6.087   4.164   5.217  0.7180 -1.7619 -2.5255
15659TIP3    H268393   5.965   4.088   5.168  0.7061 -3.1167 -0.4986
15660TIP3   OH268394   1.176   1.410   1.584 -0.4030  0.5293 -0.2788
15660TIP3    H168395   1.118   1.469   1.536  1.7520  1.2299 -2.1819
15660TIP3    H268396   1.139   1.323   1.569 -1.8042  1.0717 -0.1221
15661TIP3   OH268397   1.102   2.294  14.855 -0.0703 -0.2537  0.0141
15661TIP3    H168398   1.165   2.224  14.837 -0.3772 -0.4613 -0.2749
15661TIP3    H268399   1.152   2.375  14.844 -0.1337 -0.3834 -1.3748
15662TIP3   OH268400   4.352   1.065  16.464 -0.3939  0.3489  0.1840
15662TIP3    H168401   4.379   0.974  16.471  0.0599  0.4576 -0.0790
15662TIP3    H268402   4.345   1.082  16.370 -1.3950  0.3281  0.2526
15663TIP3   OH268403   0.493   1.397   4.855 -0.4690 -0.1386  0.1976
15663TIP3    H168404   0.508   1.318   4.803 -0.1284 -1.2610  1.9075
15663TIP3    H268405   0.429   1.447   4.804 -0.2606 -1.2340 -1.2106
15664TIP3   OH268406   5.710   1.124   2.767  0.1353  0.4111  0.1582
15664TIP3    H168407   5.738   1.089   2.851 -0.7852 -1.1348 -0.1355
15664TIP3    H268408   5.775   1.091   2.705 -0.1338  0.1157  0.0310
15665TIP3   OH268409   2.061   3.942   2.346  0.3095  0.3395  0.3407
15665TIP3    H168410   1.971   3.960   2.321  1.0630  0.5088 -2.7311
15665TIP3    H268411   2.098   4.027   2.367  0.2021  0.5310 -0.2204
15666TIP3   OH268412   2.987   1.769   4.151 -0.0432  0.4938  0.9727
15666TIP3    H168413   2.908   1.817   4.126 -0.4858  0.5328  2.3624
15666TIP3    H268414   3.046   1.836   4.185  0.1467  0.3158  0.9992
15667TIP3   OH268415   3.246   2.585   2.294 -0.1074 -0.6248 -0.0205
15667TIP3    H168416   3.210   2.620   2.375  1.3802  2.3142 -0.5014
15667TIP3    H268417   3.300   2.511   2.322  1.2556  0.9729  1.8964
15668TIP3   OH268418   5.281   2.849  13.908 -0.0230 -0.0205 -0.0538
15668TIP3    H168419   5.274   2.874  13.816  1.7953  0.5410 -0.0820
15668TIP3    H268420   5.344   2.777  13.909 -2.2897 -2.1191  0.4696
15669TIP3   OH268421   1.856   0.745   6.218  0.3460  0.3546  0.0462
15669TIP3    H168422   1.830   0.663   6.260  1.1413 -0.2361 -0.5892
15669TIP3    H268423   1.928   0.778   6.272 -0.2240  0.8580  0.5274
15670TIP3   OH268424   4.401   1.053   6.422  0.2167  0.1387 -0.1383
15670TIP3    H168425   4.344   0.981   6.396  1.4975 -0.9562 -0.0117
15670TIP3    H268426   4.443   1.081   6.340  0.0262  0.4838 -0.1214
15671TIP3   OH268427   5.445   6.571  16.025  0.5817 -0.1991  0.0069
15671TIP3    H168428   5.493   6.610  16.097 -0.6836 -0.4338  1.0096
15671TIP3    H268429   5.424   6.645  15.967  1.2037  0.0546  0.0984
15672TIP3   OH268430   3.327   5.084  11.283 -0.1081 -0.1227 -0.1511
15672TIP3    H168431   3.287   5.013  11.234 -0.7623  1.1912 -1.6013
15672TIP3    H268432   3.396   5.118  11.226 -1.0830  1.6319 -0.3808
15673TIP3   OH268433   6.532   1.340   2.875 -0.5360 -0.3929  0.3021
15673TIP3    H168434   6.531   1.373   2.785 -0.7586 -0.1773  0.3841
15673TIP3    H268435   6.448   1.294   2.884  0.6386 -2.9061 -0.5242
15674TIP3   OH268436   4.667   6.274   3.475 -0.0918 -0.5233  0.0932
15674TIP3    H168437   4.727   6.330   3.524 -1.2765  1.1355 -0.3019
15674TIP3    H268438   4.638   6.208   3.539 -1.8942  1.7955  1.8537
15675TIP3   OH268439   6.503   1.152  15.074 -0.4870  0.5491  0.0769
15675TIP3    H168440   6.469   1.086  15.134  1.8628  0.9188  1.9580
15675TIP3    H268441   6.482   1.236  15.117  1.8362  0.8006  0.8335
15676TIP3   OH268442   3.568   5.549   0.372 -0.2983 -0.3959 -0.0861
15676TIP3    H168443   3.547   5.588   0.288  0.5068  2.1128  0.8027
15676TIP3    H268444   3.663   5.541   0.372 -0.2906 -0.3539  0.5898
15677TIP3   OH268445   6.413   3.329   0.979 -0.6519 -0.0090  0.4550
15677TIP3    H168446   6.492   3.352   0.930 -0.0432 -0.3389  1.2609
15677TIP3    H268447   6.346   3.317   0.912 -0.5279  2.1491 -0.1398
15678TIP3   OH268448   1.881   4.346  13.505  0.3065  0.0244  0.1157
15678TIP3    H168449   1.927   4.406  13.563  1.4583  0.2150 -0.9607
15678TIP3    H268450   1.936   4.267  13.503 -0.4080 -0.4915  0.3170
15679TIP3   OH268451   5.692   2.426  13.013 -0.3294  0.0867 -0.3021
15679TIP3    H168452   5.616   2.373  13.038  0.4309 -0.9592 -0.1276
15679TIP3    H268453   5.668   2.465  12.929 -1.3531  0.3984  0.1216
15680TIP3   OH268454   4.463   6.652  15.031 -0.3480  0.5452  0.0928
15680TIP3    H168455   4.421   6.711  14.968 -1.5945 -0.1409  0.2322
15680TIP3    H268456   4.507   6.710  15.093  2.0162  1.2393 -2.0569
15681TIP3   OH268457   2.098   2.358   4.368  0.0692  0.0050  0.2648
15681TIP3    H168458   2.103   2.453   4.364  0.2025  0.0949  2.0344
15681TIP3    H268459   2.118   2.330   4.278 -0.5478  1.6414 -0.4182
15682TIP3   OH268460   4.558   3.557   3.598 -0.0533  0.4640  0.1414
15682TIP3    H168461   4.626   3.494   3.621  0.8640  1.4815  0.2861
15682TIP3    H268462   4.598   3.612   3.530 -1.0434  0.5271 -0.4144
15683TIP3   OH268463   0.762   1.628   4.554 -0.4144 -0.0798 -0.1768
15683TIP3    H168464   0.848   1.666   4.534  0.5588 -1.9560  0.1941
15683TIP3    H268465   0.746   1.652   4.645  0.9521 -1.7484  0.5856
15684TIP3   OH268466   1.188   6.073  15.464  0.3633  0.0550 -0.4388
15684TIP3    H168467   1.094   6.087  15.477  0.1092 -1.0075 -1.0311
15684TIP3    H268468   1.202   6.093  15.371  0.5783 -0.4978 -0.5297
15685TIP3   OH268469   6.470   1.733  13.489  0.2431  0.1013 -0.0249
15685TIP3    H168470   6.396   1.789  13.466  0.4302  0.7867  0.9602
15685TIP3    H268471   6.546   1.791  13.489  0.6371 -0.4048 -0.1490
15686TIP3   OH268472   5.200   1.491   3.432 -0.0840  0.2417  0.5815
15686TIP3    H168473   5.125   1.449   3.391 -0.6157  1.8807 -0.2333
15686TIP3    H268474   5.275   1.468   3.377 -0.2743 -0.0339  0.4370
15687TIP3   OH268475   0.702   3.950  13.901 -1.2202 -0.4445 -0.7193
15687TIP3    H168476   0.745   3.866  13.912 -0.0974  0.0936 -0.8171
15687TIP3    H268477   0.762   4.001  13.847 -0.9162  1.0997  0.9876
15688TIP3   OH268478   2.863   1.680  16.246 -0.2361 -1.1247 -0.6481
15688TIP3    H168479   2.918   1.729  16.306  0.2823 -1.7911 -0.5749
15688TIP3    H268480   2.904   1.594  16.239 -0.3046 -1.0796 -1.9159
15689TIP3   OH268481   4.135   2.280   4.580 -0.2131 -0.7089 -0.0486
15689TIP3    H168482   4.180   2.362   4.557 -1.5259  0.0963  0.2004
15689TIP3    H268483   4.198   2.234   4.636  0.6805 -0.0377 -0.4608
15690TIP3   OH268484   4.683   1.783   5.422 -0.2929 -0.0085 -0.5581
15690TIP3    H168485   4.747   1.721   5.458 -0.7888 -0.6940 -0.8233
15690TIP3    H268486   4.718   1.869   5.444  0.9623 -0.3517 -1.0871
15691TIP3   OH268487   5.505   0.997   5.690  0.9183  0.9234 -0.1878
15691TIP3    H168488   5.414   0.975   5.670  0.8295 -0.2826  1.3165
15691TIP3    H268489   5.515   1.088   5.660 -0.8784  1.1927 -0.0868
15692TIP3   OH268490   5.688   0.398  14.524  0.2228  0.4847 -0.1038
15692TIP3    H168491   5.594   0.411  14.511 -0.3853 -0.8257  2.3016
15692TIP3    H268492   5.725   0.399  14.436 -2.0793  0.6320 -1.1541
15693TIP3   OH268493   0.854   0.849   4.948 -0.3018 -1.0421  0.1629
15693TIP3    H168494   0.926   0.793   4.919  0.1562 -0.3653 -0.0493
15693TIP3    H268495   0.889   0.938   4.940 -0.0354 -0.8040  3.1011
15694TIP3   OH268496   2.468   5.023   6.334 -0.4218 -0.1139  0.3656
15694TIP3    H168497   2.503   5.086   6.271 -1.3751 -0.6506 -0.7256
15694TIP3    H268498   2.529   4.949   6.331  0.3821  0.4781  1.2323
15695TIP3   OH268499   4.545   2.455  13.556  0.5116  0.0329 -0.2644
15695TIP3    H168500   4.599   2.533  13.542 -1.2456  1.1070 -1.3815
15695TIP3    H268501   4.455   2.486  13.547 -0.2384 -2.1697 -0.9161
15696TIP3   OH268502   6.654   3.206   3.133  0.1513  0.1861 -0.7059
15696TIP3    H168503   6.740   3.165   3.140  0.9461  1.7504 -0.7893
15696TIP3    H268504   6.640   3.248   3.218 -0.8895 -0.7023 -0.4266
15697TIP3   OH268505   4.055   1.039  16.983 -0.2719 -0.5470  0.1996
15697TIP3    H168506   4.001   1.075  16.912  2.0848  1.1949 -0.8470
15697TIP3    H268507   4.093   1.116  17.025  0.0380 -1.6458  2.0158
15698TIP3   OH268508   3.328   4.494   4.363 -0.4788 -0.7017 -0.1153
15698TIP3    H168509   3.399   4.522   4.421  1.1480 -2.7945 -0.9406
15698TIP3    H268510   3.342   4.545   4.283 -0.7675 -0.1118  0.2050
15699TIP3   OH268511   3.416   5.342  17.117  0.0433 -0.0389 -0.3760
15699TIP3    H168512   3.447   5.281  17.183  1.1168 -0.6736 -1.4378
15699TIP3    H268513   3.339   5.300  17.079 -0.7021  0.4217  0.5781
15700TIP3   OH268514   2.594   0.951  12.484  0.5814  0.0214  0.3523
15700TIP3    H168515   2.551   1.035  12.500  0.6639  0.1575 -0.1398
15700TIP3    H268516   2.676   0.974  12.440  0.3665 -0.3527 -0.2423
15701TIP3   OH268517   6.417   6.773  14.147 -0.0997 -0.4688 -0.2777
15701TIP3    H168518   6.421   6.774  14.052  0.4021 -0.0936 -0.2554
15701TIP3    H268519   6.508   6.785  14.175 -0.2211 -0.7539  0.2465
15702TIP3   OH268520   1.446   3.074  13.242  0.3290 -0.3982  0.0742
15702TIP3    H168521   1.371   3.045  13.191 -2.2241  1.6016  2.4063
15702TIP3    H268522   1.513   3.093  13.176 -1.5082 -1.3136 -2.2063
15703TIP3   OH268523   5.847   6.594  15.977  0.2247 -0.3781 -0.1239
15703TIP3    H168524   5.818   6.526  15.917  1.7957 -0.6374 -0.6474
15703TIP3    H268525   5.919   6.553  16.027 -0.1735  0.2499  1.0084
15704TIP3   OH268526   1.863   2.132  11.275 -0.3213  0.5152  0.7231
15704TIP3    H168527   1.831   2.088  11.197  1.2114 -0.1785  0.4527
15704TIP3    H268528   1.803   2.206  11.287 -1.0520  0.1789 -0.6285
15705TIP3   OH268529   3.822   0.452   3.916  0.6825  0.7612  0.1871
15705TIP3    H168530   3.893   0.398   3.951 -0.0965  0.6460  1.6605
15705TIP3    H268531   3.743   0.399   3.930  0.2621  0.8997 -1.3964
15706TIP3   OH268532   5.438   1.073  12.299 -0.4297  0.4506 -0.6032
15706TIP3    H168533   5.496   1.140  12.262  0.8694 -0.9842 -1.2753
15706TIP3    H268534   5.451   0.997  12.243 -0.6246 -0.8967  1.1045
15707TIP3   OH268535   1.713   1.603   4.595  0.3855  0.3053  0.2252
15707TIP3    H168536   1.626   1.563   4.598 -0.2642  1.5856  3.8663
15707TIP3    H268537   1.709   1.664   4.521 -2.3655  1.3443  1.1046
15708TIP3   OH268538   1.713   1.290  11.106  0.2189 -0.3461 -0.3566
15708TIP3    H168539   1.660   1.347  11.050  0.1139 -0.2844 -0.1959
15708TIP3    H268540   1.757   1.230  11.046 -0.1900 -0.5282 -0.4770
15709TIP3   OH268541   3.305   0.869   1.823 -0.1325  0.3251 -0.0299
15709TIP3    H168542   3.261   0.784   1.818  0.1675  0.2567 -2.5148
15709TIP3    H268543   3.397   0.848   1.838 -0.0954  0.2192 -0.4030
15710TIP3   OH268544   2.043   5.435  13.830 -0.7540 -0.2583 -0.1497
15710TIP3    H168545   2.017   5.497  13.897  0.7461 -0.6461  0.8467
15710TIP3    H268546   2.041   5.350  13.873  1.4602 -0.3783 -0.1648
15711TIP3   OH268547   2.063   4.556  10.989 -0.7373 -0.5976 -0.4119
15711TIP3    H168548   2.139   4.522  11.037 -2.1049 -1.0012  1.5677
15711TIP3    H268549   2.085   4.648  10.974  0.1319 -0.6879  0.1944
15712TIP3   OH268550   5.349   3.987  15.421  0.2895  0.1233  0.4402
15712TIP3    H168551   5.275   3.970  15.479 -0.5160  0.3736 -0.4856
15712TIP3    H268552   5.334   4.076  15.389  0.4072 -0.2078 -0.5821
15713TIP3   OH268553   4.382   6.787  11.789  0.1383  0.1776  0.1027
15713TIP3    H168554   4.333   6.813  11.711 -1.2403  1.0950  1.2105
15713TIP3    H268555   4.340   6.706  11.818 -0.1378  0.4706  0.5375
15714TIP3   OH268556   0.122   1.913  15.457 -0.2705 -0.3437 -0.0256
15714TIP3    H168557   0.065   1.942  15.386  0.5495  0.1930 -0.4847
15714TIP3    H268558   0.092   1.963  15.533 -1.5617 -1.3784  0.1883
15715TIP3   OH268559   6.728   4.048  12.145 -0.3394 -0.5338  0.3129
15715TIP3    H168560   6.724   4.144  12.146 -0.8667 -0.5438  2.0477
15715TIP3    H268561   6.807   4.027  12.195 -0.2937 -1.0221  0.0427
15716TIP3   OH268562   3.680   6.794  13.612 -0.5915  0.4758  0.0156
15716TIP3    H168563   3.614   6.734  13.645 -0.4187 -0.2988 -0.9913
15716TIP3    H268564   3.640   6.833  13.534  0.2812 -0.3374 -0.8610
15717TIP3   OH268565   5.162   1.108  13.743  0.4407  0.0105  0.1407
15717TIP3    H168566   5.099   1.114  13.671  2.2553 -0.7216 -1.5825
15717TIP3    H268567   5.112   1.066  13.814 -1.6134  1.4537 -0.3439
15718TIP3   OH268568   1.149   3.049   3.416  0.0087  0.1572 -0.6781
15718TIP3    H168569   1.119   3.115   3.479  1.0805 -0.3545  0.4122
15718TIP3    H268570   1.078   2.984   3.416 -0.7259  0.9431 -1.2212
15719TIP3   OH268571   6.054   4.078  13.681 -0.0466  0.2786  0.2712
15719TIP3    H168572   6.102   4.142  13.627 -1.0511 -0.0463 -1.0437
15719TIP3    H268573   6.065   4.110  13.770  0.9676  1.3006 -0.1871
15720TIP3   OH268574   4.437   0.167   1.797  0.3752  0.4917  0.4015
15720TIP3    H168575   4.468   0.257   1.809  0.2801  0.5296  0.3702
15720TIP3    H268576   4.372   0.156   1.866 -0.0621  0.6574  0.0245
15721TIP3   OH268577   3.415   4.681  11.850  0.4058  0.8482 -0.0355
15721TIP3    H168578   3.503   4.644  11.851  0.2031  0.3281 -0.8549
15721TIP3    H268579   3.413   4.735  11.771  0.2092  1.4303  0.3568
15722TIP3   OH268580   5.830   6.047   3.324  0.0743  0.6666 -0.0597
15722TIP3    H168581   5.800   6.013   3.240 -1.4433  0.1953  0.6291
15722TIP3    H268582   5.819   6.142   3.317  1.4174  0.7760 -0.9139
15723TIP3   OH268583   5.766   3.976   1.255  0.1374 -0.0186  0.5238
15723TIP3    H168584   5.682   4.011   1.225 -1.0470 -0.0599  3.4882
15723TIP3    H268585   5.749   3.885   1.276  1.3234 -0.4203 -0.1173
15724TIP3   OH268586   5.885   6.052  15.055  0.3527  0.0278 -0.6423
15724TIP3    H168587   5.841   6.076  14.974 -2.0979  0.9333  0.8299
15724TIP3    H268588   5.849   5.966  15.077 -1.2289  1.0039  0.8495
15725TIP3   OH268589   2.117   3.864   0.653  0.0298  0.2522  0.5102
15725TIP3    H168590   2.089   3.940   0.602 -0.1476 -0.9802 -1.3462
15725TIP3    H268591   2.042   3.805   0.652  0.8087 -0.7786  0.1826
15726TIP3   OH268592   6.641   1.428  13.223 -0.1591 -0.6542 -0.0634
15726TIP3    H168593   6.588   1.467  13.153 -0.1922  0.6504  0.6690
15726TIP3    H268594   6.728   1.418  13.184 -0.7671 -2.3637 -1.1129
15727TIP3   OH268595   6.040   5.925   5.025 -0.3663 -0.0139  0.3941
15727TIP3    H168596   6.097   6.001   5.028 -0.6239  0.2084 -0.2249
15727TIP3    H268597   6.043   5.889   5.113  2.2506 -1.1209 -0.0458
15728TIP3   OH268598   0.766   4.170   2.525 -0.2372  1.0166 -0.2266
15728TIP3    H168599   0.858   4.189   2.505  0.3315 -1.5486 -0.4257
15728TIP3    H268600   0.747   4.222   2.604  1.4712  1.3368  0.0146
15729TIP3   OH268601   4.896   6.133   2.821  0.1153  0.2686  0.2854
15729TIP3    H168602   4.800   6.132   2.817  0.0702 -0.7293  1.2556
15729TIP3    H268603   4.917   6.125   2.914  1.1459 -0.5802 -0.0021
15730TIP3   OH268604   2.488   3.595  12.266 -0.0801 -0.1018  0.0757
15730TIP3    H168605   2.548   3.665  12.293  0.9772 -0.7656 -0.4820
15730TIP3    H268606   2.531   3.555  12.191 -0.1411 -2.0668  1.0483
15731TIP3   OH268607   2.650   0.810  11.165 -0.3870 -0.4687  0.0774
15731TIP3    H168608   2.694   0.733  11.130 -1.0142 -0.0537 -1.7021
15731TIP3    H268609   2.566   0.813  11.119  0.1217  1.9432 -0.8336
15732TIP3   OH268610   4.821   6.747   4.909  0.6738 -0.0467 -0.1372
15732TIP3    H168611   4.756   6.723   4.843  1.7269 -1.5445 -0.6742
15732TIP3    H268612   4.784   6.824   4.952 -0.4909  0.3701 -1.7984
15733TIP3   OH268613   6.004   0.084  12.771 -0.2459  0.0801  0.3309
15733TIP3    H168614   5.948   0.150  12.810 -0.9224  0.0394 -0.5288
15733TIP3    H268615   5.956   0.055  12.693  0.6157 -0.5138  0.0032
15734TIP3   OH268616   3.823   6.355   4.868 -0.6147  0.8029  0.3026
15734TIP3    H168617   3.918   6.348   4.866 -0.7486 -1.6860 -1.3300
15734TIP3    H268618   3.801   6.348   4.961  0.7133 -0.5508  0.5511
15735TIP3   OH268619   6.541   1.205   1.615 -0.1017 -0.6878  0.5853
15735TIP3    H168620   6.451   1.196   1.583  0.5287 -0.0758 -1.4770
15735TIP3    H268621   6.541   1.289   1.661 -0.5240 -0.5837  0.4009
15736TIP3   OH268622   0.866   6.690  12.809  0.1138  0.4004 -0.0070
15736TIP3    H168623   0.955   6.655  12.802  0.1087  0.4821 -0.5347
15736TIP3    H268624   0.869   6.772  12.759 -0.7160 -0.4948 -1.5971
15737TIP3   OH268625   2.472   2.744   1.609 -0.2889  0.1189 -0.1544
15737TIP3    H168626   2.553   2.712   1.571  0.0473 -0.1751  0.7820
15737TIP3    H268627   2.407   2.735   1.539  0.5492  0.7086 -1.0286
15738TIP3   OH268628   1.534   6.563  15.375 -0.1018  0.0700  0.4263
15738TIP3    H168629   1.612   6.521  15.412  1.2718 -0.6171 -2.9489
15738TIP3    H268630   1.542   6.655  15.402  0.6717 -0.3833  1.8951
15739TIP3   OH268631   4.690   5.181   5.957  0.2542 -1.2113  0.6805
15739TIP3    H168632   4.743   5.105   5.935  0.6048 -0.7179 -0.2324
15739TIP3    H268633   4.754   5.252   5.970 -0.1138 -0.8754  0.7004
15740TIP3   OH268634   6.705   3.986  15.479 -0.2722  0.3040  0.2629
15740TIP3    H168635   6.792   4.025  15.473 -0.6005  0.8488 -1.3875
15740TIP3    H268636   6.709   3.909  15.423  0.0945 -1.6555  2.7716
15741TIP3   OH268637   1.445   0.839   4.423  0.6851 -0.2994 -0.2669
15741TIP3    H168638   1.360   0.859   4.383 -0.2070  0.6634  1.9573
15741TIP3    H268639   1.508   0.889   4.371 -0.4377  1.0646 -0.3665
15742TIP3   OH268640   0.995   6.560   1.276  0.1593 -0.3426 -0.2211
15742TIP3    H168641   0.997   6.571   1.371 -0.6183 -0.2850 -0.1998
15742TIP3    H268642   0.927   6.494   1.261  0.2354 -0.3098 -0.7411
15743TIP3   OH268643   6.664   6.741  17.130 -0.0869 -0.4564  0.1420
15743TIP3    H168644   6.638   6.764  17.220 -0.4482 -2.4493  0.5946
15743TIP3    H268645   6.592   6.688  17.097  0.3775 -0.3490 -1.0829
15744TIP3   OH268646   1.229   4.687  14.210 -0.5866  0.2950  0.2335
15744TIP3    H168647   1.265   4.713  14.125 -0.2302 -0.3921  0.1666
15744TIP3    H268648   1.138   4.662  14.191 -0.1124 -1.1838 -0.2088
15745TIP3   OH268649   6.221   4.071  16.828 -0.4748  0.0994  0.0977
15745TIP3    H168650   6.315   4.061  16.846  0.0082  3.1317 -0.2303
15745TIP3    H268651   6.204   4.009  16.757  1.9196  1.2379 -1.5934
15746TIP3   OH268652   5.178   1.180   3.332 -0.0120 -0.5880 -0.0237
15746TIP3    H168653   5.122   1.120   3.282  0.6371 -0.7014 -0.6332
15746TIP3    H268654   5.231   1.224   3.266 -0.1937  0.3720  0.4553
15747TIP3   OH268655   4.490   0.017   0.347  0.1224  0.0565  0.1835
15747TIP3    H168656   4.543   0.021   0.267  0.5146 -1.6359  0.3090
15747TIP3    H268657   4.552   0.034   0.418 -0.2407  1.6321  0.1424
15748TIP3   OH268658   3.272   1.867  10.652 -0.4104 -0.0351  0.2845
15748TIP3    H168659   3.321   1.815  10.588 -0.0496  0.5261  0.0916
15748TIP3    H268660   3.198   1.903  10.602 -1.3225 -1.2740  0.6896
15749TIP3   OH268661   4.598   4.029  17.129 -1.0604 -0.3114  0.1956
15749TIP3    H168662   4.604   4.125  17.137 -3.4307 -0.1199  0.5330
15749TIP3    H268663   4.636   3.996  17.210 -0.5675  0.3634  0.2527
15750TIP3   OH268664   1.453   4.423   0.983 -0.3313 -0.1763  0.0243
15750TIP3    H168665   1.412   4.402   1.067  0.1041 -1.1510  0.0010
15750TIP3    H268666   1.500   4.504   0.999 -2.5960  1.2418 -0.0540
15751TIP3   OH268667   5.838   3.270   0.994  0.1003  0.0052  0.1010
15751TIP3    H168668   5.791   3.348   1.022 -0.2558  0.1007 -0.7374
15751TIP3    H268669   5.805   3.200   1.051  1.0331  0.5884  1.4339
15752TIP3   OH268670   1.266   6.546   3.532  0.6632 -0.1118  0.0236
15752TIP3    H168671   1.349   6.595   3.533  1.2003 -1.0025  1.6920
15752TIP3    H268672   1.199   6.614   3.541  1.3860  0.3873  2.1655
15753TIP3   OH268673   1.930   5.741  16.055 -0.6003 -0.0604 -0.1489
15753TIP3    H168674   1.988   5.812  16.027 -0.8169 -0.7999 -2.6940
15753TIP3    H268675   1.985   5.663  16.055 -0.9329 -0.3008  0.2295
15754TIP3   OH268676   2.389   6.598   1.694 -0.4434 -0.6998 -0.2842
15754TIP3    H168677   2.366   6.572   1.783  1.5278 -0.3475  0.3767
15754TIP3    H268678   2.417   6.689   1.702  1.9617 -1.3380 -0.8043
15755TIP3   OH268679   5.547   1.532  15.542 -0.1628  0.0654 -0.1450
15755TIP3    H168680   5.512   1.586  15.471 -1.4393 -1.6692 -0.8911
15755TIP3    H268681   5.470   1.491  15.582  0.4681  1.2833  2.5746
15756TIP3   OH268682   5.328   1.637  12.767  0.3784 -0.0120  0.2821
15756TIP3    H168683   5.269   1.563  12.756 -1.3649  1.6561 -2.6012
15756TIP3    H268684   5.298   1.680  12.847  1.2851 -2.1653  1.8832
15757TIP3   OH268685   3.180   0.480  10.320  0.5555 -0.1352 -0.0313
15757TIP3    H168686   3.260   0.456  10.365  0.9728 -0.8286 -1.0944
15757TIP3    H268687   3.110   0.450  10.377  0.8658  3.8024  2.7917
15758TIP3   OH268688   6.187   1.245   0.706  0.4064  0.6443 -0.1486
15758TIP3    H168689   6.248   1.296   0.759  1.3249 -0.1294 -0.4309
15758TIP3    H268690   6.192   1.283   0.618 -1.3465  2.1269  0.3245
15759TIP3   OH268691   1.814   4.925   4.242 -0.2693  0.3086  0.0933
15759TIP3    H168692   1.732   4.914   4.194 -0.3342 -2.3956  0.6843
15759TIP3    H268693   1.872   4.858   4.205  1.1201  1.0472  0.8615
15760TIP3   OH268694   0.018   2.275  17.090 -0.2869  0.7900  0.1890
15760TIP3    H168695  -0.061   2.327  17.078  0.5381  2.4643  1.6212
15760TIP3    H268696  -0.013   2.190  17.120 -1.5594  1.2727  0.2791
15761TIP3   OH268697   5.183   2.581  14.479 -0.1510 -0.9529  0.0777
15761TIP3    H168698   5.118   2.543  14.420  0.0742  0.9438 -1.4672
15761TIP3    H268699   5.243   2.508  14.498  1.1201 -1.2198 -3.9493
15762TIP3   OH268700   5.721   1.129  12.703 -0.6241  0.1762 -0.1170
15762TIP3    H168701   5.687   1.132  12.613 -2.0785  0.2973  0.4189
15762TIP3    H268702   5.816   1.121  12.692 -0.9098 -2.2955 -1.7097
15763TIP3   OH268703   1.819   4.295  16.646  0.3269  0.3664 -0.1985
15763TIP3    H168704   1.878   4.325  16.577  0.5877  0.6227  0.1310
15763TIP3    H268705   1.876   4.284  16.722  0.2333 -0.9039 -0.2866
15764TIP3   OH268706   3.030   0.664   4.821  0.0469  0.1158 -0.2147
15764TIP3    H168707   3.062   0.745   4.860 -0.9310  0.8468 -0.8918
15764TIP3    H268708   3.094   0.643   4.753  0.8593 -0.2635  0.6370
15765TIP3   OH268709   5.795   3.212  13.516 -0.7038  0.3601  0.8583
15765TIP3    H168710   5.739   3.159  13.573 -0.2017 -2.0918 -0.8023
15765TIP3    H268711   5.829   3.151  13.451 -0.4480  2.8252 -1.5029
15766TIP3   OH268712   0.267   6.265   1.738 -0.8142 -0.7194  0.0582
15766TIP3    H168713   0.216   6.333   1.694 -2.8209 -1.4732  1.1383
15766TIP3    H268714   0.203   6.201   1.767  0.9375 -2.6239 -0.0713
15767TIP3   OH268715   3.991   0.567   0.064  0.3204 -0.5625  0.0439
15767TIP3    H168716   3.953   0.481   0.049 -0.2996 -0.7234  2.1736
15767TIP3    H268717   4.075   0.549   0.107  0.3351 -0.1075  0.2135
15768TIP3   OH268718   5.263   5.184   3.046  1.1258 -0.2405 -0.3931
15768TIP3    H168719   5.196   5.252   3.058  1.9308  0.4611  0.3663
15768TIP3    H268720   5.241   5.142   2.963 -1.7424 -1.7645  1.0102
15769TIP3   OH268721   1.983   0.908   2.237 -0.2154 -0.7755 -0.3725
15769TIP3    H168722   1.991   0.829   2.184 -1.7757 -0.9424 -0.4051
15769TIP3    H268723   1.889   0.926   2.240  0.1620  2.3594 -2.2759
15770TIP3   OH268724   5.017   0.225  12.123  0.1708  0.6824  0.1746
15770TIP3    H168725   5.107   0.258  12.130  0.3578  0.2270 -0.0780
15770TIP3    H268726   5.015   0.178  12.039  0.5966 -2.0703  1.6124
15771TIP3   OH268727   6.232   0.078  16.325  0.4190 -0.6453 -0.1344
15771TIP3    H168728   6.319   0.065  16.286  0.4992  0.0077 -0.1859
15771TIP3    H268729   6.195   0.152  16.276 -0.5553 -1.5217 -0.7647
15772TIP3   OH268730   1.629   2.262   5.784  0.5602 -0.8625 -0.3951
15772TIP3    H168731   1.602   2.175   5.753  1.2882 -1.3035  0.1702
15772TIP3    H268732   1.627   2.255   5.879  1.6793 -0.6001 -0.3455
15773TIP3   OH268733   4.243   1.165  12.778 -0.0882 -0.1248  0.3017
15773TIP3    H168734   4.329   1.204  12.792 -0.4553  0.3765  1.2479
15773TIP3    H268735   4.233   1.164  12.682  1.5930 -1.6366  0.0910
15774TIP3   OH268736   4.624   3.672   5.071  0.2509 -0.8368 -0.0454
15774TIP3    H168737   4.576   3.724   5.135 -0.6454 -1.2307 -0.3861
15774TIP3    H268738   4.686   3.621   5.123  0.4618 -0.1549  0.3758
15775TIP3   OH268739   4.282   5.486  13.278  0.6002  0.7145 -0.3621
15775TIP3    H168740   4.312   5.564  13.233 -0.2115  0.2870 -1.6898
15775TIP3    H268741   4.190   5.476  13.252  0.0899  0.4325  1.3733
15776TIP3   OH268742   1.880   2.770   5.036 -0.2688  1.0870 -0.0164
15776TIP3    H168743   1.970   2.749   5.010 -1.0082  0.1350 -1.9910
15776TIP3    H268744   1.886   2.785   5.130  1.6816 -0.5802  0.2110
15777TIP3   OH268745   0.290   4.345   4.452  0.1340  0.2261 -0.4839
15777TIP3    H168746   0.285   4.332   4.547  2.3265 -1.9200 -0.5587
15777TIP3    H268747   0.200   4.364   4.426 -0.8988 -1.0777  1.7933
15778TIP3   OH268748   1.050   4.757  16.145  0.5840  0.4534  0.0324
15778TIP3    H168749   0.960   4.733  16.121  0.6429  1.4144 -1.2825
15778TIP3    H268750   1.053   4.749  16.240 -0.7039 -0.2348  0.0330
15779TIP3   OH268751   5.778   5.193  16.469 -0.1164  0.0439 -0.3384
15779TIP3    H168752   5.753   5.151  16.551  1.1090  2.1554  1.1997
15779TIP3    H268753   5.835   5.129  16.426 -0.8157 -1.1175  0.4068
15780TIP3   OH268754   4.936   5.128  16.477  0.5781  0.2748  0.5385
15780TIP3    H168755   4.925   5.039  16.445  0.4701  0.7986 -0.9476
15780TIP3    H268756   5.030   5.135  16.496  0.5559 -0.1989  0.8449
15781TIP3   OH268757   5.459   4.070   6.026 -0.3424  0.3703  0.1920
15781TIP3    H168758   5.538   4.100   6.071 -0.3585 -1.0686  1.2453
15781TIP3    H268759   5.394   4.138   6.045  0.0599  0.5075  1.1171
15782TIP3   OH268760   1.402   3.045   4.683  0.1036  0.2396  0.3119
15782TIP3    H168761   1.359   3.046   4.597  1.9072 -0.5061 -0.6611
15782TIP3    H268762   1.349   3.104   4.737 -1.2035  0.5714 -1.2476
15783TIP3   OH268763   4.642   4.443   4.135 -0.2708  0.4813  0.7014
15783TIP3    H168764   4.596   4.360   4.143 -0.8593  0.6047 -1.0582
15783TIP3    H268765   4.584   4.507   4.178  0.3743 -0.0263  2.4299
15784TIP3   OH268766   3.016   4.685   1.541 -0.3246 -0.1987 -0.3207
15784TIP3    H168767   3.101   4.644   1.559 -0.8887 -0.5648  1.6762
15784TIP3    H268768   3.032   4.739   1.464  1.7908 -0.0922  0.1393
15785TIP3   OH268769   5.700   5.431  15.690 -0.0182  0.0502  0.3405
15785TIP3    H168770   5.759   5.420  15.765 -0.3670 -0.9848  0.4734
15785TIP3    H268771   5.633   5.491  15.722 -0.8185 -1.2793  1.2705
15786TIP3   OH268772   3.955   1.286  12.126  0.1315 -0.3220  0.0408
15786TIP3    H168773   4.037   1.238  12.134  0.6911  0.5054 -0.5178
15786TIP3    H268774   3.901   1.254  12.198  1.0618 -0.6608  0.6089
15787TIP3   OH268775   1.678   5.389   1.861  0.3806 -0.2815  0.3674
15787TIP3    H168776   1.662   5.403   1.768 -0.6411 -0.7035  0.4662
15787TIP3    H268777   1.676   5.294   1.871 -0.7391 -0.2005  1.0146
15788TIP3   OH268778   5.764   3.056   1.166 -0.5432 -0.3670 -0.2809
15788TIP3    H168779   5.738   2.973   1.125  2.0751 -0.9801 -0.8927
15788TIP3    H268780   5.753   3.040   1.260 -1.2239 -0.9832 -0.4616
15789TIP3   OH268781   5.764   3.930  12.872 -0.1542 -0.0542 -0.4861
15789TIP3    H168782   5.830   3.883  12.923 -0.2373  2.3459  2.0564
15789TIP3    H268783   5.686   3.928  12.926 -1.0875  0.2583 -1.7815
15790TIP3   OH268784   3.033   0.383  13.378 -0.1037  0.1587  0.1793
15790TIP3    H168785   3.064   0.447  13.314 -0.1231  0.4807  0.4900
15790TIP3    H268786   2.949   0.352  13.344 -0.9199  1.5380  0.8635
15791TIP3   OH268787   0.639   5.525  11.703  0.2761  0.2241 -0.2581
15791TIP3    H168788   0.616   5.456  11.639 -1.0319 -0.6492  1.0726
15791TIP3    H268789   0.566   5.587  11.697 -0.2757 -0.2832  0.9124
15792TIP3   OH268790   5.071   5.506  15.211 -0.3821  0.1152  0.3296
15792TIP3    H168791   5.123   5.467  15.281  1.1111  2.9365  0.9889
15792TIP3    H268792   4.983   5.515  15.247 -0.2173 -0.6416  0.9236
15793TIP3   OH268793   3.737   4.676  10.559 -0.3029 -0.0979 -0.2645
15793TIP3    H168794   3.739   4.772  10.555 -0.8047 -0.0635  0.1111
15793TIP3    H268795   3.828   4.650  10.554 -0.0956  0.4433  0.4400
15794TIP3   OH268796   6.083   2.052  12.850 -0.0161  0.0917 -0.5147
15794TIP3    H168797   6.149   2.120  12.864  0.8620 -0.5682 -1.3461
15794TIP3    H268798   6.120   1.974  12.891 -1.3110  0.2353  1.0135
15795TIP3   OH268799   3.234   4.921   3.803 -0.0389  0.0926 -0.3012
15795TIP3    H168800   3.253   4.998   3.750 -1.5496  0.7394  0.0610
15795TIP3    H268801   3.278   4.939   3.887  1.9200 -0.7088 -1.0854
15796TIP3   OH268802   6.702   5.285  15.134  0.1579 -0.0360  0.4713
15796TIP3    H168803   6.622   5.336  15.122  0.4147  0.1121 -0.7016
15796TIP3    H268804   6.728   5.303  15.225 -1.0427  0.0201  0.8298
15797TIP3   OH268805   0.538   0.579   5.856 -0.1706  0.3974  0.0223
15797TIP3    H168806   0.515   0.491   5.885  1.5771 -0.1788 -0.2467
15797TIP3    H268807   0.511   0.581   5.764  1.1745 -0.4348 -0.4243
15798TIP3   OH268808   5.773   1.346   1.384 -0.9105  0.9888  0.9449
15798TIP3    H168809   5.698   1.292   1.358  0.2992  0.1704 -1.0348
15798TIP3    H268810   5.768   1.350   1.480 -0.6329 -3.3203  1.3010
15799TIP3   OH268811   2.422   3.511  15.758  0.0968  0.5461 -0.1244
15799TIP3    H168812   2.486   3.581  15.758  0.0062  0.6523  1.3644
15799TIP3    H268813   2.409   3.490  15.665  3.0489 -0.2079 -0.4444
15800TIP3   OH268814   6.411   1.026   5.808 -0.0226  0.2953  0.2212
15800TIP3    H168815   6.488   1.072   5.842 -0.3198  0.0566  1.2381
15800TIP3    H268816   6.443   0.938   5.786  0.7528  1.1613 -2.5450
15801TIP3   OH268817   3.930   0.426  12.733 -0.0965 -0.1431  0.4414
15801TIP3    H168818   3.926   0.421  12.637 -2.4039 -0.3549  0.4961
15801TIP3    H268819   4.023   0.438  12.752  0.3609  0.6012 -1.8571
15802TIP3   OH268820   3.732   2.104  15.124 -0.1830 -0.1261 -0.0672
15802TIP3    H168821   3.667   2.137  15.062  1.4410 -0.2433 -1.9547
15802TIP3    H268822   3.741   2.173  15.190 -1.1490  0.5147 -0.5831
15803TIP3   OH268823   6.443   0.191   3.201  0.0010 -0.1312  0.4545
15803TIP3    H168824   6.464   0.097   3.199 -1.4104 -0.4861  0.8557
15803TIP3    H268825   6.393   0.206   3.120 -1.0016 -0.0600  1.0689
15804TIP3   OH268826   4.171   4.094   2.346  0.1582  0.3050 -0.4605
15804TIP3    H168827   4.083   4.090   2.310  0.4125  0.9239 -1.1659
15804TIP3    H268828   4.215   4.017   2.311 -0.0941 -0.0143 -0.0943
15805TIP3   OH268829   2.995   4.096  12.078 -0.1681 -0.1828  0.0150
15805TIP3    H168830   3.002   4.104  11.983  1.2817 -0.5162  0.0801
15805TIP3    H268831   2.914   4.046  12.092 -1.1872  1.1148 -0.9567
15806TIP3   OH268832   3.573   6.764   3.666  0.5811 -0.3480 -0.0347
15806TIP3    H168833   3.534   6.840   3.623  1.4854  0.5729  0.7496
15806TIP3    H268834   3.664   6.788   3.682  0.6866 -1.2956  0.9269
15807TIP3   OH268835   0.266   3.130  12.540  0.3561 -0.1538  0.3316
15807TIP3    H168836   0.178   3.116  12.504  0.5309 -2.2989  0.5977
15807TIP3    H268837   0.252   3.142  12.634  0.2661  0.9767  0.1932
15808TIP3   OH268838   5.268   6.765   2.252 -0.0632 -0.5903  0.2094
15808TIP3    H168839   5.339   6.719   2.296 -0.7507 -1.9010 -0.0105
15808TIP3    H268840   5.308   6.846   2.219  1.7586 -2.0525 -1.3427
15809TIP3   OH268841   1.550   3.936   5.719  0.4299 -0.0999 -0.4336
15809TIP3    H168842   1.509   3.929   5.633 -0.2103  2.0654 -0.3481
15809TIP3    H268843   1.626   3.992   5.705 -0.0842  0.8575  0.5336
15810TIP3   OH268844   2.285   3.471   0.343 -0.0509  0.2355 -0.3873
15810TIP3    H168845   2.315   3.525   0.270  0.3605  0.0065 -0.3880
15810TIP3    H268846   2.254   3.533   0.409 -0.8481  0.4430 -0.9306
15811TIP3   OH268847   3.536   4.182   2.550 -0.8618  0.4962  0.2985
15811TIP3    H168848   3.579   4.133   2.621 -1.0287 -1.5224 -0.9138
15811TIP3    H268849   3.607   4.232   2.509 -0.6998  1.4087  1.6367
15812TIP3   OH268850   6.229   1.828  13.371  0.1836 -0.5470 -0.6982
15812TIP3    H168851   6.198   1.737  13.362 -0.4335 -0.3783 -0.3505
15812TIP3    H268852   6.198   1.855  13.458  1.5512 -0.4486 -0.2214
15813TIP3   OH268853   1.768   3.703   5.893 -0.3344 -0.2250  0.8006
15813TIP3    H168854   1.768   3.766   5.821  0.2603 -1.8198 -0.6536
15813TIP3    H268855   1.856   3.709   5.929 -0.1073 -0.5911  0.3158
15814TIP3   OH268856   3.700   5.469   1.226  0.0422  0.1865 -0.5509
15814TIP3    H168857   3.710   5.446   1.134 -1.5913 -1.2019 -0.4297
15814TIP3    H268858   3.778   5.435   1.269 -0.2250 -1.1458 -1.0976
15815TIP3   OH268859   1.892   0.068   1.698  0.2434  0.6567  0.3810
15815TIP3    H168860   1.944   0.026   1.629 -2.4338 -0.1085 -1.3362
15815TIP3    H268861   1.887   0.002   1.767  1.5041  0.7642  0.6118
15816TIP3   OH268862   0.519   6.625   2.374  0.4102  0.1151  0.3952
15816TIP3    H168863   0.483   6.579   2.297  1.3708 -0.1886  0.1179
15816TIP3    H268864   0.510   6.718   2.352  2.2231  0.0426 -0.8557
15817TIP3   OH268865   4.952   4.090   3.649  0.8470  0.6878  0.2001
15817TIP3    H168866   4.925   4.005   3.615 -0.1527  0.7622  0.7515
15817TIP3    H268867   4.995   4.133   3.575  2.1933 -0.6263  0.1734
15818TIP3   OH268868   6.435   1.270  16.457 -0.6596 -0.5259 -0.4920
15818TIP3    H168869   6.344   1.260  16.486 -0.7555  2.4073  0.5697
15818TIP3    H268870   6.428   1.282  16.362 -1.3035 -1.0510 -0.5215
15819TIP3   OH268871   3.247   3.458  12.065 -0.0096  0.0078 -0.0811
15819TIP3    H168872   3.257   3.533  12.007 -1.2315  0.0337 -0.2940
15819TIP3    H268873   3.325   3.459  12.120  0.4584  0.8499 -0.7401
15820TIP3   OH268874   2.317   6.328   3.298  0.0571 -0.6575  0.3234
15820TIP3    H168875   2.382   6.264   3.270  0.1295 -0.8189  0.8559
15820TIP3    H268876   2.339   6.348   3.389  0.2861  0.4345  0.0441
15821TIP3   OH268877   4.472   2.306   5.399 -0.5094 -0.1069  0.1982
15821TIP3    H168878   4.386   2.325   5.361 -0.3830  0.2413  0.0763
15821TIP3    H268879   4.461   2.317   5.493 -0.7853 -0.8129  0.2563
15822TIP3   OH268880   5.532   2.824   0.863  0.2044  0.3650 -0.2066
15822TIP3    H168881   5.510   2.859   0.777  1.7405  0.8884 -0.4289
15822TIP3    H268882   5.506   2.893   0.924  2.4812  1.6880 -0.5837
15823TIP3   OH268883   5.213   2.536  12.439  0.2555 -0.2194 -0.2396
15823TIP3    H168884   5.195   2.466  12.376 -2.2480  0.8659 -0.8352
15823TIP3    H268885   5.189   2.617  12.394  1.1336  0.8620  1.1442
15824TIP3   OH268886   4.989   2.486  16.736  0.4623 -0.5031 -0.0077
15824TIP3    H168887   5.067   2.480  16.792  1.1269  1.3841 -0.6456
15824TIP3    H268888   4.919   2.514  16.795  1.0281  0.9098  0.0420
15825TIP3   OH268889   5.622   0.708  11.495 -0.0228  0.1464 -0.0580
15825TIP3    H168890   5.553   0.670  11.550  1.2195  1.3768  2.5380
15825TIP3    H268891   5.693   0.644  11.499  0.0682  0.2345 -0.2572
15826TIP3   OH268892   2.021   6.367   5.384  0.4057  0.0910  0.6536
15826TIP3    H168893   2.111   6.396   5.402 -0.6643  3.9568  0.5737
15826TIP3    H268894   1.985   6.346   5.470  0.9283 -0.0398  0.8477
15827TIP3   OH268895   4.580   6.612  12.836 -0.4440  0.0455  0.2736
15827TIP3    H168896   4.526   6.669  12.889 -2.0490 -2.6314  1.7072
15827TIP3    H268897   4.664   6.608  12.882 -0.7956  0.1201  0.9201
15828TIP3   OH268898   3.483   0.562  16.610  0.0239  0.4916  0.5567
15828TIP3    H168899   3.392   0.541  16.631  0.8007 -2.6905  1.3469
15828TIP3    H268900   3.486   0.564  16.514 -0.5505 -1.3899  0.4627
15829TIP3   OH268901   2.095   3.965  16.786 -0.3367  0.4169  0.1983
15829TIP3    H168902   2.142   3.881  16.785  0.2475  0.7446 -0.5677
15829TIP3    H268903   2.004   3.941  16.806 -0.0121 -0.3067  0.8650
15830TIP3   OH268904   4.169   2.652  14.536  0.3907 -0.3607  0.2371
15830TIP3    H168905   4.187   2.745  14.547 -0.1925 -0.3028  0.7543
15830TIP3    H268906   4.144   2.621  14.624 -2.8249 -0.2351 -0.5180
15831TIP3   OH268907   0.267   3.817   5.208 -0.5597 -0.2336  0.4800
15831TIP3    H168908   0.189   3.873   5.214  0.0288  0.6126  0.4074
15831TIP3    H268909   0.334   3.873   5.169  0.0948 -0.9446  0.5561
15832TIP3   OH268910   0.477   3.590  13.886  0.5117  0.1004 -0.3440
15832TIP3    H168911   0.436   3.610  13.802  1.0059 -1.3360 -0.9455
15832TIP3    H268912   0.412   3.538  13.933  0.4871  0.3568 -0.0923
15833TIP3   OH268913   2.219   5.409   4.868 -0.2838 -0.4490 -0.3280
15833TIP3    H168914   2.291   5.346   4.859 -1.8357 -2.3168 -0.3072
15833TIP3    H268915   2.245   5.464   4.942  0.5579 -1.9364  0.5570
15834TIP3   OH268916   5.982   5.307  13.890  0.4249  0.0932  0.7932
15834TIP3    H168917   5.966   5.214  13.902 -1.2367  0.2100 -0.1290
15834TIP3    H268918   6.015   5.338  13.975  1.8119 -1.4541  0.8550
15835TIP3   OH268919   6.317   1.180   2.897 -0.7781 -0.4714 -1.0884
15835TIP3    H168920   6.257   1.241   2.942  2.0668  1.0677  0.9864
15835TIP3    H268921   6.312   1.100   2.948 -0.6386 -0.1238 -0.5113
15836TIP3   OH268922   1.256   2.781  14.685 -0.1151  0.2061 -0.2179
15836TIP3    H168923   1.213   2.727  14.619  0.1109 -0.2785  0.0263
15836TIP3    H268924   1.278   2.862  14.638 -1.4893  0.5617 -0.2751
15837TIP3   OH268925   0.574   4.548   1.854  0.1475  0.0484 -0.7496
15837TIP3    H168926   0.502   4.486   1.841 -0.4292  0.5576 -0.0917
15837TIP3    H268927   0.551   4.594   1.935  1.4231 -0.0567 -0.3048
15838TIP3   OH268928   6.283   0.578   5.797  0.3918  0.4677  0.5718
15838TIP3    H168929   6.272   0.491   5.759  0.3396  0.7271 -0.0201
15838TIP3    H268930   6.305   0.562   5.889 -1.9909 -0.1356  1.0993
15839TIP3   OH268931   3.451   5.584  11.788 -0.2598 -0.2419  0.0846
15839TIP3    H168932   3.432   5.528  11.713 -0.0436  0.9291 -0.8833
15839TIP3    H268933   3.409   5.667  11.767  0.1150  0.2229  1.1004
15840TIP3   OH268934   3.789   3.251   3.447  0.0041  0.1384 -0.5812
15840TIP3    H168935   3.767   3.256   3.354  0.7967  0.3368 -0.7650
15840TIP3    H268936   3.765   3.336   3.483  0.0251  0.1806 -0.6692
15841TIP3   OH268937   0.190   4.363   2.037 -0.2217 -1.0361  0.4719
15841TIP3    H168938   0.183   4.357   2.132  0.7382  2.3522  0.8998
15841TIP3    H268939   0.141   4.442   2.015 -0.3712 -1.7159 -1.8754
15842TIP3   OH268940   2.492   3.728  16.032 -0.4764  0.3370  0.5851
15842TIP3    H168941   2.488   3.640  16.069 -2.1315 -0.7801 -2.0056
15842TIP3    H268942   2.557   3.722  15.962 -0.0594  1.4156  0.8520
15843TIP3   OH268943   2.323   4.132  16.763  0.5353 -0.2917  0.0165
15843TIP3    H168944   2.375   4.158  16.687 -1.1124 -0.0929 -1.0928
15843TIP3    H268945   2.283   4.049  16.737  0.0344 -0.2759  0.7159
15844TIP3   OH268946   3.403   2.291  16.111  0.2221 -0.2290 -0.4621
15844TIP3    H168947   3.453   2.211  16.127  0.6745 -0.2045 -1.6184
15844TIP3    H268948   3.442   2.356  16.169 -0.5236 -0.9726  0.9023
15845TIP3   OH268949   3.616   5.192   3.898 -0.2796  0.2200 -0.1823
15845TIP3    H168950   3.703   5.154   3.911 -0.8177 -0.4451  1.9758
15845TIP3    H268951   3.586   5.211   3.987 -1.0624  3.4637 -1.0341
15846TIP3   OH268952   1.725   4.313  16.028  0.1067  0.3258  0.1776
15846TIP3    H168953   1.647   4.305  15.973  0.4118 -0.4634 -0.1612
15846TIP3    H268954   1.716   4.243  16.092  1.6212 -1.3078 -1.2788
15847TIP3   OH268955   4.419   3.710  15.911  0.6151  0.1285 -0.1693
15847TIP3    H168956   4.359   3.721  15.985  0.8358  2.3021 -0.2541
15847TIP3    H268957   4.470   3.632  15.934 -1.4545 -1.1638  0.4090
15848TIP3   OH268958   0.047   4.478   1.347  0.0041 -0.1720  0.4245
15848TIP3    H168959  -0.034   4.437   1.376 -0.6378  0.8492  0.1219
15848TIP3    H268960   0.036   4.571   1.368  0.7090  0.1234 -0.4541
15849TIP3   OH268961   3.776   4.083  16.163  0.1955  0.0725 -0.4473
15849TIP3    H168962   3.826   4.006  16.192  0.3284  0.5801  0.7219
15849TIP3    H268963   3.686   4.066  16.190 -0.8571 -1.7727 -4.3120
15850TIP3   OH268964   4.065   6.372   1.220 -0.7045 -0.2041 -0.5528
15850TIP3    H168965   4.087   6.296   1.167 -0.8367 -1.3672  0.9781
15850TIP3    H268966   4.052   6.337   1.308  1.2598  1.8678  0.6752
15851TIP3   OH268967   0.781   6.267   6.141  0.8218  0.4917  0.3738
15851TIP3    H168968   0.782   6.193   6.080 -2.5097 -1.0188  1.8849
15851TIP3    H268969   0.843   6.243   6.209 -0.0817 -0.9063  0.7435
15852TIP3   OH268970   0.599   0.342   2.103  0.4745 -0.1689  0.4130
15852TIP3    H168971   0.666   0.380   2.160  0.6083  2.5231 -1.3442
15852TIP3    H268972   0.647   0.291   2.038  0.6685  0.1647  0.2946
15853TIP3   OH268973   6.361   0.469  15.666  0.2448  0.1554 -0.2685
15853TIP3    H168974   6.303   0.543  15.651 -0.4951  0.0323  1.7335
15853TIP3    H268975   6.327   0.400  15.608  0.7695  1.2295 -1.9332
15854TIP3   OH268976   6.179   6.295   2.827 -0.5414  0.5107 -0.0293
15854TIP3    H168977   6.231   6.305   2.907  1.0334  1.0942 -1.0709
15854TIP3    H268978   6.112   6.231   2.850  0.6835 -0.3458  1.3842
15855TIP3   OH268979   3.657   4.252  14.407 -0.1173 -0.1725 -0.5974
15855TIP3    H168980   3.700   4.181  14.454 -0.7105 -0.4241 -0.4252
15855TIP3    H268981   3.721   4.280  14.342  0.8424  0.3899  0.5462
15856TIP3   OH268982   5.048   0.882   3.431  0.5213  0.0281 -0.2097
15856TIP3    H168983   5.132   0.852   3.397  0.1578 -0.6874 -0.5017
15856TIP3    H268984   4.988   0.874   3.357  0.1306  0.2648  0.0781
15857TIP3   OH268985   2.672   0.092   4.314  0.3672 -0.0002 -0.3081
15857TIP3    H168986   2.672   0.187   4.318  0.0499  0.0621 -1.5542
15857TIP3    H268987   2.609   0.065   4.382  0.7647  0.6466  0.3264
15858TIP3   OH268988   1.938   6.490   3.401  0.0578  0.0749 -0.5543
15858TIP3    H168989   1.917   6.410   3.352 -0.6446  0.2158 -0.4946
15858TIP3    H268990   1.998   6.538   3.344 -0.0647 -0.1729 -0.8934
15859TIP3   OH268991   6.430   3.207   5.748  0.6580 -0.4953 -0.0459
15859TIP3    H168992   6.356   3.251   5.706 -0.4286 -1.5475  0.7138
15859TIP3    H268993   6.399   3.185   5.835  2.0927 -0.4186  0.5144
15860TIP3   OH268994   3.295   2.509   1.324 -0.1755 -0.0724 -0.8298
15860TIP3    H168995   3.234   2.583   1.324 -0.9965 -0.7357 -0.7056
15860TIP3    H268996   3.293   2.477   1.233  0.3463  0.1925 -0.9356
15861TIP3   OH268997   0.899   2.583   1.217 -0.0593 -0.1097 -0.2214
15861TIP3    H168998   0.980   2.615   1.257 -0.4904  0.0757  0.5180
15861TIP3    H268999   0.870   2.512   1.275 -0.0255 -0.6886 -0.9006
15862TIP3   OH269000   3.432   0.690  16.362 -0.5021 -0.3037  0.0530
15862TIP3    H169001   3.464   0.615  16.312  0.3548 -0.2382  0.4968
15862TIP3    H269002   3.393   0.748  16.296  0.6179 -0.2178 -0.5446
15863TIP3   OH269003   5.428   5.814   1.977  0.4984 -0.0051 -0.5449
15863TIP3    H169004   5.491   5.869   1.931  1.7987 -0.6504  0.4139
15863TIP3    H269005   5.477   5.736   2.002 -0.0828  0.3653  2.0563
15864TIP3   OH269006   0.012   3.768  10.336 -0.3680 -0.7525  0.5780
15864TIP3    H169007  -0.082   3.753  10.327 -0.3516 -1.9618  2.0276
15864TIP3    H269008   0.020   3.863  10.345 -1.4926 -0.6743  0.8912
15865TIP3   OH269009   3.627   4.618   3.278 -0.3486  0.5783 -0.7808
15865TIP3    H169010   3.579   4.643   3.358 -2.5391  2.7237 -2.6045
15865TIP3    H269011   3.574   4.550   3.238  1.4510 -1.4952  0.1269
15866TIP3   OH269012   4.579   5.034   3.984 -0.0964  0.2362  0.0857
15866TIP3    H169013   4.518   5.031   3.911 -0.7991  1.4008  0.5899
15866TIP3    H269014   4.560   5.118   4.028  2.8046  1.3663 -0.5758
15867TIP3   OH269015   4.665   5.101   3.356 -0.0956 -0.1060 -0.0194
15867TIP3    H169016   4.701   5.179   3.314  0.0893 -0.9013 -1.4026
15867TIP3    H269017   4.706   5.028   3.310 -0.5344 -1.0296  1.0085
15868TIP3   OH269018   5.849   6.804  15.008 -0.2779  0.2665  0.5515
15868TIP3    H169019   5.885   6.762  14.930 -1.6593  1.2733 -0.6856
15868TIP3    H269020   5.754   6.806  14.992 -0.9238 -1.8480  3.4468
15869TIP3   OH269021   3.209   6.428  16.831 -0.3936 -0.6335 -0.1412
15869TIP3    H169022   3.198   6.432  16.736 -2.5567 -0.3291  0.0628
15869TIP3    H269023   3.177   6.513  16.862 -0.0993 -0.8849  0.8857
15870TIP3   OH269024   2.992   2.873  13.913  0.5302  0.0335  0.4615
15870TIP3    H169025   2.947   2.788  13.913 -0.6798  0.6478  0.0072
15870TIP3    H269026   2.997   2.897  14.006 -2.4662  1.1136  0.4661
15871TIP3   OH269027   4.684   2.229  15.609  0.0002  0.4816  0.3161
15871TIP3    H169028   4.746   2.212  15.681  0.3849  0.4428 -0.0195
15871TIP3    H269029   4.739   2.234  15.531 -0.3237  1.2479  0.1218
15872TIP3   OH269030   2.938   2.186   5.537 -0.1370  0.2388 -0.3941
15872TIP3    H169031   2.985   2.253   5.487 -0.5035  1.5414  0.9332
15872TIP3    H269032   2.978   2.103   5.509  2.7106  1.2403  0.3648
15873TIP3   OH269033   1.158   0.810  14.625 -0.2552  0.4717 -0.3254
15873TIP3    H169034   1.119   0.737  14.576 -1.2478  0.2088  0.8079
15873TIP3    H269035   1.252   0.793  14.622 -0.4919 -1.2012  0.3912
15874TIP3   OH269036   4.855   2.917   0.559  0.5083 -0.1420  0.1231
15874TIP3    H169037   4.821   3.006   0.550  0.8241 -0.1139 -0.9615
15874TIP3    H269038   4.784   2.860   0.528  0.2260 -0.2886  1.0186
15875TIP3   OH269039   6.329   5.186   3.047 -0.1601  0.0899 -0.1210
15875TIP3    H169040   6.302   5.190   3.139  2.1725  1.1876  0.5881
15875TIP3    H269041   6.303   5.271   3.011 -1.0223 -0.3194 -0.5039
15876TIP3   OH269042   1.286   0.196  13.116 -0.5192  0.3445 -0.4001
15876TIP3    H169043   1.221   0.265  13.103 -1.5457 -0.9043 -2.4000
15876TIP3    H269044   1.263   0.129  13.051  1.6262 -1.0058  0.1412
15877TIP3   OH269045   3.712   2.469  11.988 -0.2044 -0.8319 -0.9419
15877TIP3    H169046   3.667   2.471  11.904 -2.3595  1.7779  0.1198
15877TIP3    H269047   3.710   2.559  12.019  1.1458 -1.5692  1.6209
15878TIP3   OH269048   3.404   6.616   1.231 -0.0012  0.2716  0.2298
15878TIP3    H169049   3.395   6.584   1.141  2.1038 -1.4828  0.5420
15878TIP3    H269050   3.373   6.544   1.286 -0.2360  0.8988  0.9490
15879TIP3   OH269051   4.370   4.475  15.969  0.2830 -0.0606 -0.1121
15879TIP3    H169052   4.384   4.386  15.938  2.8282 -0.6210  2.2119
15879TIP3    H269053   4.286   4.472  16.016 -1.5311 -0.1756 -3.1331
15880TIP3   OH269054   5.394   4.726   1.865 -0.2038  0.5871  0.1237
15880TIP3    H169055   5.417   4.803   1.917 -0.0886  0.1235  0.7761
15880TIP3    H269056   5.470   4.668   1.872 -0.4777  0.2087  0.0452
15881TIP3   OH269057   5.062   0.199  13.930  0.2448  0.5462  0.3161
15881TIP3    H169058   4.990   0.235  13.982 -0.6159 -2.3787  1.3219
15881TIP3    H269059   5.071   0.109  13.960  2.6480  0.0356 -1.6160
15882TIP3   OH269060   0.476   5.122   2.946  0.0081 -0.0880 -0.1113
15882TIP3    H169061   0.434   5.142   2.863 -1.4808  2.4567  1.0960
15882TIP3    H269062   0.403   5.100   3.005  0.6722  0.8734  1.1390
15883TIP3   OH269063   2.955   6.644  15.371 -0.3415  0.3174 -0.5644
15883TIP3    H169064   2.926   6.576  15.311 -0.9137  0.9159 -0.9789
15883TIP3    H269065   2.898   6.634  15.447 -1.3239  1.1555 -1.1631
15884TIP3   OH269066   4.223   0.912   0.150  0.3644 -0.1355  0.0514
15884TIP3    H169067   4.176   0.921   0.233 -1.0339 -0.8827 -0.6313
15884TIP3    H269068   4.269   0.828   0.156  0.6180  0.0130  0.2262
15885TIP3   OH269069   3.418   5.369   3.212 -0.1898  0.0180 -0.5272
15885TIP3    H169070   3.511   5.390   3.212  0.0662 -1.0294 -1.3307
15885TIP3    H269071   3.395   5.361   3.305  0.8985 -1.2354 -0.3325
15886TIP3   OH269072   3.529   5.473  16.728 -1.2153  0.1211 -0.2035
15886TIP3    H169073   3.608   5.526  16.721  0.1555 -1.9977 -2.8369
15886TIP3    H269074   3.550   5.406  16.792 -1.6602  0.7038  0.5668
15887TIP3   OH269075   4.400   0.214  12.389  0.3290  0.7190  0.2713
15887TIP3    H169076   4.355   0.251  12.466 -1.7698  2.3376 -1.6150
15887TIP3    H269077   4.464   0.281  12.365  0.6553  0.4258  0.3139
15888TIP3   OH269078   5.312   4.024   4.286  0.0951  0.0563 -0.2766
15888TIP3    H169079   5.289   4.004   4.376  0.5498 -0.8240 -0.3390
15888TIP3    H269080   5.305   4.119   4.279  1.2277  0.2595  1.0238
15889TIP3   OH269081   5.939   1.124  16.806  0.1641 -0.7541  0.0517
15889TIP3    H169082   5.908   1.062  16.740 -0.6453 -1.5756  1.1635
15889TIP3    H269083   5.903   1.208  16.778 -1.1780 -1.3018  0.0496
15890TIP3   OH269084   5.088   4.522  14.740  0.1865  0.5713 -0.7181
15890TIP3    H169085   5.161   4.582  14.756  1.0342 -0.0209 -2.1411
15890TIP3    H269086   5.092   4.505  14.646 -1.9205  0.6606 -0.8807
15891TIP3   OH269087   4.437   5.599  13.036 -0.5214 -0.0438 -0.6266
15891TIP3    H169088   4.514   5.546  13.057 -1.2095 -0.8466 -0.0204
15891TIP3    H269089   4.469   5.689  13.035  0.0594 -0.1592  1.6091
15892TIP3   OH269090   3.218   1.354   3.914  0.3516  0.1185  0.0279
15892TIP3    H169091   3.307   1.321   3.932  0.4586  1.1669  1.5941
15892TIP3    H269092   3.225   1.449   3.927 -0.7361  0.3687 -1.0603
15893TIP3   OH269093   0.972   4.070   4.055 -0.1334  0.6029 -0.1542
15893TIP3    H169094   0.997   3.979   4.068 -0.5374  0.4559 -0.3791
15893TIP3    H269095   0.887   4.078   4.099  1.7206  1.9512  3.6379
15894TIP3   OH269096   4.567   2.903   5.555  0.3494 -0.2057  0.6529
15894TIP3    H169097   4.553   2.986   5.601 -0.7359 -1.2335  2.2838
15894TIP3    H269098   4.561   2.837   5.624 -1.0642 -1.8194 -0.9245
15895TIP3   OH269099   4.931   1.162  16.737 -0.0548  0.0598  0.5904
15895TIP3    H169100   4.999   1.215  16.697 -1.6200  0.9109 -1.0684
15895TIP3    H269101   4.915   1.091  16.675 -1.3868  0.4591  0.4451
15896TIP3   OH269102   5.024   6.131  11.340  0.0083  0.6771  0.7331
15896TIP3    H169103   5.092   6.090  11.394  0.6987 -1.0903 -1.3550
15896TIP3    H269104   4.943   6.090  11.368  0.6743 -2.2649 -1.2420
15897TIP3   OH269105   4.543   5.258   5.065  0.7949 -0.3402 -0.2409
15897TIP3    H169106   4.524   5.269   5.158  1.2149 -2.7202  0.1997
15897TIP3    H269107   4.457   5.256   5.023  0.5747  0.0301  0.1866
15898TIP3   OH269108   0.705   2.880   5.306  0.1808  0.7529  1.0896
15898TIP3    H169109   0.643   2.824   5.259  0.1795 -0.1739  2.1667
15898TIP3    H269110   0.649   2.939   5.356  0.1842  1.5434  0.1940
15899TIP3   OH269111   0.414   2.038   6.298 -0.0444  0.3395  0.0499
15899TIP3    H169112   0.451   2.030   6.386 -1.5677 -1.3436  0.6111
15899TIP3    H269113   0.474   1.990   6.242 -0.2714 -0.6377  0.6076
15900TIP3   OH269114   1.810   5.586   5.793 -0.4503 -0.4057 -0.2181
15900TIP3    H169115   1.882   5.570   5.853 -0.3957 -1.6190 -0.5730
15900TIP3    H269116   1.764   5.661   5.830  1.3209  0.7811 -0.3091
15901TIP3   OH269117   5.053   6.149   5.243 -0.1331 -0.2909  0.7113
15901TIP3    H169118   5.082   6.086   5.310 -0.1313 -0.1560  0.8379
15901TIP3    H269119   4.961   6.129   5.230 -0.2734  0.0545  1.1663
15902TIP3   OH269120   4.911   5.592  13.628  0.9479  0.4829  0.2808
15902TIP3    H169121   4.983   5.574  13.688  0.5565  0.9669  0.9101
15902TIP3    H269122   4.853   5.517  13.636 -0.0281  1.3569  1.9223
15903TIP3   OH269123   0.471   3.149   2.981 -0.3090  0.0516  0.1586
15903TIP3    H169124   0.451   3.076   3.039 -3.0711  1.1478  0.7386
15903TIP3    H269125   0.459   3.227   3.035 -1.7228  1.0571 -1.5115
15904TIP3   OH269126   4.834   6.395  13.672 -0.0324  0.3631 -0.1721
15904TIP3    H169127   4.825   6.381  13.578  0.1255  2.6946 -0.5783
15904TIP3    H269128   4.806   6.485  13.686  3.5534  1.4250  1.4058
15905TIP3   OH269129   4.643   5.644   4.238 -0.2427 -0.0421  0.2160
15905TIP3    H169130   4.575   5.591   4.280  0.7622 -0.5522  1.2431
15905TIP3    H269131   4.655   5.719   4.296 -1.2799  1.0900 -0.9637
15906TIP3   OH269132   1.675   4.801  12.337  0.2211  0.6741 -0.1527
15906TIP3    H169133   1.650   4.738  12.269 -1.3519 -0.7471  1.6153
15906TIP3    H269134   1.626   4.880  12.315 -0.6012  0.0999 -0.4735
15907TIP3   OH269135   1.607   2.134  11.993  1.0669 -0.1142  0.1777
15907TIP3    H169136   1.529   2.177  11.956  1.5270  1.0092  0.4805
15907TIP3    H269137   1.583   2.042  11.998 -0.3033  0.2344  0.3972
15908TIP3   OH269138   5.520   1.900  12.336 -0.3761  0.0813  0.3982
15908TIP3    H169139   5.468   1.868  12.262  0.7394  0.6920 -0.6892
15908TIP3    H269140   5.539   1.822  12.388 -2.3410 -0.1562  0.8265
15909TIP3   OH269141   5.042   0.562   3.550  0.8579 -0.0285 -0.0854
15909TIP3    H169142   5.094   0.485   3.571  0.4371 -0.9133 -1.9845
15909TIP3    H269143   5.088   0.602   3.476  1.4203  1.9685  1.2576
15910TIP3   OH269144   0.176   5.709   0.814 -0.6043 -0.3687  0.2115
15910TIP3    H169145   0.104   5.647   0.804 -0.1809 -0.7019 -0.8516
15910TIP3    H269146   0.137   5.795   0.798 -1.1444 -0.3546  1.4748
15911TIP3   OH269147   2.913   3.233  15.035 -0.9466 -0.4106  0.4200
15911TIP3    H169148   2.933   3.168  14.968 -0.9480  0.6040 -0.5885
15911TIP3    H269149   2.984   3.297  15.030 -1.0347 -0.2289  1.2718
15912TIP3   OH269150   6.285   1.661  13.674  0.0845  0.5794 -0.0037
15912TIP3    H169151   6.365   1.674  13.624  1.0722 -2.6480  0.4882
15912TIP3    H269152   6.237   1.594  13.624 -1.0014  0.5086  1.0970
15913TIP3   OH269153   1.241   2.487   4.388 -0.1823 -0.4553 -0.1898
15913TIP3    H169154   1.188   2.562   4.417  1.9969  0.7685  0.9129
15913TIP3    H269155   1.296   2.466   4.464  0.4794 -2.0586 -1.0658
15914TIP3   OH269156   4.800   5.842  15.794  0.0830 -0.3379  0.3654
15914TIP3    H169157   4.790   5.793  15.876  1.2176  0.4818  1.0200
15914TIP3    H269158   4.887   5.880  15.799 -0.7879  1.8407 -0.0453
15915TIP3   OH269159   2.749   1.179  14.397  0.4792 -0.1343 -0.0393
15915TIP3    H169160   2.656   1.159  14.394  0.5605 -0.5369  0.0153
15915TIP3    H269161   2.765   1.232  14.319  0.3106 -0.5293 -0.3464
15916TIP3   OH269162   1.021   5.384   3.603 -0.1652  0.0030  0.1268
15916TIP3    H169163   1.085   5.396   3.673 -0.1044 -0.3726  0.1391
15916TIP3    H269164   1.013   5.470   3.563  1.0656 -0.1532 -0.4961
15917TIP3   OH269165   2.125   2.112  15.363  0.5364  0.0568  0.6255
15917TIP3    H169166   2.079   2.092  15.281  1.0504 -1.7455  0.7279
15917TIP3    H269167   2.075   2.066  15.431  0.8995  0.3912  1.1227
15918TIP3   OH269168   0.562   1.678  14.708  0.5152  0.2174 -0.1449
15918TIP3    H169169   0.628   1.730  14.754  0.4989 -0.2466  0.4125
15918TIP3    H269170   0.612   1.616  14.655  0.5289 -0.2787  0.4449
15919TIP3   OH269171   6.051   5.625  15.235  0.1985  0.5882 -0.1862
15919TIP3    H169172   6.056   5.716  15.262 -0.4569  1.3919 -2.4896
15919TIP3    H269173   6.086   5.625  15.145  2.4585 -1.8774  0.5642
15920TIP3   OH269174   1.767   0.816   5.311 -0.4184 -0.0465 -0.4681
15920TIP3    H169175   1.682   0.831   5.352  0.2051  0.3161  0.7495
15920TIP3    H269176   1.821   0.779   5.381 -0.0579 -1.9495 -1.6858
15921TIP3   OH269177   4.600   2.677  12.098 -0.3054 -0.3862  0.2582
15921TIP3    H169178   4.534   2.741  12.075 -0.7350 -1.3743 -1.4426
15921TIP3    H269179   4.643   2.713  12.176 -1.2324  1.4108 -0.0146
15922TIP3   OH269180   1.477   3.741  12.388 -0.0799  0.3253 -0.6615
15922TIP3    H169181   1.563   3.764  12.423 -0.4825  1.2616 -0.2354
15922TIP3    H269182   1.473   3.646  12.395  0.7341  0.3110 -0.2451
15923TIP3   OH269183   2.645   5.208   5.280  0.6476  0.0694 -0.0751
15923TIP3    H169184   2.665   5.119   5.251  0.1593  0.2541 -1.0511
15923TIP3    H269185   2.626   5.200   5.373  1.1987 -0.7480 -0.0267
15924TIP3   OH269186   5.379   2.465   2.909  0.3840 -0.0347  0.0011
15924TIP3    H169187   5.346   2.492   2.995 -2.2655  3.1497 -1.7773
15924TIP3    H269188   5.302   2.432   2.863  1.2773  0.3726 -1.8722
15925TIP3   OH269189   2.938   5.063  12.535  0.1018  0.1249  0.1424
15925TIP3    H169190   2.991   5.003  12.588  1.6613  0.6397 -0.7596
15925TIP3    H269191   2.887   5.006  12.479 -0.7882 -0.4032  1.4471
15926TIP3   OH269192   1.235   0.382   5.431  0.6846  0.3400  0.4432
15926TIP3    H169193   1.163   0.443   5.414 -0.2686 -1.1020 -0.9876
15926TIP3    H269194   1.195   0.311   5.481  1.5677  0.4205  1.2928
15927TIP3   OH269195   6.313   3.593   6.480  0.1953 -0.5182 -0.3570
15927TIP3    H169196   6.361   3.565   6.557 -0.5422 -0.0638  0.2885
15927TIP3    H269197   6.228   3.550   6.487  0.1886 -0.6173 -1.0086
15928TIP3   OH269198   0.040   0.612   0.807 -0.0930 -0.4282  0.0532
15928TIP3    H169199  -0.040   0.636   0.854 -1.1630 -1.3766 -1.2132
15928TIP3    H269200   0.011   0.591   0.719  1.9624  2.2173 -1.3967
15929TIP3   OH269201   0.031   3.278  13.356  0.5928  0.4822  0.2092
15929TIP3    H169202   0.082   3.216  13.304  2.0366  1.5632  0.2901
15929TIP3    H269203   0.078   3.361  13.348 -0.5298  1.2478  1.2249
15930TIP3   OH269204   2.300   5.222   1.310  0.7118 -0.2539 -0.0858
15930TIP3    H169205   2.387   5.187   1.289  1.4273  1.5915 -0.3589
15930TIP3    H269206   2.316   5.314   1.334 -0.7841 -0.6283  2.8301
15931TIP3   OH269207   5.476   5.990  13.529 -0.1574 -0.3507  0.1305
15931TIP3    H169208   5.457   6.038  13.448 -0.9379  0.9392  1.0300
15931TIP3    H269209   5.544   6.042  13.572 -1.2661  0.2058  1.2934
15932TIP3   OH269210   4.619   2.968   4.739  0.5307 -0.4022  0.1937
15932TIP3    H169211   4.627   3.016   4.821 -0.6960  0.2392 -0.0301
15932TIP3    H269212   4.550   2.904   4.756 -1.6864  1.4767 -1.0527
15933TIP3   OH269213   3.622   0.922  10.729 -0.4481 -0.2678 -0.3145
15933TIP3    H169214   3.528   0.939  10.717 -0.3795 -0.6050 -1.3825
15933TIP3    H269215   3.665   0.977  10.665  0.1091  0.0465  0.3209
15934TIP3   OH269216   5.801   4.053   3.570  0.4999 -0.1873 -0.0649
15934TIP3    H169217   5.828   4.100   3.491  1.4758 -1.9909 -0.8733
15934TIP3    H269218   5.711   4.082   3.585  0.0968 -0.1884 -2.1613
15935TIP3   OH269219   1.817   5.030   0.024  0.1375  0.1664 -0.6758
15935TIP3    H169220   1.859   5.058  -0.057  0.6204  0.6670 -0.2535
15935TIP3    H269221   1.877   5.058   0.093 -1.2630  1.6335 -0.0024
15936TIP3   OH269222   3.312   1.307   1.034 -0.1790 -0.3857  0.2420
15936TIP3    H169223   3.322   1.218   1.069 -0.2250 -0.0393  1.1672
15936TIP3    H269224   3.401   1.340   1.026  0.0516 -1.3996 -2.5866
15937TIP3   OH269225   1.077   4.137  16.418 -0.4256 -0.0664  0.0952
15937TIP3    H169226   1.048   4.182  16.339 -1.0799 -1.2488 -0.3624
15937TIP3    H269227   1.041   4.188  16.490 -0.4260  0.6120 -0.3799
15938TIP3   OH269228   3.989   5.055   5.700 -0.6501 -0.7977 -0.1336
15938TIP3    H169229   4.034   5.114   5.760 -1.2958 -1.8875  1.4775
15938TIP3    H269230   4.043   5.056   5.620 -0.0555  1.0696  0.2458
15939TIP3   OH269231   2.836   3.790  16.285  0.3695  0.1087 -0.2987
15939TIP3    H169232   2.808   3.699  16.285 -1.0397  0.5133  0.5068
15939TIP3    H269233   2.929   3.786  16.262 -0.0521 -1.3776 -2.0044
15940TIP3   OH269234   2.387   0.454   0.175  0.1852  0.1866  0.0391
15940TIP3    H169235   2.459   0.394   0.193  0.7954 -0.1535 -2.8888
15940TIP3    H269236   2.322   0.437   0.243  1.3256 -2.1535  0.6336
15941TIP3   OH269237   2.017   5.293   2.997 -0.4550  0.3092  0.2250
15941TIP3    H169238   2.008   5.350   2.921 -0.8454 -0.3082 -0.2002
15941TIP3    H269239   1.969   5.213   2.973  0.1340 -0.2239  0.7827
15942TIP3   OH269240   3.468   4.371   2.816 -0.3901 -0.4073  0.1177
15942TIP3    H169241   3.379   4.351   2.785 -0.5599  0.1445  0.2363
15942TIP3    H269242   3.515   4.399   2.737 -0.8776  1.1901  0.3598
15943TIP3   OH269243   5.456   5.201   2.483  0.0721 -0.4682  0.4382
15943TIP3    H169244   5.442   5.197   2.577 -0.6051 -1.4802  0.3226
15943TIP3    H269245   5.369   5.184   2.446  0.0266  1.4020 -0.3763
15944TIP3   OH269246   2.170   6.578  15.576 -0.2941  0.2701  0.4245
15944TIP3    H169247   2.115   6.622  15.511 -0.1025 -1.4737 -0.9892
15944TIP3    H269248   2.259   6.605  15.554 -0.1939 -0.6240 -0.3207
15945TIP3   OH269249   3.220   4.281  11.942  0.1131 -0.1358 -0.0831
15945TIP3    H169250   3.207   4.303  12.034  1.2169  1.7829 -0.3440
15945TIP3    H269251   3.174   4.350  11.894  1.2687  0.0629 -0.9519
15946TIP3   OH269252   0.908   4.482   0.662 -0.7529 -0.0901 -0.5273
15946TIP3    H169253   0.973   4.414   0.680 -1.2827 -0.5565 -0.3811
15946TIP3    H269254   0.829   4.435   0.637 -1.3381  0.4454  0.2815
15947TIP3   OH269255   3.289   0.188  11.834  0.8504 -0.0746 -0.4173
15947TIP3    H169256   3.207   0.147  11.807  0.2405  1.0333 -0.3273
15947TIP3    H269257   3.292   0.270  11.785 -0.0172  1.7523  2.3411
15948TIP3   OH269258   1.429   2.792   4.157  0.2580  0.3572 -0.3886
15948TIP3    H169259   1.516   2.771   4.125  0.5092  0.4250  0.2307
15948TIP3    H269260   1.444   2.839   4.240 -0.3723 -0.3340  0.1349
15949TIP3   OH269261   1.745   5.486  14.823  0.6646  0.3882 -0.0978
15949TIP3    H169262   1.742   5.535  14.905  0.0058  0.7550 -0.3356
15949TIP3    H269263   1.667   5.432  14.825  1.1263 -0.2840 -0.0714
15950TIP3   OH269264   5.427   0.220  16.561  0.2905 -0.7378 -0.3062
15950TIP3    H169265   5.375   0.246  16.485 -0.4253 -2.0300 -0.2822
15950TIP3    H269266   5.517   0.244  16.538 -0.0858 -0.0285 -1.0597
15951TIP3   OH269267   5.969   1.974   4.857  0.3456 -0.2041 -0.9393
15951TIP3    H169268   6.019   1.893   4.873  1.0445  0.2034 -1.0134
15951TIP3    H269269   6.028   2.044   4.885 -0.1051  0.3002 -1.2398
15952TIP3   OH269270   1.786   1.120   5.750  0.4775 -0.2912 -0.1193
15952TIP3    H169271   1.797   1.120   5.845 -0.3338 -0.1932 -0.0168
15952TIP3    H269272   1.691   1.120   5.737  0.5433  1.4679 -0.9194
15953TIP3   OH269273   5.178   6.221  12.038  0.2938 -0.3618  0.2554
15953TIP3    H169274   5.086   6.213  12.014  0.1202  0.1531  0.7147
15953TIP3    H269275   5.217   6.275  11.969  0.0268  0.2405  0.5637
15954TIP3   OH269276   5.593   5.058  15.485  0.2636  0.3281 -0.0566
15954TIP3    H169277   5.669   5.094  15.439  1.0053 -0.3441  0.5950
15954TIP3    H269278   5.548   5.005  15.420  0.2126  0.9362 -0.5191
15955TIP3   OH269279   3.166   5.012  12.745 -0.5018 -0.0613 -0.4540
15955TIP3    H169280   3.235   5.019  12.679  1.5616  0.0110  1.6316
15955TIP3    H269281   3.212   5.009  12.829 -3.0445  0.0625  1.0415
15956TIP3   OH269282   6.586   2.940  15.209 -0.5120 -0.6422 -0.1112
15956TIP3    H169283   6.670   2.930  15.254  0.2684  0.6386 -1.1858
15956TIP3    H269284   6.544   3.015  15.251 -0.6225 -0.6114 -0.2721
15957TIP3   OH269285   5.227   1.833  17.124  0.3930 -0.0914  0.3491
15957TIP3    H169286   5.305   1.844  17.178 -0.1156  0.4164  1.0030
15957TIP3    H269287   5.208   1.921  17.092 -1.7476  0.4714  2.8331
15958TIP3   OH269288   5.245   1.484   4.457  0.2494 -0.0538  0.1032
15958TIP3    H169289   5.199   1.553   4.409 -0.2302 -0.7980 -0.5261
15958TIP3    H269290   5.208   1.487   4.546 -1.2214 -0.8035 -0.4558
15959TIP3   OH269291   4.846   1.349   4.892 -0.1879 -0.4153  0.2101
15959TIP3    H169292   4.785   1.378   4.959 -1.0674  1.0355 -1.1638
15959TIP3    H269293   4.814   1.389   4.811  1.8141 -0.7118 -0.7883
15960TIP3   OH269294   5.966   2.597  12.745 -0.5225 -0.4624  0.0033
15960TIP3    H169295   5.926   2.512  12.726 -1.0698 -0.0954 -0.5537
15960TIP3    H269296   5.934   2.654  12.674 -2.0053  0.7807  1.5874
15961TIP3   OH269297   4.640   4.542   2.841  0.0752  0.2226 -0.2815
15961TIP3    H169298   4.559   4.565   2.885  0.5508 -0.8651  1.2499
15961TIP3    H269299   4.706   4.540   2.910  1.4159  1.0508 -1.4775
15962TIP3   OH269300   0.421   5.567   0.646  0.0357  0.1102  0.1273
15962TIP3    H169301   0.467   5.646   0.619 -0.0628  0.4588  0.9536
15962TIP3    H269302   0.362   5.596   0.716 -0.3683 -0.5972  0.0902
15963TIP3   OH269303   1.340   5.180  10.462 -0.1502  0.9410  0.1417
15963TIP3    H169304   1.349   5.092  10.498 -2.2730  0.1125 -1.1412
15963TIP3    H269305   1.419   5.194  10.410  0.3171 -0.1167  0.5446
15964TIP3   OH269306   1.967   5.581  12.528 -0.3308  0.2953  0.5787
15964TIP3    H169307   1.948   5.622  12.612 -0.1398  0.0667  0.7352
15964TIP3    H269308   2.061   5.594  12.516  0.1441 -1.8289  1.5790
15965TIP3   OH269309   1.417   2.492   5.069  0.0020 -0.1335 -0.1348
15965TIP3    H169310   1.417   2.580   5.031  0.8502 -0.9824 -2.2515
15965TIP3    H269311   1.458   2.503   5.155  0.2636  1.4932 -0.4420
15966TIP3   OH269312   0.523   4.088   5.591  0.4353 -0.0693  0.2512
15966TIP3    H169313   0.489   4.041   5.667 -1.5618  0.5673 -0.1973
15966TIP3    H269314   0.482   4.044   5.516  0.9751  0.4404 -0.3509
15967TIP3   OH269315   0.933   5.199   0.663  0.3185 -0.0450  0.1542
15967TIP3    H169316   0.855   5.153   0.632  0.1402 -1.3081  2.2840
15967TIP3    H269317   0.908   5.232   0.749  1.6771  0.8323  0.2409
15968TIP3   OH269318   6.051   6.039  12.832  0.2349  0.0474 -0.0884
15968TIP3    H169319   6.035   5.983  12.908 -1.4741  0.5990  0.0068
15968TIP3    H269320   6.100   5.983  12.771 -0.6928 -1.2876  0.3437
15969TIP3   OH269321   2.758   6.381  12.623 -0.0276  0.2924  0.3112
15969TIP3    H169322   2.835   6.360  12.571  2.5851  3.6723  2.4111
15969TIP3    H269323   2.720   6.458  12.581 -1.1193 -0.1442  0.4478
15970TIP3   OH269324   0.390   4.347  12.835 -0.1882  0.0608  0.3377
15970TIP3    H169325   0.467   4.338  12.891  0.4833  2.5260 -0.0525
15970TIP3    H269326   0.425   4.352  12.746 -0.8848  0.0649  0.0543
15971TIP3   OH269327   4.986   1.751  15.331 -0.4539  0.0363 -0.3949
15971TIP3    H169328   4.919   1.722  15.269  0.5476  0.9966 -1.9798
15971TIP3    H269329   5.069   1.736  15.286  0.3667 -0.0726  1.0794
15972TIP3   OH269330   1.317   1.298   5.118  0.4649 -0.8916  0.0836
15972TIP3    H169331   1.408   1.304   5.089 -0.5357 -0.1672 -3.5197
15972TIP3    H269332   1.267   1.343   5.049 -2.4643  1.1721  3.2363
15973TIP3   OH269333   3.839   4.946   3.435  0.5320 -0.2139  0.0307
15973TIP3    H169334   3.787   4.915   3.361  0.3907 -1.4314  0.6111
15973TIP3    H269335   3.774   4.981   3.496  0.7434  2.0754 -0.9495
15974TIP3   OH269336   1.793   0.670   0.096 -0.2311  0.2656 -0.6181
15974TIP3    H169337   1.720   0.624   0.138  1.4050 -2.2053 -0.2590
15974TIP3    H269338   1.756   0.703   0.014 -1.8180 -0.6708 -0.3311
15975TIP3   OH269339   2.873   5.730   2.255  0.1976  0.3569 -0.3973
15975TIP3    H169340   2.789   5.743   2.210  0.0220 -0.4839 -0.3347
15975TIP3    H269341   2.917   5.663   2.203  0.6269  0.4442 -0.1467
15976TIP3   OH269342   1.701   1.627  15.306  0.1411  0.4060  0.0767
15976TIP3    H169343   1.772   1.582  15.260 -1.2645  0.4548 -2.2890
15976TIP3    H269344   1.659   1.558  15.358 -0.2266 -0.4553 -1.3020
15977TIP3   OH269345   6.138   6.304  14.600  0.2442  0.7115  0.4740
15977TIP3    H169346   6.184   6.285  14.519 -3.2420  1.2664 -1.8452
15977TIP3    H269347   6.111   6.218  14.633 -0.6089  0.6064 -0.4596
15978TIP3   OH269348   5.417   5.365  10.821 -0.1491  0.0873  0.2624
15978TIP3    H169349   5.412   5.312  10.901 -1.7839  0.1022  0.1988
15978TIP3    H269350   5.510   5.363  10.797  0.0577 -1.6109  1.0260
15979TIP3   OH269351   3.372   0.036   0.836 -0.4334 -0.0451 -0.1978
15979TIP3    H169352   3.303   0.048   0.902 -1.1459  1.2174 -1.1222
15979TIP3    H269353   3.326   0.041   0.753  0.7882  0.8952 -0.8391
15980TIP3   OH269354   1.831   2.548   3.644 -0.0927  0.0569 -0.2772
15980TIP3    H169355   1.826   2.462   3.602  1.2236  0.4019 -1.2147
15980TIP3    H269356   1.924   2.570   3.643 -0.3606  1.3307  0.2878
15981TIP3   OH269357   3.936   5.050  11.703 -0.1261  0.1350 -0.6250
15981TIP3    H169358   3.909   5.088  11.787 -1.8549 -1.6002 -0.3007
15981TIP3    H269359   4.000   5.112  11.667  0.7477  0.8731  2.0016
15982TIP3   OH269360   0.343   0.546   0.184  0.1064 -0.0808  0.2976
15982TIP3    H169361   0.398   0.607   0.232  1.5084 -1.9332  1.1988
15982TIP3    H269362   0.322   0.478   0.248  0.8201 -1.8930 -1.2954
15983TIP3   OH269363   0.059   3.329  15.111 -0.7098  0.7028  0.6748
15983TIP3    H169364   0.089   3.419  15.103 -1.8104  1.1820  1.5924
15983TIP3    H269365   0.111   3.292  15.182  1.9401 -0.4152 -1.6596
15984TIP3   OH269366   1.908   6.389   1.089  0.5595 -0.1934 -0.1056
15984TIP3    H169367   1.957   6.413   1.169  0.7705  0.4924 -0.4319
15984TIP3    H269368   1.881   6.473   1.052 -0.8288 -0.5530  0.0279
15985TIP3   OH269369   3.535   3.434  11.709 -0.1770 -0.0232 -0.8519
15985TIP3    H169370   3.545   3.527  11.729  1.5887 -0.3800  0.1007
15985TIP3    H269371   3.539   3.390  11.794 -1.7271 -0.9560 -1.2113
15986TIP3   OH269372   1.190   0.294  12.546 -0.0407 -0.6056 -0.1613
15986TIP3    H169373   1.249   0.367  12.529  0.0911 -0.1672  1.8709
15986TIP3    H269374   1.103   0.330  12.529  0.0464 -0.0586  0.4916
15987TIP3   OH269375   4.045   5.625   0.511  0.0069 -0.1932 -0.1983
15987TIP3    H169376   4.132   5.588   0.495  0.2207 -0.3415  1.1801
15987TIP3    H269377   4.043   5.704   0.457  0.6993 -0.6100 -0.8507
15988TIP3   OH269378   0.498   5.068  12.522  0.1561  0.5251  0.2811
15988TIP3    H169379   0.589   5.100  12.521 -0.1129  1.3022 -0.1374
15988TIP3    H269380   0.494   5.007  12.449  0.4279  0.2484  0.4945
15989TIP3   OH269381   3.229   0.599  13.969  0.3013 -0.3662  0.4876
15989TIP3    H169382   3.203   0.523  13.917  0.7132 -1.5433  1.9388
15989TIP3    H269383   3.150   0.623  14.017 -0.0218  0.5922 -0.4818
15990TIP3   OH269384   6.615   3.686   5.537 -0.8922  0.3484  0.6650
15990TIP3    H169385   6.565   3.758   5.576 -1.1601  0.3098  0.4006
15990TIP3    H269386   6.649   3.637   5.611 -0.4351  0.9384  0.8535
15991TIP3   OH269387   6.663   3.585   5.780 -0.3945  0.3070  0.1878
15991TIP3    H169388   6.585   3.554   5.826 -0.0476  0.2900  0.7806
15991TIP3    H269389   6.731   3.522   5.803 -0.3318  0.0013 -0.7768
15992TIP3   OH269390   1.910   2.241   1.276  0.6581  0.1130 -0.0748
15992TIP3    H169391   1.945   2.232   1.365  1.2768 -0.2787 -0.3560
15992TIP3    H269392   1.815   2.229   1.287  0.5980  1.1401  0.6838
15993TIP3   OH269393   3.489   4.698  13.240  0.6779  0.6820  0.3677
15993TIP3    H169394   3.580   4.721  13.262  0.9626  0.2346 -0.2820
15993TIP3    H269395   3.454   4.777  13.199  0.7444  0.8877  0.7050
15994TIP3   OH269396   2.931   2.414  14.419 -0.0845  0.7700  0.5512
15994TIP3    H169397   2.842   2.381  14.429  1.1764 -3.2996  0.4789
15994TIP3    H269398   2.960   2.379  14.335  1.7534  1.5064  0.8205
15995TIP3   OH269399   6.078   0.322   1.348 -0.2492 -0.4432  0.4267
15995TIP3    H169400   6.029   0.389   1.397 -0.4169  0.1678 -0.5398
15995TIP3    H269401   6.034   0.318   1.263 -0.0436 -1.5759  0.3645
15996TIP3   OH269402   3.176   4.320  17.172 -0.3116 -0.0447  0.4879
15996TIP3    H169403   3.160   4.413  17.160  1.8186  0.5041  1.4349
15996TIP3    H269404   3.145   4.301  17.260  1.8290  0.4832  1.4133
15997TIP3   OH269405   4.253   2.364   2.478 -0.7136  0.4721  0.1445
15997TIP3    H169406   4.179   2.368   2.539 -0.2430  2.0718  0.6781
15997TIP3    H269407   4.254   2.450   2.436 -0.4128 -0.2536 -1.4158
15998TIP3   OH269408   1.478   0.423   5.535 -0.6349 -0.7762  0.6678
15998TIP3    H169409   1.385   0.419   5.513 -0.5161  0.4669 -0.1548
15998TIP3    H269410   1.482   0.400   5.628 -1.7588 -0.8305  0.7178
15999TIP3   OH269411   0.810   4.909  11.066  0.1164  0.0101 -0.5815
15999TIP3    H169412   0.731   4.886  11.017 -1.9238 -0.4010  2.6032
15999TIP3    H269413   0.813   5.005  11.063 -1.5711  0.1479  0.6423
16000TIP3   OH269414   2.239   0.465   0.408  0.6527 -0.1435 -0.0744
16000TIP3    H169415   2.149   0.432   0.413  1.2857 -1.9520 -0.0089
16000TIP3    H269416   2.230   0.559   0.423 -1.1319 -0.4180  0.9284
16001TIP3   OH269417   4.115   6.806  14.967  0.0526 -0.3005 -0.7163
16001TIP3    H169418   4.201   6.829  14.932  0.5198  1.5995  1.5044
16001TIP3    H269419   4.115   6.839  15.057 -2.6734 -1.0820 -0.3339
16002TIP3   OH269420   1.754   3.861   2.237 -0.6014  0.1265  0.4426
16002TIP3    H169421   1.720   3.947   2.264 -1.1011  0.4080 -0.9906
16002TIP3    H269422   1.676   3.813   2.208 -0.4319 -1.1093  1.9386
16003TIP3   OH269423   4.018   6.671  14.350  0.2676  0.0857  0.1129
16003TIP3    H169424   4.076   6.747  14.343 -0.9576  1.2028  1.3901
16003TIP3    H269425   3.965   6.688  14.428 -1.1446 -1.3164 -0.4788
16004TIP3   OH269426   1.663   2.713  14.570  0.1898  0.1649 -0.0477
16004TIP3    H169427   1.737   2.770  14.587  0.8159 -0.2535 -1.2571
16004TIP3    H269428   1.626   2.745  14.487 -0.3604 -0.2484  0.0323
16005TIP3   OH269429   5.941   5.925  16.425 -0.5351  0.0370 -0.3070
16005TIP3    H169430   5.995   5.984  16.372  0.4003 -0.6970 -0.1939
16005TIP3    H269431   5.862   5.912  16.373 -1.3752  2.4265  0.2553
16006TIP3   OH269432   5.408   3.074   4.735 -0.5425 -0.2908 -0.2576
16006TIP3    H169433   5.436   3.158   4.773 -0.1433 -0.9944  1.0679
16006TIP3    H269434   5.324   3.094   4.694 -0.7272  0.6604  0.5187
16007TIP3   OH269435   1.419   5.980   2.580  0.0228 -0.3002  0.2193
16007TIP3    H169436   1.354   6.047   2.557  0.1403 -0.4327 -0.5276
16007TIP3    H269437   1.496   6.031   2.607  0.3992 -0.0910 -1.1384
16008TIP3   OH269438   0.800   5.947  14.714 -0.0309  0.0999 -0.0226
16008TIP3    H169439   0.821   5.857  14.690  2.3673 -0.0532  2.2266
16008TIP3    H269440   0.878   5.979  14.759 -0.5012  3.5802 -1.3362
16009TIP3   OH269441   0.609   3.420   1.960  0.0701  0.1426 -0.0661
16009TIP3    H169442   0.560   3.432   2.042 -0.9924  0.3607 -0.7103
16009TIP3    H269443   0.567   3.480   1.898  1.7992  1.0765 -0.4032
16010TIP3   OH269444   0.984   0.468   1.289  0.4496  0.1710 -0.2255
16010TIP3    H169445   0.968   0.373   1.289 -0.3116  0.2911 -0.4773
16010TIP3    H269446   1.015   0.487   1.377  1.7270 -0.4837 -0.5025
16011TIP3   OH269447   1.596   3.521   6.161 -0.3565 -0.0996 -0.5668
16011TIP3    H169448   1.549   3.460   6.103 -0.8402  1.2654 -1.6556
16011TIP3    H269449   1.530   3.585   6.187  0.2298  0.1768  0.2650
16012TIP3   OH269450   2.614   3.791   5.841 -0.2491 -0.0332 -0.0048
16012TIP3    H169451   2.663   3.753   5.914  1.3653  0.1122 -0.9636
16012TIP3    H269452   2.532   3.741   5.839 -0.2980 -0.1061  1.8164
16013TIP3   OH269453   1.750   4.779  14.741  0.4585 -0.5765 -0.6340
16013TIP3    H169454   1.802   4.824  14.675  2.1303 -0.7076  0.5377
16013TIP3    H269455   1.706   4.708  14.694  2.0901 -1.0452 -1.4937
16014TIP3   OH269456   3.817   4.778  11.804 -0.2634  0.3435 -0.3133
16014TIP3    H169457   3.749   4.803  11.867 -0.3673 -0.5556 -0.0548
16014TIP3    H269458   3.847   4.861  11.767 -1.6374  0.7460 -0.5789
16015TIP3   OH269459   4.306   4.052   3.411 -0.1137  0.2563  0.0404
16015TIP3    H169460   4.306   3.971   3.360  0.7221 -0.9011  1.7997
16015TIP3    H269461   4.393   4.056   3.450 -1.3813 -0.1951  3.2353
16016TIP3   OH269462   4.760   2.296  12.772  0.2449 -0.5339 -0.4691
16016TIP3    H169463   4.813   2.312  12.850  0.2708 -1.7403 -0.2235
16016TIP3    H269464   4.672   2.279  12.806  0.5943 -2.7394 -0.5447
16017TIP3   OH269465   0.745   1.866   1.983 -0.1329  0.1633  0.1107
16017TIP3    H169466   0.803   1.832   1.915  1.0878  1.5082  0.4159
16017TIP3    H269467   0.659   1.869   1.942  0.5191  0.6850 -1.2878
16018TIP3   OH269468   4.819   6.250   3.168  0.1399  0.0363 -0.6059
16018TIP3    H169469   4.862   6.295   3.240  0.7741  4.4509 -3.3317
16018TIP3    H269470   4.886   6.193   3.130  0.8948  0.4052  0.1659
16019TIP3   OH269471   4.996   3.718   0.374 -0.5722  0.1948  0.1800
16019TIP3    H169472   4.935   3.691   0.306 -0.7207  0.7446  0.0868
16019TIP3    H269473   4.940   3.751   0.444 -0.5254 -2.0667  1.3777
16020TIP3   OH269474   3.715   5.060   5.767  1.0882 -0.1293  0.1917
16020TIP3    H169475   3.806   5.060   5.737  1.3359  0.0807  0.9216
16020TIP3    H269476   3.684   4.971   5.751  1.3247 -0.1189 -0.3351
16021TIP3   OH269477   4.545   4.062   3.542 -0.2002  0.4513  0.5538
16021TIP3    H169478   4.602   4.006   3.491 -0.7208  1.7490 -1.5689
16021TIP3    H269479   4.578   4.151   3.526 -1.7253  1.0763  0.7152
16022TIP3   OH269480   1.553   1.944   3.728  0.0439 -0.6132 -0.0487
16022TIP3    H169481   1.471   1.942   3.777  1.3037  0.8831  2.2920
16022TIP3    H269482   1.555   2.030   3.687  0.7280 -0.3705  0.4763
16023TIP3   OH269483   5.551   2.253   2.699  0.8317 -0.1286 -0.3463
16023TIP3    H169484   5.458   2.272   2.688  0.3812 -1.5174  0.7699
16023TIP3    H269485   5.567   2.260   2.793  1.8118 -0.1184 -0.4931
16024TIP3   OH269486   1.372   0.548  11.194  0.4466  0.3591 -0.1587
16024TIP3    H169487   1.396   0.639  11.213 -1.6301  0.8086  0.5582
16024TIP3    H269488   1.361   0.545  11.099  0.1592  0.9629 -0.1484
16025TIP3   OH269489   0.940   0.141  17.091  0.3285  0.5366 -0.2514
16025TIP3    H169490   0.890   0.198  17.033 -1.2166 -0.1678  0.3323
16025TIP3    H269491   0.984   0.079  17.033  0.9534  1.4730 -0.8028
16026TIP3   OH269492   5.069   4.987  12.081  0.1979  0.1038  0.0021
16026TIP3    H169493   5.034   5.064  12.037  0.9728 -0.9446 -2.6606
16026TIP3    H269494   5.162   5.007  12.093  0.6774 -0.8081 -1.8307
16027TIP3   OH269495   4.361   2.204   4.744  0.2687  0.6067  0.3320
16027TIP3    H169496   4.382   2.141   4.814 -1.0176  0.1130  0.2872
16027TIP3    H269497   4.416   2.176   4.671  0.1666 -0.1020  0.5129
16028TIP3   OH269498   3.029   6.112  16.566  0.6485  0.2030 -0.4092
16028TIP3    H169499   2.992   6.032  16.603  0.2423 -0.1976 -1.6501
16028TIP3    H269500   3.034   6.173  16.640 -0.5407 -0.4305  0.2065
16029TIP3   OH269501   1.900   0.510   2.640  0.0700  0.8667  0.1974
16029TIP3    H169502   1.887   0.455   2.716 -2.8709  0.2786 -0.6077
16029TIP3    H269503   1.989   0.543   2.649  0.6276 -1.0362  2.6229
16030TIP3   OH269504   2.152   0.256  16.477 -0.4616  0.0348  0.0551
16030TIP3    H169505   2.193   0.173  16.499 -2.0064 -0.5508  0.8877
16030TIP3    H269506   2.133   0.297  16.561 -0.8531  0.6555 -0.3230
16031TIP3   OH269507   6.103   2.600  12.993  0.0127 -0.4240  0.1679
16031TIP3    H169508   6.032   2.610  13.056  0.7288  0.1822  0.9049
16031TIP3    H269509   6.060   2.568  12.914 -1.1994  0.6125  0.3626
16032TIP3   OH269510   0.660   4.795  13.749  0.0451  0.5208  0.3814
16032TIP3    H169511   0.670   4.778  13.842 -1.7795 -1.5580  0.2742
16032TIP3    H269512   0.712   4.726  13.706 -1.3959 -0.3344 -0.0816
16033TIP3   OH269513   1.849   4.741  16.582 -0.0080 -0.3407  0.3500
16033TIP3    H169514   1.898   4.695  16.649  0.6733  1.3238  1.0662
16033TIP3    H269515   1.776   4.782  16.629 -1.6499 -2.0737 -0.5556
16034TIP3   OH269516   4.179   2.250  14.050 -0.0155 -0.4139 -0.4923
16034TIP3    H169517   4.178   2.165  14.093 -1.4710 -0.6413 -0.9099
16034TIP3    H269518   4.198   2.230  13.958 -0.0816 -0.2695 -0.5387
16035TIP3   OH269519   1.647   1.936   2.134 -0.0642  0.0959  0.2860
16035TIP3    H169520   1.710   1.865   2.118  1.5989  1.7781 -1.1462
16035TIP3    H269521   1.571   1.914   2.081 -0.9908 -2.1679  2.3257
16036TIP3   OH269522   3.013   6.056   1.036  0.4127  0.2462  0.2176
16036TIP3    H169523   3.023   6.090   0.947 -0.6706  3.3547  1.1363
16036TIP3    H269524   3.093   6.006   1.052  1.4374  1.0946 -1.8928
16037TIP3   OH269525   4.123   2.732   1.314 -0.7310  0.2912  0.0654
16037TIP3    H169526   4.200   2.734   1.257 -0.2086 -0.1798  0.7388
16037TIP3    H269527   4.130   2.650   1.362 -2.6195 -0.6376 -1.1264
16038TIP3   OH269528   1.600   2.425   3.266  0.1454 -0.1493  0.3264
16038TIP3    H169529   1.554   2.484   3.325 -0.2770  0.8322 -0.9330
16038TIP3    H269530   1.542   2.349   3.258 -1.1800  0.9445 -1.0111
16039TIP3   OH269531   1.283   2.586   5.695  0.0673  0.3037 -0.5044
16039TIP3    H169532   1.331   2.511   5.661  0.1550  0.4431 -0.6887
16039TIP3    H269533   1.317   2.599   5.784 -0.4465 -0.3130 -0.2077
16040TIP3   OH269534   0.906   3.966   5.888 -0.1782  0.2465 -0.9655
16040TIP3    H169535   0.978   3.937   5.833 -1.2486 -0.7554 -1.9147
16040TIP3    H269536   0.888   3.892   5.946  0.3275  0.9424  0.1110
16041TIP3   OH269537   0.456   2.919  13.782 -0.2317  0.0730 -0.4238
16041TIP3    H169538   0.536   2.874  13.755  2.0272  2.7631  1.1006
16041TIP3    H269539   0.444   2.988  13.717  0.8024  1.7812  1.0581
16042TIP3   OH269540   2.466   3.785   4.203  0.3536  0.1456 -0.2874
16042TIP3    H169541   2.488   3.877   4.216 -0.1330  0.1056  0.9751
16042TIP3    H269542   2.371   3.784   4.191  0.4258 -0.1375 -0.8360
16043TIP3   OH269543   0.332   3.404   0.490 -0.1552  0.2142 -0.5993
16043TIP3    H169544   0.389   3.402   0.567 -1.5008  0.6233  0.4475
16043TIP3    H269545   0.337   3.315   0.454  0.3688 -0.0240  0.0450
16044TIP3   OH269546   3.255   2.398   3.292 -0.5239  0.0799 -0.4830
16044TIP3    H169547   3.252   2.326   3.229 -2.6643  0.0976 -0.4756
16044TIP3    H269548   3.170   2.395   3.336  0.1862  1.2522  1.0868
16045TIP3   OH269549   3.468   0.213   4.532 -0.0271  0.2422  0.0249
16045TIP3    H169550   3.530   0.190   4.463 -1.6450  0.0705 -1.4325
16045TIP3    H269551   3.496   0.162   4.608  1.9997  0.7005 -0.3554
16046TIP3   OH269552   0.608   1.131   0.941 -0.3319 -0.2310  0.1088
16046TIP3    H169553   0.583   1.119   0.849  1.0231 -0.7614 -0.2175
16046TIP3    H269554   0.688   1.079   0.951 -1.1733 -1.2827  1.9500
16047TIP3   OH269555   3.998   2.366   2.255 -0.4852  0.1959 -0.0497
16047TIP3    H169556   4.063   2.436   2.250  1.2711 -1.1324  2.0529
16047TIP3    H269557   3.931   2.399   2.315  0.7216 -0.1261  1.5405
16048TIP3   OH269558   0.865   0.705   1.161 -0.1951 -0.7359  0.3875
16048TIP3    H169559   0.931   0.691   1.092  1.6952 -0.4838  2.0592
16048TIP3    H269560   0.879   0.632   1.222 -1.3649 -0.5779  0.8633
16049TIP3   OH269561   0.079   4.315  15.310 -0.4938 -0.0755  0.0272
16049TIP3    H169562   0.135   4.267  15.249  0.8049  0.5838  0.6668
16049TIP3    H269563   0.088   4.407  15.284  0.5281  0.2838  1.5291
16050TIP3   OH269564   5.865   4.336  15.298  0.2225 -0.1292  0.4525
16050TIP3    H169565   5.932   4.276  15.331  1.3921  0.1193 -1.2950
16050TIP3    H269566   5.898   4.423  15.320 -0.1073 -0.0456  0.6138
16051TIP3   OH269567   2.661   1.670  14.751 -0.8470 -0.0454  0.2551
16051TIP3    H169568   2.753   1.693  14.738 -0.5504 -1.2635  0.0876
16051TIP3    H269569   2.650   1.587  14.706 -1.7807 -0.4181  1.1296
16052TIP3   OH269570   2.032   2.894   4.069 -0.1345  0.0205  0.0033
16052TIP3    H169571   1.958   2.834   4.065 -0.6181  0.6032  0.1454
16052TIP3    H269572   2.023   2.949   3.991 -0.8236  1.2000  0.8745
16053TIP3   OH269573   5.521   5.167   3.118  0.0507  0.2138 -0.3433
16053TIP3    H169574   5.534   5.087   3.067  0.1377 -1.1304  1.6579
16053TIP3    H269575   5.429   5.190   3.104 -0.9256 -2.1109  1.4376
16054TIP3   OH269576   1.088   3.426  13.703  0.3028 -0.3414 -0.5613
16054TIP3    H169577   1.160   3.396  13.647  1.4470  0.4238  0.4261
16054TIP3    H269578   1.009   3.411  13.652  0.9650 -2.9303 -0.9740
16055TIP3   OH269579   6.470   6.696   0.342  0.0517 -0.3277  0.2374
16055TIP3    H169580   6.520   6.646   0.278  1.6261 -1.0713  1.9438
16055TIP3    H269581   6.408   6.633   0.379 -0.5402 -0.0203 -0.2158
16056TIP3   OH269582   2.090   3.612   1.347 -0.4290  0.5771 -0.0144
16056TIP3    H169583   2.150   3.676   1.308  0.0885  0.5971  0.7803
16056TIP3    H269584   2.069   3.552   1.275  0.6889  0.4692 -0.2767
16057TIP3   OH269585   5.652   5.784  16.952 -0.4263 -0.3810 -0.2715
16057TIP3    H169586   5.735   5.796  16.905 -1.5715  0.6339 -2.1653
16057TIP3    H269587   5.671   5.812  17.041  0.5811  2.7797 -1.3417
16058TIP3   OH269588   0.306   3.288   0.129  0.0857  0.0123 -0.1055
16058TIP3    H169589   0.398   3.283   0.154  0.4171  1.7576 -0.8485
16058TIP3    H269590   0.272   3.200   0.146  1.0686  0.1544  3.2123
16059TIP3   OH269591   1.892   6.130  10.122  0.2206 -0.2236 -0.3537
16059TIP3    H169592   1.985   6.116  10.141  0.7188 -0.7019 -2.7923
16059TIP3    H269593   1.852   6.044  10.132 -0.1123  0.0814  1.2146
16060TIP3   OH269594   5.822   2.657  14.362 -0.0342  1.0289 -0.0531
16060TIP3    H169595   5.739   2.699  14.386 -1.0105  0.5259 -2.2844
16060TIP3    H269596   5.799   2.564  14.353  1.2672  0.5447  1.2819
16061TIP3   OH269597   3.093   2.110  14.081  0.0635 -0.1150  0.4880
16061TIP3    H169598   3.097   2.015  14.071  1.7647 -0.0280  0.1237
16061TIP3    H269599   3.041   2.140  14.006  1.1939 -0.6050 -0.5166
16062TIP3   OH269600   4.932   4.457   4.091  0.3332 -0.3896 -0.2801
16062TIP3    H169601   4.926   4.383   4.151  2.3653 -0.5710 -0.2550
16062TIP3    H269602   4.841   4.488   4.083 -0.2089 -1.3275  1.6274
16063TIP3   OH269603   1.823   5.913  13.403 -0.7346  0.2511  0.2466
16063TIP3    H169604   1.732   5.915  13.431 -0.4617  0.8095  1.1529
16063TIP3    H269605   1.872   5.948  13.477 -0.0079  2.2255 -1.0666
16064TIP3   OH269606   4.347   3.573  15.057 -0.0062  0.2086 -0.0195
16064TIP3    H169607   4.292   3.559  14.980  0.6413 -0.4277 -0.3648
16064TIP3    H269608   4.387   3.659  15.042 -0.4837  0.4331 -0.0220
16065TIP3   OH269609   3.423   6.060   3.108  0.0892  0.0244  0.4839
16065TIP3    H169610   3.487   6.131   3.094  0.3565  0.0102  1.5023
16065TIP3    H269611   3.338   6.101   3.092  0.2755  0.4111  0.4586
16066TIP3   OH269612   5.093   4.860  15.138  0.4114  0.2408  0.1798
16066TIP3    H169613   5.115   4.778  15.094 -0.5553  0.4922 -0.8054
16066TIP3    H269614   5.166   4.919  15.117 -1.0762  1.1231 -3.2062
16067TIP3   OH269615   2.894   1.373   1.338  0.1102 -0.3074  0.1998
16067TIP3    H169616   2.953   1.360   1.413  1.3954 -0.9688 -0.8972
16067TIP3    H269617   2.910   1.463   1.311  1.0570 -0.6690 -0.4560
16068TIP3   OH269618   5.190   3.752  12.886  0.3290 -0.5003 -0.1140
16068TIP3    H169619   5.232   3.837  12.899  0.8438 -0.8166  0.3204
16068TIP3    H269620   5.161   3.754  12.795  0.1844  0.2069 -0.0630
16069TIP3   OH269621   2.056   3.214  12.842 -0.2562 -0.4654 -0.4184
16069TIP3    H169622   2.112   3.200  12.918 -1.2381 -2.5623  0.0042
16069TIP3    H269623   2.112   3.193  12.767  0.9735  2.4373 -0.4327
16070TIP3   OH269624   4.940   3.843  15.733 -0.1003  0.2421 -0.4356
16070TIP3    H169625   4.868   3.907  15.734 -0.7258 -0.4347  1.4691
16070TIP3    H269626   4.897   3.758  15.744  0.9832 -0.1056  1.6994
16071TIP3   OH269627   6.624   2.641   2.076  0.4554  0.2399 -0.0830
16071TIP3    H169628   6.717   2.634   2.097  0.2399 -1.6686  0.3571
16071TIP3    H269629   6.601   2.558   2.035 -1.0251  0.7508 -0.3814
16072TIP3   OH269630   1.059   6.723   3.510 -0.2682 -0.2845 -0.4481
16072TIP3    H169631   0.979   6.706   3.459 -1.6213  0.6096  1.2714
16072TIP3    H269632   1.027   6.743   3.598  1.9079 -0.3317  0.4062
16073TIP3   OH269633   0.709   5.758  13.720  0.2287  0.3559  0.1808
16073TIP3    H169634   0.659   5.681  13.746  1.8966 -1.0230 -0.4978
16073TIP3    H269635   0.744   5.793  13.802 -1.6584  1.2700  0.6469
16074TIP3   OH269636   1.107   3.892   1.077 -0.0698 -0.2227 -0.0651
16074TIP3    H169637   1.026   3.911   1.125 -0.7444 -0.3529 -1.1029
16074TIP3    H269638   1.076   3.855   0.994  1.0725 -0.5425 -0.3549
16075TIP3   OH269639   3.966   0.400   4.151  0.1944  0.3062  0.3329
16075TIP3    H169640   4.007   0.481   4.122  0.5758 -0.0835 -0.2522
16075TIP3    H269641   3.978   0.399   4.246 -2.6372  2.4743  0.8312
16076TIP3   OH269642   0.572   0.259   1.235 -0.7270 -0.1713  0.5342
16076TIP3    H169643   0.665   0.246   1.219 -0.2720 -0.4659  3.0852
16076TIP3    H269644   0.529   0.192   1.182  0.3734  0.6872 -1.5829
16077TIP3   OH269645   2.188   4.854  11.736 -0.3923  0.1883  0.1744
16077TIP3    H169646   2.155   4.856  11.646  0.2585  1.8789 -0.0665
16077TIP3    H269647   2.273   4.897  11.731 -0.7039  1.0546  1.7056
16078TIP3   OH269648   6.480   5.263  11.969 -0.1087 -0.3788 -0.2238
16078TIP3    H169649   6.506   5.171  11.975 -0.5318 -0.5297 -0.6164
16078TIP3    H269650   6.392   5.260  11.931  1.0194  0.3216 -3.1934
16079TIP3   OH269651   3.638   2.493  11.718 -0.0488 -0.1869  0.9072
16079TIP3    H169652   3.653   2.569  11.661  0.5267  0.7360  2.2411
16079TIP3    H269653   3.590   2.431  11.663  0.3750  0.7155 -0.5343
16080TIP3   OH269654   2.548   0.048   2.923  0.1630  0.3154  0.1192
16080TIP3    H169655   2.640   0.059   2.899 -0.4077  1.5416 -1.6492
16080TIP3    H269656   2.506   0.015   2.844 -0.8575 -0.7365  1.0646
16081TIP3   OH269657   5.499   5.949   3.748 -0.7654  0.0899 -0.5500
16081TIP3    H169658   5.501   5.949   3.844 -1.3475 -0.2608 -0.5308
16081TIP3    H269659   5.498   5.856   3.725  0.0089  0.1667 -0.9190
16082TIP3   OH269660   0.045   4.300   1.680 -0.3421 -0.1888  0.4657
16082TIP3    H169661  -0.019   4.290   1.609  1.3375 -0.4749 -1.0760
16082TIP3    H269662   0.099   4.374   1.654 -1.9158  2.2236  3.3477
16083TIP3   OH269663   6.547   0.277   0.099  0.2152  0.1480 -0.0751
16083TIP3    H169664   6.565   0.316   0.013  0.2107 -0.1032 -0.1896
16083TIP3    H269665   6.603   0.327   0.159 -2.1391  2.5747  0.3214
16084TIP3   OH269666   5.098   1.849  13.455  0.6956  0.1115  0.4160
16084TIP3    H169667   5.129   1.760  13.439  0.5782  0.3009 -0.8984
16084TIP3    H269668   5.007   1.838  13.483  0.9683 -0.2290  1.2163
16085TIP3   OH269669   6.584   2.253  13.352 -0.2118  0.0144 -0.0956
16085TIP3    H169670   6.562   2.166  13.384  0.7387 -1.2643 -2.6441
16085TIP3    H269671   6.677   2.264  13.374 -0.3700  0.4761  0.3646
16086TIP3   OH269672   5.960   1.188   1.747 -0.2418  0.0502  0.0518
16086TIP3    H169673   5.932   1.269   1.789  0.0453  1.3318 -2.1120
16086TIP3    H269674   5.881   1.156   1.702 -0.1414 -0.4206  0.2058
16087TIP3   OH269675   4.886   1.997  11.601  0.1997 -0.4023 -0.2294
16087TIP3    H169676   4.933   2.021  11.521  0.7267  0.2139  0.2488
16087TIP3    H269677   4.822   1.932  11.573  0.4915 -0.3203 -1.1202
16088TIP3   OH269678   4.587   5.961  15.667  0.0677 -0.2819 -0.1779
16088TIP3    H169679   4.652   5.938  15.733  0.0075 -1.3296 -0.4682
16088TIP3    H269680   4.602   6.054  15.650  0.2892 -0.0775  1.0695
16089TIP3   OH269681   4.653   3.672   2.165  0.4224 -0.3043 -0.5374
16089TIP3    H169682   4.574   3.663   2.112 -0.2078  1.1975  0.1055
16089TIP3    H269683   4.642   3.609   2.236  0.2443 -0.7431 -0.9448
16090TIP3   OH269684   5.258   3.083   0.431 -0.0431 -0.2383 -0.3294
16090TIP3    H169685   5.341   3.067   0.388 -0.4763 -0.9225 -0.9369
16090TIP3    H269686   5.193   3.038   0.376 -1.0442  1.7403 -0.8773
16091TIP3   OH269687   3.659   3.492  11.184 -0.0573  0.2768 -0.8178
16091TIP3    H169688   3.628   3.427  11.247 -0.3711  1.4327  0.2452
16091TIP3    H269689   3.754   3.480  11.182 -0.2048 -0.9696 -1.5071
16092TIP3   OH269690   4.375   6.204  12.898 -0.7882 -0.2276  0.3608
16092TIP3    H169691   4.398   6.236  12.985  0.9308 -0.7738  0.1404
16092TIP3    H269692   4.379   6.282  12.842 -0.2361 -0.1789  0.4680
16093TIP3   OH269693   6.486   3.019   2.648 -0.5803 -0.0410 -0.0259
16093TIP3    H169694   6.486   2.924   2.647 -0.7781 -0.0493  0.4884
16093TIP3    H269695   6.555   3.043   2.710  0.0814  0.1659 -0.8267
16094TIP3   OH269696   2.137   3.665  11.199 -0.5892 -0.0268  0.0173
16094TIP3    H169697   2.138   3.635  11.108  2.5010  3.3364 -1.3123
16094TIP3    H269698   2.065   3.729  11.202  2.0091  3.2983 -1.6500
16095TIP3   OH269699   3.567   1.616  13.070  0.4930 -0.0427  0.7926
16095TIP3    H169700   3.573   1.678  13.142  0.2905  1.1247 -0.1585
16095TIP3    H269701   3.521   1.664  13.001  1.7454 -0.6848 -0.5558
16096TIP3   OH269702   2.760   2.659  12.665  0.1332 -0.1609 -0.1848
16096TIP3    H169703   2.832   2.631  12.720  0.9926  1.5402 -0.3593
16096TIP3    H269704   2.799   2.665  12.577 -0.3583  0.2307 -0.3783
16097TIP3   OH269705   2.253   1.917   3.821 -0.0350 -0.5889  0.7237
16097TIP3    H169706   2.181   1.854   3.808  0.3148 -0.6364 -1.5279
16097TIP3    H269707   2.264   1.957   3.734  0.7841  1.4878  1.7247
16098TIP3   OH269708   6.695   0.165  16.385 -0.3390  0.3414 -0.2040
16098TIP3    H169709   6.742   0.248  16.397 -0.8444  0.4559  1.2273
16098TIP3    H269710   6.756   0.098  16.415 -1.6140  0.6290  3.7377
16099TIP3   OH269711   6.205   4.819  15.421  0.1712  0.4031 -0.1367
16099TIP3    H169712   6.183   4.812  15.514  2.4020 -1.2785  0.3611
16099TIP3    H269713   6.188   4.910  15.398 -0.1272  0.9225  1.9965
16100TIP3   OH269714   4.487   0.404   2.019 -0.0357  0.3868  0.0876
16100TIP3    H169715   4.510   0.495   2.000  0.1814  0.4880  0.7972
16100TIP3    H269716   4.567   0.355   2.002 -0.3777  0.2062 -1.0717
16101TIP3   OH269717   3.380   4.730   6.212  0.1775  0.1936  0.3362
16101TIP3    H169718   3.424   4.649   6.239  0.1009  0.3385  0.8950
16101TIP3    H269719   3.288   4.715   6.234  0.2791  0.7305  1.1365
16102TIP3   OH269720   1.172   5.030  15.611  0.0177 -0.9683 -0.1690
16102TIP3    H169721   1.191   5.121  15.633 -1.9083 -1.1021  2.3960
16102TIP3    H269722   1.078   5.028  15.593 -0.2792 -2.6819  1.3290
16103TIP3   OH269723   1.438   5.875  11.290  0.3581 -0.3800  0.1135
16103TIP3    H169724   1.530   5.901  11.296  0.4448 -0.7771  0.5010
16103TIP3    H269725   1.420   5.874  11.196  1.0837 -1.4400 -0.0351
16104TIP3   OH269726   6.583   2.471   5.014  0.2188 -0.0904  0.4294
16104TIP3    H169727   6.583   2.464   4.918 -0.2753 -0.1712  0.4293
16104TIP3    H269728   6.490   2.476   5.037  0.3632  2.4136  0.7217
16105TIP3   OH269729   1.384   1.998   2.903  0.4927 -0.0036  0.3644
16105TIP3    H169730   1.335   1.919   2.879  2.3506 -0.7275 -1.3405
16105TIP3    H269731   1.343   2.068   2.852 -0.0663 -0.2138  0.5267
16106TIP3   OH269732   4.568   5.572   5.303 -0.2761 -0.3903 -0.0580
16106TIP3    H169733   4.611   5.577   5.217 -0.5639 -0.6535 -0.2200
16106TIP3    H269734   4.636   5.596   5.366 -0.3153  0.7776 -0.4339
16107TIP3   OH269735   6.582   2.199  13.808 -0.0016 -0.5665 -0.3143
16107TIP3    H169736   6.568   2.105  13.798  3.2749 -1.2770  0.3444
16107TIP3    H269737   6.516   2.240  13.754  0.1388 -3.3468 -2.8175
16108TIP3   OH269738   3.940   2.833  14.902  0.1340 -0.2324  0.2831
16108TIP3    H169739   3.989   2.750  14.902 -0.3925 -0.5508 -0.1720
16108TIP3    H269740   3.985   2.888  14.966  0.6061 -0.8037  0.4466
16109TIP3   OH269741   6.104   4.641   1.633  0.4787 -0.0970 -0.0324
16109TIP3    H169742   6.165   4.590   1.687 -0.1382 -1.9344 -0.9877
16109TIP3    H269743   6.154   4.662   1.554  0.0148 -1.3300 -0.6772
16110TIP3   OH269744   5.858   0.287  11.472  0.2061 -0.5117  0.1218
16110TIP3    H169745   5.886   0.199  11.451  2.1873  0.4746 -1.6581
16110TIP3    H269746   5.939   0.336  11.485 -0.8202  1.2338  0.2987
16111TIP3   OH269747   4.402   1.090  13.047 -0.0880 -0.2442 -0.0328
16111TIP3    H169748   4.424   1.156  13.112  0.4508  0.5471 -0.9910
16111TIP3    H269749   4.309   1.070  13.063 -0.1067  0.3305  0.6183
16112TIP3   OH269750   0.935   1.159  16.805  0.0361  0.4175  0.1234
16112TIP3    H169751   0.875   1.221  16.846 -0.1437  1.3012 -1.4085
16112TIP3    H269752   1.002   1.144  16.872 -0.2015  1.8692  0.7308
16113TIP3   OH269753   5.403   6.050  16.007 -0.2533 -0.0533  0.4350
16113TIP3    H169754   5.362   6.131  16.039  1.2756 -0.1684  2.9959
16113TIP3    H269755   5.494   6.056  16.037 -0.3083 -3.0742  1.4902
16114TIP3   OH269756   1.106   1.679  15.947 -0.2537 -0.3382  0.7363
16114TIP3    H169757   1.015   1.708  15.954 -0.3201 -0.6785  1.3156
16114TIP3    H269758   1.102   1.584  15.952 -0.1090 -0.5717 -1.9125
16115TIP3   OH269759   2.514   3.033  14.872 -0.6438 -0.8822 -0.1941
16115TIP3    H169760   2.560   2.951  14.853  0.1508 -0.5205  0.0847
16115TIP3    H269761   2.566   3.073  14.942 -2.3378 -1.2351  1.3327
16116TIP3   OH269762   5.468   2.730   0.277 -0.3430 -0.1277 -0.0495
16116TIP3    H169763   5.509   2.814   0.300  0.7194 -0.4479 -0.7048
16116TIP3    H269764   5.389   2.726   0.331  0.4304  0.5765  1.1768
16117TIP3   OH269765   1.477   4.720   2.929 -0.4107 -0.2329  0.2203
16117TIP3    H169766   1.495   4.626   2.929 -0.4579 -0.2815  2.3127
16117TIP3    H269767   1.562   4.761   2.945 -0.1798  0.2035 -1.7475
16118TIP3   OH269768   5.694   0.176   0.820  0.5204 -0.0120 -0.4044
16118TIP3    H169769   5.754   0.238   0.779  1.0985 -1.4518 -1.8373
16118TIP3    H269770   5.702   0.194   0.914 -0.0715  2.6851 -0.7760
16119TIP3   OH269771   2.223   0.749  15.756  0.4114  0.2354  0.1746
16119TIP3    H169772   2.293   0.684  15.751  0.1511  0.0137 -0.7773
16119TIP3    H269773   2.199   0.765  15.665  0.5603  1.7639  0.3754
16120TIP3   OH269774   5.334   4.957  12.582 -0.7926 -0.4279 -0.3164
16120TIP3    H169775   5.290   4.941  12.666 -1.6722 -0.4897 -0.7721
16120TIP3    H269776   5.424   4.981  12.606 -1.5818  1.7423  0.7783
16121TIP3   OH269777   4.445   5.294  13.439 -0.0225  0.9798 -0.2066
16121TIP3    H169778   4.442   5.387  13.420  0.7935  0.8596 -1.0313
16121TIP3    H269779   4.384   5.254  13.378 -0.6859  1.0033  0.4284
16122TIP3   OH269780   3.912   6.791  11.790  0.0889 -0.1666 -0.7037
16122TIP3    H169781   3.939   6.812  11.700  1.6468 -0.7705 -0.4107
16122TIP3    H269782   3.860   6.711  11.781  2.2170 -1.6065 -0.8863
16123TIP3   OH269783   2.728   0.016  12.795  0.0881  0.4563 -0.3493
16123TIP3    H169784   2.700   0.094  12.843  1.6102 -0.4478  2.1431
16123TIP3    H269785   2.695  -0.057  12.847  1.4260 -0.5704 -0.8928
16124TIP3   OH269786   5.869   4.200   0.150  0.4190 -0.2227 -0.1867
16124TIP3    H169787   5.935   4.154   0.203  0.6365 -0.4535 -0.6516
16124TIP3    H269788   5.834   4.132   0.092  0.1260  0.0125 -0.2849
16125TIP3   OH269789   4.717   0.592   2.770 -0.1836 -0.1529  0.4844
16125TIP3    H169790   4.682   0.507   2.798 -2.0445  0.4641  0.1451
16125TIP3    H269791   4.764   0.573   2.689 -1.4443 -0.7193 -0.1353
16126TIP3   OH269792   1.014   1.800   3.179 -0.3868 -0.0614 -0.7200
16126TIP3    H169793   1.053   1.883   3.150  2.2613 -0.6760  0.7509
16126TIP3    H269794   1.061   1.733   3.130  0.2544 -0.8242  0.8684
16127TIP3   OH269795   2.259   1.290   3.650  0.4868 -0.1793  0.4068
16127TIP3    H169796   2.309   1.306   3.730 -2.1518 -0.1005  2.1517
16127TIP3    H269797   2.247   1.195   3.648  1.6250 -0.3298 -0.6574
16128TIP3   OH269798   0.033   1.458   2.945  0.3381  0.3010  0.1330
16128TIP3    H169799   0.009   1.374   2.985  0.1770  0.9967  1.5889
16128TIP3    H269800   0.100   1.436   2.880  0.9822 -0.8605  1.1418
16129TIP3   OH269801   0.419   5.727  17.005  0.1079 -1.0621 -0.4733
16129TIP3    H169802   0.460   5.741  17.091  0.6926  1.1930 -1.0454
16129TIP3    H269803   0.492   5.735  16.943 -0.7214  0.1032 -1.3288
16130TIP3   OH269804   1.941   1.389   4.400 -0.0699  0.2223 -0.0565
16130TIP3    H169805   1.896   1.437   4.469  0.4704  0.2085  0.3060
16130TIP3    H269806   1.890   1.308   4.391  0.7868 -0.5252  1.4605
16131TIP3   OH269807   3.315   3.806   2.913  0.1906 -0.2236  0.2208
16131TIP3    H169808   3.247   3.866   2.944 -0.5776 -1.1596  0.3901
16131TIP3    H269809   3.295   3.723   2.957  0.8018 -0.7947 -0.5582
16132TIP3   OH269810   1.468   4.727  15.175  0.7535  0.2040  0.1194
16132TIP3    H169811   1.481   4.633  15.160  0.9645  0.4315 -1.2293
16132TIP3    H269812   1.419   4.757  15.098  2.5263  1.5894 -0.5345
16133TIP3   OH269813   3.977   0.695   3.319 -0.3208 -0.0401 -0.3592
16133TIP3    H169814   3.890   0.702   3.281 -0.0444  0.2107 -0.9729
16133TIP3    H269815   3.970   0.625   3.383 -0.7495 -0.6379 -1.0475
16134TIP3   OH269816   4.974   0.160  15.629  0.0785 -0.3944 -0.0123
16134TIP3    H169817   4.912   0.093  15.600 -0.0938  0.6199 -2.1064
16134TIP3    H269818   4.985   0.142  15.723  0.0831 -3.3830 -0.4788
16135TIP3   OH269819   3.405   4.153   3.833 -0.2392 -0.5208 -0.6707
16135TIP3    H169820   3.352   4.150   3.913  1.8434 -0.4304  0.8158
16135TIP3    H269821   3.376   4.232   3.788  0.2503  0.8638  1.3172
16136TIP3   OH269822   5.340   5.231  14.916  0.3043  0.5796 -0.0016
16136TIP3    H169823   5.315   5.223  14.824  0.4786  0.7008 -0.0600
16136TIP3    H269824   5.257   5.227  14.963  0.1383  1.3518 -0.2170
16137TIP3   OH269825   6.322   1.209   1.490  0.6057 -0.0044  0.0695
16137TIP3    H169826   6.260   1.166   1.549 -1.8840  0.8271 -1.7881
16137TIP3    H269827   6.326   1.151   1.414  0.6453  0.8753 -0.6056
16138TIP3   OH269828   5.433   2.106   3.394  0.0277 -0.7476 -0.0006
16138TIP3    H169829   5.407   2.094   3.485 -0.0165  0.8158  0.2222
16138TIP3    H269830   5.423   2.019   3.354 -0.4881 -1.3266  1.3388
16139TIP3   OH269831   0.149   1.441  15.057  0.4693  0.2200  0.2221
16139TIP3    H169832   0.206   1.466  15.129  1.1835 -0.3574 -0.1305
16139TIP3    H269833   0.139   1.522  15.006 -0.4850  0.7688  1.2425
16140TIP3   OH269834   1.582   0.330  11.512 -0.2745 -0.2241  0.3625
16140TIP3    H169835   1.648   0.339  11.443  0.8082 -0.4211  1.3268
16140TIP3    H269836   1.634   0.320  11.593 -1.4660  1.7184  1.4464
16141TIP3   OH269837   6.661   0.660   2.584  0.2131 -0.0807 -0.0086
16141TIP3    H169838   6.624   0.572   2.573 -0.9073  0.5340 -1.6329
16141TIP3    H269839   6.755   0.648   2.570  0.1511 -1.0978  0.3326
16142TIP3   OH269840   1.989   5.680   0.398  0.5598 -0.1796  0.3896
16142TIP3    H169841   1.975   5.643   0.311 -1.2416  1.2922 -0.0197
16142TIP3    H269842   2.080   5.660   0.418  0.8735 -1.0301 -1.5972
16143TIP3   OH269843   5.056   3.491   2.472 -0.2156  0.4670  0.4115
16143TIP3    H169844   5.006   3.490   2.554 -1.6106  0.1460 -0.4050
16143TIP3    H269845   4.997   3.531   2.409  0.1305 -0.9155 -0.8374
16144TIP3   OH269846   6.748   0.442   0.166 -0.6002  0.0648 -0.1695
16144TIP3    H169847   6.743   0.536   0.148 -0.6787 -0.0293 -0.6680
16144TIP3    H269848   6.836   0.429   0.201 -1.1057  0.5466  1.3585
16145TIP3   OH269849   0.837   0.911  11.936 -0.0363  0.4294  0.0174
16145TIP3    H169850   0.777   0.982  11.957 -1.3758 -0.7525  0.3136
16145TIP3    H269851   0.894   0.904  12.013 -2.7771 -1.6839  2.0259
16146TIP3   OH269852   4.007   2.462   2.790  0.0132  0.8078 -0.6082
16146TIP3    H169853   4.055   2.425   2.863 -0.9334  3.5314  1.5756
16146TIP3    H269854   4.062   2.534   2.759 -1.1774  1.9215 -0.1941
16147TIP3   OH269855   3.906   1.999   1.485  0.4994  0.0581 -0.0161
16147TIP3    H169856   3.997   2.024   1.496 -0.1927  3.7514 -1.2058
16147TIP3    H269857   3.908   1.930   1.418  2.4020  0.0235  0.0251
16148TIP3   OH269858   1.330   6.163  13.453 -0.0433 -0.0457  0.1410
16148TIP3    H169859   1.400   6.167  13.388 -0.9727  0.8646 -0.8529
16148TIP3    H269860   1.272   6.093  13.422  0.2501 -0.5796  0.7822
16149TIP3   OH269861   0.715   5.233  13.468 -0.2482  0.3977 -0.3195
16149TIP3    H169862   0.664   5.154  13.486 -2.1868  1.7665  0.6821
16149TIP3    H269863   0.801   5.201  13.441 -0.9308 -2.0251  0.1027
16150TIP3   OH269864   4.259   3.072   4.130  0.0825  0.2874  0.3861
16150TIP3    H169865   4.171   3.038   4.145  0.3663 -0.0599  1.3515
16150TIP3    H269866   4.252   3.165   4.148  0.6285 -0.2495  4.0175
16151TIP3   OH269867   4.581   6.175  15.509  0.2272  0.3511  0.6896
16151TIP3    H169868   4.564   6.192  15.416  0.7261  0.1548  0.5626
16151TIP3    H269869   4.550   6.254  15.553 -1.0962 -0.0211  0.4796
16152TIP3   OH269870   0.723   4.392  10.577  0.1537  0.0540 -0.0331
16152TIP3    H169871   0.763   4.312  10.542  1.7884  0.6018  0.4998
16152TIP3    H269872   0.679   4.431  10.502  1.2926 -0.1804 -0.8612
16153TIP3   OH269873   3.621   6.298  11.274  0.2690  0.3584 -0.1827
16153TIP3    H169874   3.580   6.315  11.359 -0.4283  1.8653 -0.7743
16153TIP3    H269875   3.668   6.379  11.254  1.2955 -0.3641 -0.7634
16154TIP3   OH269876   4.531   2.508  11.787  0.3634 -0.6697 -0.0369
16154TIP3    H169877   4.482   2.536  11.709  0.1925  0.1525  0.3551
16154TIP3    H269878   4.612   2.559  11.784 -0.2693  0.4519  1.0764
16155TIP3   OH269879   1.624   6.056  12.608 -0.3884  0.2317  0.3768
16155TIP3    H169880   1.560   6.010  12.661 -2.5489  1.1539 -1.2760
16155TIP3    H269881   1.630   6.005  12.527  0.0917  0.7759  0.0570
16156TIP3   OH269882   4.675   2.647  15.677  0.1391 -0.0787 -0.2725
16156TIP3    H169883   4.745   2.629  15.614  1.1777  0.1845  0.7593
16156TIP3    H269884   4.720   2.690  15.750 -1.6579  3.8025 -1.2036
16157TIP3   OH269885   4.398   1.283  11.954  0.0953  0.2929  0.0484
16157TIP3    H169886   4.483   1.245  11.977 -0.0717  0.7621  1.4936
16157TIP3    H269887   4.338   1.252  12.021 -0.5348  1.2519 -0.0484
16158TIP3   OH269888   6.592   3.640  12.207  0.1391 -0.1392  0.1373
16158TIP3    H169889   6.588   3.564  12.266  1.8248 -1.3121 -1.1692
16158TIP3    H269890   6.537   3.615  12.132  1.0284 -0.2728 -0.4856
16159TIP3   OH269891   0.701   4.784  12.348  0.6016  1.1602  0.5241
16159TIP3    H169892   0.740   4.864  12.312 -1.2346  1.1681 -1.7183
16159TIP3    H269893   0.607   4.799  12.342  0.2221 -0.5434  1.6409
16160TIP3   OH269894   3.430   3.625  10.788  0.5997  0.4861 -0.4074
16160TIP3    H169895   3.441   3.680  10.867  0.9649  1.1085 -0.8812
16160TIP3    H269896   3.511   3.638  10.739  0.6088 -0.3434 -0.6251
16161TIP3   OH269897   4.241   3.203   1.909  0.3425 -0.4907 -0.0386
16161TIP3    H169898   4.277   3.246   1.831  1.4566 -0.4253  0.4957
16161TIP3    H269899   4.151   3.183   1.885  0.4444  0.1905 -1.0848
16162TIP3   OH269900   5.649   3.962  15.060  0.5809 -0.2512  0.5541
16162TIP3    H169901   5.566   3.980  15.016  0.4512  0.3902  1.0422
16162TIP3    H269902   5.658   3.867  15.055 -0.4731 -0.3942  0.9912
16163TIP3   OH269903   1.292   1.965   4.031 -0.3645 -0.0098 -0.2579
16163TIP3    H169904   1.344   1.886   4.044  0.1044  0.1923 -0.8626
16163TIP3    H269905   1.274   1.967   3.937 -0.6372  0.4408 -0.2006
16164TIP3   OH269906   3.833   2.798   3.516  0.5980  0.8474  0.3073
16164TIP3    H169907   3.803   2.719   3.471 -1.6129  2.2929 -0.9670
16164TIP3    H269908   3.784   2.800   3.598  0.5558  0.9367  0.2808
16165TIP3   OH269909   5.788   6.710   5.440 -0.6231 -0.0793 -0.2583
16165TIP3    H169910   5.864   6.690   5.385  0.9160  2.6286  0.6647
16165TIP3    H269911   5.811   6.675   5.526 -2.5341 -3.3027 -0.9149
16166TIP3   OH269912   6.306   5.500  11.500 -0.8183  0.2642  0.6380
16166TIP3    H169913   6.298   5.563  11.428  0.3803 -1.0791 -0.7476
16166TIP3    H269914   6.392   5.520  11.539 -0.0948 -0.9202 -0.2796
16167TIP3   OH269915   4.579   1.652   0.886  0.5028 -0.0798 -0.3397
16167TIP3    H169916   4.555   1.588   0.819  1.6391 -1.3929  0.4623
16167TIP3    H269917   4.649   1.610   0.936  1.3190  1.8177  0.2017
16168TIP3   OH269918   3.114   6.568  14.287 -0.3969 -0.5798  0.4510
16168TIP3    H169919   3.195   6.619  14.283 -1.7780  1.7865  0.4001
16168TIP3    H269920   3.106   6.529  14.200 -0.6764  1.5383 -0.5382
16169TIP3   OH269921   2.059   1.671  11.963  0.2032 -0.3171  0.2989
16169TIP3    H169922   2.046   1.757  12.003  0.5198 -0.9422  1.7821
16169TIP3    H269923   2.105   1.689  11.881 -0.6859  1.0084  0.0694
16170TIP3   OH269924   1.520   3.420   0.117  0.1720 -0.2845  0.3603
16170TIP3    H169925   1.576   3.393   0.044  1.0278  1.6258  0.2516
16170TIP3    H269926   1.431   3.411   0.082  0.5838  1.5559 -1.3536
16171TIP3   OH269927   0.819   4.369  12.402 -0.1253 -0.0396 -0.1912
16171TIP3    H169928   0.898   4.315  12.405  0.1902  0.3947 -0.4786
16171TIP3    H269929   0.849   4.453  12.365 -0.7480  0.0846 -0.4268
16172TIP3   OH269930   1.895   5.346   3.876  0.0156  0.3031  0.0294
16172TIP3    H169931   1.957   5.378   3.810  1.2954  0.5041  1.2858
16172TIP3    H269932   1.814   5.393   3.857  1.2961  2.9350  0.6271
16173TIP3   OH269933   0.740   2.407  13.976 -0.1148  0.1638 -0.0189
16173TIP3    H169934   0.707   2.473  13.915 -0.6202 -0.5902 -0.5618
16173TIP3    H269935   0.835   2.412  13.967 -0.2030 -1.0098 -2.0262
16174TIP3   OH269936   0.804   6.246   0.199  0.2683 -0.1780  0.0801
16174TIP3    H169937   0.875   6.191   0.167 -0.3019 -0.4644 -0.7128
16174TIP3    H269938   0.847   6.330   0.220  0.7169 -0.0840 -1.1292
16175TIP3   OH269939   6.341   4.520   3.091  0.0253 -0.5419  0.0811
16175TIP3    H169940   6.296   4.460   3.151  0.3093  0.1598  1.0355
16175TIP3    H269941   6.279   4.592   3.078  0.1864 -0.4182 -0.0092
16176TIP3   OH269942   0.570   6.204  13.581  0.0308  0.2465  0.2925
16176TIP3    H169943   0.665   6.209  13.576 -0.0235  0.6065 -3.8628
16176TIP3    H269944   0.547   6.133  13.521 -2.3663  1.2134 -0.0417
16177TIP3   OH269945   6.170   0.050   3.693  0.2616  0.8629  0.3412
16177TIP3    H169946   6.090   0.021   3.648 -0.3272 -1.2059  2.5401
16177TIP3    H269947   6.241   0.016   3.638 -0.2967  2.3009 -1.3796
16178TIP3   OH269948   2.242   3.556   4.669 -0.1110 -0.1476  0.1646
16178TIP3    H169949   2.200   3.482   4.626 -2.9075  0.6150  1.3743
16178TIP3    H269950   2.242   3.626   4.603  0.6540 -0.5709 -0.3039
16179TIP3   OH269951   2.935   2.554   1.946  0.5185 -0.5698 -0.0912
16179TIP3    H169952   2.847   2.530   1.974  0.1034  2.2719  1.4982
16179TIP3    H269953   2.929   2.648   1.928  3.1537 -0.3528 -0.2019
16180TIP3   OH269954   3.411   4.670  13.866  0.0140  0.0072 -0.3574
16180TIP3    H169955   3.459   4.750  13.844  0.8500 -1.3505 -4.3053
16180TIP3    H269956   3.479   4.605  13.881 -0.5610 -1.0034 -1.9310
16181TIP3   OH269957   1.148   1.570   3.967 -0.0540  0.0269 -0.7290
16181TIP3    H169958   1.195   1.517   3.903 -1.1845  0.5020 -1.9937
16181TIP3    H269959   1.074   1.606   3.919 -2.4233 -1.5862  1.4085
16182TIP3   OH269960   0.137   1.955  11.042  0.3902  0.2291  0.0111
16182TIP3    H169961   0.095   1.894  10.982 -0.8797  1.2666 -0.1895
16182TIP3    H269962   0.214   1.986  10.994  0.1641 -0.0006 -0.5071
16183TIP3   OH269963   5.058   2.562  15.206 -0.0261  0.2850  0.2413
16183TIP3    H169964   4.967   2.576  15.179 -1.3957 -0.4822  3.7954
16183TIP3    H269965   5.073   2.468  15.191 -0.4489  0.0630  1.1180
16184TIP3   OH269966   5.786   5.384  12.699  0.2580 -0.0996  0.2197
16184TIP3    H169967   5.705   5.337  12.720 -0.6140  0.8429 -0.8930
16184TIP3    H269968   5.828   5.399  12.784 -0.5087 -1.0064  0.7734
16185TIP3   OH269969   1.991   3.915   5.151 -0.1311 -0.4579  0.1021
16185TIP3    H169970   2.004   3.998   5.196 -0.5383 -0.0230 -0.5690
16185TIP3    H269971   1.938   3.937   5.074  0.5102 -1.1849 -0.5745
16186TIP3   OH269972   0.672   4.270   6.215 -0.2133  0.0579 -0.2357
16186TIP3    H169973   0.671   4.211   6.140 -1.5830  2.2994 -2.1176
16186TIP3    H269974   0.736   4.338   6.192 -0.0498  0.3512  1.0070
16187TIP3   OH269975   2.935   2.251   0.534  0.4760  0.1667  0.1563
16187TIP3    H169976   2.938   2.340   0.498 -1.8060 -0.0732 -0.7943
16187TIP3    H269977   2.849   2.244   0.574  1.4304 -0.9485  2.1760
16188TIP3   OH269978   6.386   6.257  11.760  0.4594 -0.3321 -0.8064
16188TIP3    H169979   6.458   6.278  11.701  1.7993  1.5440  1.3169
16188TIP3    H269980   6.422   6.190  11.818  0.3598  0.2597 -0.0455
16189TIP3   OH269981   5.175   0.015  15.126  0.3254  0.3058  0.1570
16189TIP3    H169982   5.232   0.051  15.195 -0.3193  1.0938  0.2835
16189TIP3    H269983   5.095  -0.009  15.171  0.6672 -1.1688  0.0464
16190TIP3   OH269984   4.851   6.704  14.281  0.1490  0.0664 -0.6991
16190TIP3    H169985   4.767   6.745  14.259  0.2150 -0.0099 -1.1004
16190TIP3    H269986   4.833   6.610  14.277  0.7828 -0.0033 -2.9719
16191TIP3   OH269987   1.791   4.028  11.796 -0.0759  0.3854  0.5234
16191TIP3    H169988   1.698   4.008  11.799 -0.0320  0.1906  0.6013
16191TIP3    H269989   1.803   4.099  11.860 -0.0994  0.1212  0.8199
16192TIP3   OH269990   5.604   5.185  14.404  0.2397 -0.4585 -0.0356
16192TIP3    H169991   5.579   5.224  14.320  1.6021 -1.5603 -0.9947
16192TIP3    H269992   5.680   5.236  14.431  0.5990 -0.9503 -0.1244
16193TIP3   OH269993   6.685   6.001  15.296 -0.5477 -0.3621 -0.0870
16193TIP3    H169994   6.731   5.979  15.377 -0.6319 -2.1093 -0.4691
16193TIP3    H269995   6.745   6.059  15.249 -0.2434  0.1782  0.9423
16194TIP3   OH269996   3.201   5.301  11.367 -0.2800  0.4735 -0.2380
16194TIP3    H169997   3.235   5.214  11.346 -0.1677  0.0992  1.3924
16194TIP3    H269998   3.203   5.348  11.283  2.7199 -0.0593 -0.5751
16195TIP3   OH269999   5.400   1.094  15.062  0.0965  0.6328  0.3263
16195TIP3    H170000   5.471   1.158  15.059  0.5364  0.2179  1.6637
16195TIP3    H270001   5.416   1.038  14.986 -0.3063  2.0668 -0.8942
16196TIP3   OH270002   2.324   1.557  15.040  0.0427 -0.4225  0.1028
16196TIP3    H170003   2.418   1.542  15.044 -0.0716 -0.8240  1.7662
16196TIP3    H270004   2.294   1.503  14.967  1.0755 -0.3678 -0.3799
16197TIP3   OH270005   0.895   5.876  13.360 -0.8033 -0.4929  0.1844
16197TIP3    H170006   0.891   5.780  13.350 -1.1652 -0.5544  0.8694
16197TIP3    H270007   0.853   5.910  13.281 -1.0564 -0.9009  0.1394
16198TIP3   OH270008   3.055   4.536   4.419 -0.3648 -0.5036 -0.3216
16198TIP3    H170009   3.049   4.565   4.327  1.7531 -0.0986 -0.3888
16198TIP3    H270010   3.147   4.511   4.430 -0.2329  0.7517  2.0591
16199TIP3   OH270011   0.058   4.604   5.848 -0.5262 -0.6233  0.4460
16199TIP3    H170012   0.065   4.572   5.938  1.0669 -0.8251  0.2711
16199TIP3    H270013   0.061   4.699   5.857  2.0850 -0.6433  0.4906
16200TIP3   OH270014   5.756   1.732   4.399  0.1430  0.1742 -0.3515
16200TIP3    H170015   5.708   1.709   4.320  0.0721 -2.1251  0.2962
16200TIP3    H270016   5.732   1.665   4.463  1.2027  1.2090  1.2210
16201TIP3   OH270017   5.416   2.206  15.936 -0.2745  0.1530 -0.2093
16201TIP3    H170018   5.508   2.222  15.913 -0.0712 -0.4867  0.1395
16201TIP3    H270019   5.409   2.111  15.939 -0.5382  0.1956  1.4002
16202TIP3   OH270020   4.938   0.637   2.310 -0.4632 -0.3075 -0.0772
16202TIP3    H170021   4.922   0.729   2.330 -0.0994  0.5157 -3.0561
16202TIP3    H270022   5.034   0.631   2.304 -0.4744 -0.9575  0.3484
16203TIP3   OH270023   3.831   6.716   5.902  0.0896  0.3955  0.2315
16203TIP3    H170024   3.786   6.746   5.981  0.2812  1.2972  0.0112
16203TIP3    H270025   3.806   6.780   5.835  1.4912  0.7743  0.0465
16204TIP3   OH270026   4.447   2.507  12.485 -0.2689 -0.1003  0.0182
16204TIP3    H170027   4.384   2.576  12.465  0.4129  0.5227 -0.0388
16204TIP3    H270028   4.397   2.442  12.535 -0.4146  1.4817  2.0463
16205TIP3   OH270029   6.693   1.422   4.421  0.2424  0.1493  0.1556
16205TIP3    H170030   6.660   1.355   4.362 -0.6451  0.7425 -0.0394
16205TIP3    H270031   6.693   1.381   4.507 -1.3396  0.2288  0.2135
16206TIP3   OH270032   1.912   3.688   6.161 -0.1966  0.4171 -0.0813
16206TIP3    H170033   1.874   3.629   6.226  0.0060  1.7199  1.2807
16206TIP3    H270034   1.896   3.776   6.197  1.2963  1.1176 -1.0325
16207TIP3   OH270035   6.003   1.239  12.113  0.5441  0.4208  0.6685
16207TIP3    H170036   6.055   1.313  12.080 -0.3706  0.5149 -0.6247
16207TIP3    H270037   6.064   1.165  12.112  0.2750  0.1317 -2.4770
16208TIP3   OH270038   4.485   5.848  11.382  0.2290  0.2643 -0.4959
16208TIP3    H170039   4.437   5.865  11.300 -1.0119 -1.1465 -0.1114
16208TIP3    H270040   4.497   5.753  11.383  4.0435  0.5892 -1.0705
16209TIP3   OH270041   1.850   2.450  11.744  0.6744  0.2024 -0.1267
16209TIP3    H170042   1.793   2.494  11.807 -0.8390  1.7350 -2.4030
16209TIP3    H270043   1.837   2.357  11.761  0.1911  0.5614  1.6640
16210TIP3   OH270044   1.168   1.456   4.431 -0.4274  0.4306 -0.5238
16210TIP3    H170045   1.239   1.405   4.393  0.8985  1.9624 -0.2482
16210TIP3    H270046   1.099   1.392   4.449  1.6539 -1.5300  1.1148
16211TIP3   OH270047   3.525   0.754  12.557 -0.2253  0.1748  0.1444
16211TIP3    H170048   3.510   0.835  12.605 -0.1627  0.7504 -0.7834
16211TIP3    H270049   3.569   0.697  12.620  1.3034  1.4676  0.2996
16212TIP3   OH270050   1.608   6.572   4.955  0.0395  1.0820  0.1752
16212TIP3    H170051   1.575   6.489   4.921 -0.8627  1.0013  1.1729
16212TIP3    H270052   1.694   6.550   4.992 -0.3823  0.4782  0.8318
16213TIP3   OH270053   4.049   4.600  13.331  0.1007 -0.4006 -0.6591
16213TIP3    H170054   4.081   4.613  13.242 -0.9056 -0.4316 -1.0366
16213TIP3    H270055   4.058   4.686  13.373  1.5515 -0.6386 -0.4537
16214TIP3   OH270056   0.528   3.358  11.755  0.0524  0.6509 -0.0630
16214TIP3    H170057   0.541   3.265  11.768 -0.6747  0.7679  1.6983
16214TIP3    H270058   0.613   3.391  11.728  0.7104 -0.2790  0.8186
16215TIP3   OH270059   0.486   4.559  16.321  0.5848 -0.1584  0.2737
16215TIP3    H170060   0.570   4.517  16.337 -0.4785 -1.9450  1.5707
16215TIP3    H270061   0.422   4.489  16.334 -1.0545  0.8205 -1.9340
16216TIP3   OH270062   3.673   1.345   0.442 -0.3610 -0.6084  0.0402
16216TIP3    H170063   3.697   1.353   0.535 -0.5895  0.0082  0.0492
16216TIP3    H270064   3.690   1.253   0.421  0.0818 -0.6547  0.5840
16217TIP3   OH270065   2.305   3.666   0.540 -0.1949 -0.1946 -0.5308
16217TIP3    H170066   2.267   3.734   0.596 -0.2206 -1.2053  0.7311
16217TIP3    H270067   2.399   3.669   0.559 -0.2185 -0.6131 -0.3351
16218TIP3   OH270068   6.690   3.424   3.340 -0.5394  0.0724  0.4966
16218TIP3    H170069   6.673   3.499   3.283  0.6707  0.2530  0.3339
16218TIP3    H270070   6.608   3.410   3.387 -1.2071  0.6228 -0.4780
16219TIP3   OH270071   1.705   3.850  15.200  0.0711  0.2915  0.3945
16219TIP3    H170072   1.749   3.895  15.129  0.0758 -1.4267 -0.7609
16219TIP3    H270073   1.775   3.817  15.256  0.2354 -0.8904 -0.4614
16220TIP3   OH270074   0.777   3.716   1.954 -0.3343  0.0304  0.1048
16220TIP3    H170075   0.851   3.689   2.007  1.3961  3.3742 -0.3107
16220TIP3    H270076   0.709   3.739   2.018 -0.5239 -1.6488  0.5457
16221TIP3   OH270077   6.466   6.158  15.194 -0.1327  0.4079  0.2503
16221TIP3    H170078   6.490   6.244  15.158 -0.4761  0.5141  0.2699
16221TIP3    H270079   6.544   6.105  15.183  0.2375  0.8549  0.6421
16222TIP3   OH270080   1.877   3.290   4.627  0.0589  0.2011 -0.4136
16222TIP3    H170081   1.905   3.328   4.544  1.1238 -0.9881 -0.6265
16222TIP3    H270082   1.868   3.197   4.609  0.9870 -0.1854  0.9706
16223TIP3   OH270083   1.242   1.742  11.259 -0.6422 -0.1389  0.3354
16223TIP3    H170084   1.268   1.707  11.174 -0.9761  2.8094 -1.0917
16223TIP3    H270085   1.324   1.761  11.304 -0.3988  0.6275 -0.4060
16224TIP3   OH270086   4.494   2.455  15.625 -0.1669 -0.0527  0.1413
16224TIP3    H170087   4.550   2.381  15.601 -0.9598 -0.3401 -0.8694
16224TIP3    H270088   4.551   2.512  15.677  0.0162 -2.2111  2.5704
16225TIP3   OH270089   4.145   0.074  15.909 -0.3179 -0.3488 -0.1196
16225TIP3    H170090   4.077   0.040  15.851  0.0624 -1.0720 -0.1506
16225TIP3    H270091   4.125   0.167  15.916 -0.2012 -0.1753 -1.6510
16226TIP3   OH270092   2.106   4.923   3.982  0.4979  0.8324  0.3435
16226TIP3    H170093   2.025   4.974   3.975  0.7522  1.1595 -0.2119
16226TIP3    H270094   2.152   4.961   4.056 -0.8519 -0.7625  2.1049
16227TIP3   OH270095   6.345   6.208   0.947 -0.3799  0.3819  0.0997
16227TIP3    H170096   6.435   6.197   0.916 -0.4500 -1.3295  0.3870
16227TIP3    H270097   6.293   6.222   0.867  0.1067  1.2566 -0.0741
16228TIP3   OH270098   2.741   6.340  16.648  0.6279  0.3189  0.2993
16228TIP3    H170099   2.675   6.397  16.610  0.4685  0.4148  0.7191
16228TIP3    H270100   2.779   6.390  16.720 -0.2583 -0.4842  1.3649
16229TIP3   OH270101   1.284   1.436   0.489  0.6547 -0.5907  0.0572
16229TIP3    H170102   1.247   1.352   0.515  1.2608 -0.8223  0.1864
16229TIP3    H270103   1.234   1.501   0.538  1.5307 -1.0008  1.5510
16230TIP3   OH270104   1.097   0.792  11.077  0.2603  0.0507  0.1776
16230TIP3    H170105   1.042   0.774  11.153 -0.6811 -0.7481 -0.6577
16230TIP3    H270106   1.056   0.868  11.036 -0.5309 -0.8066 -0.6865
16231TIP3   OH270107   1.813   5.648   1.334  0.4055 -0.3896  0.6163
16231TIP3    H170108   1.904   5.620   1.324  0.6312 -0.7335  3.0689
16231TIP3    H270109   1.782   5.604   1.414 -2.2183 -0.9873 -0.5957
16232TIP3   OH270110   0.319   6.535   5.075 -0.1147 -0.4047  0.1653
16232TIP3    H170111   0.322   6.552   4.980 -0.6439  0.0446  0.2229
16232TIP3    H270112   0.353   6.616   5.114 -0.3399 -0.4077  0.3688
16233TIP3   OH270113   2.590   5.068   1.448  0.3825 -0.8148  0.5562
16233TIP3    H170114   2.535   5.109   1.514 -0.8450 -0.6824 -0.5193
16233TIP3    H270115   2.677   5.105   1.463 -0.3810  1.0645  0.5346
16234TIP3   OH270116   1.500   3.669   2.966 -0.0054 -0.0090  0.1289
16234TIP3    H170117   1.467   3.730   3.032 -1.2167 -0.5370  0.0383
16234TIP3    H270118   1.429   3.661   2.902  1.1274  0.4593 -1.2424
16235TIP3   OH270119   3.087   4.093  12.506  0.3842  0.3702 -0.6301
16235TIP3    H170120   3.124   4.132  12.427  0.5135 -0.0920 -0.7991
16235TIP3    H270121   3.125   4.006  12.510 -0.0049  0.2109 -0.3228
16236TIP3   OH270122   3.164   6.248  10.521  0.1374  0.2626  0.2158
16236TIP3    H170123   3.174   6.163  10.564  0.0135 -0.7564 -1.6712
16236TIP3    H270124   3.238   6.254  10.461 -0.1651  1.2391 -0.0822
16237TIP3   OH270125   4.857   4.877  12.263 -0.4947 -0.1101 -0.4041
16237TIP3    H170126   4.919   4.902  12.195 -0.5459  1.7409  0.1575
16237TIP3    H270127   4.786   4.833  12.217 -0.7136  1.4418 -1.6195
16238TIP3   OH270128   2.999   6.546   4.006 -0.0129  0.2229  0.5823
16238TIP3    H170129   2.920   6.591   4.037 -0.0936  1.1763 -0.8778
16238TIP3    H270130   2.966   6.471   3.956  0.1179 -1.4035  2.8242
16239TIP3   OH270131   1.153   5.820   3.412  0.2695 -0.0493 -0.6385
16239TIP3    H170132   1.113   5.887   3.355  2.1436  1.6282 -0.0936
16239TIP3    H270133   1.215   5.775   3.356 -2.1838 -2.6780 -1.4906
16240TIP3   OH270134   5.721   4.079   5.825  0.3385 -0.3885 -0.0521
16240TIP3    H170135   5.719   3.988   5.855 -1.8094 -0.4329 -0.1620
16240TIP3    H270136   5.699   4.131   5.902  0.1530 -0.0747 -0.3134
16241TIP3   OH270137   4.735   1.901  12.067 -0.3274 -0.1044 -0.5958
16241TIP3    H170138   4.729   1.806  12.065 -1.2103 -0.0536 -0.6174
16241TIP3    H270139   4.795   1.923  11.995  0.7209 -0.6931  0.0716
16242TIP3   OH270140   5.452   0.349   0.789 -0.5890  0.4111  0.4443
16242TIP3    H170141   5.361   0.326   0.807 -0.8508  1.1500  0.0982
16242TIP3    H270142   5.499   0.267   0.797 -1.5088 -0.2753 -0.8375
16243TIP3   OH270143   0.648   0.692   5.302  0.3292 -0.1210 -0.0632
16243TIP3    H170144   0.574   0.725   5.252  1.1539  1.3365 -0.3588
16243TIP3    H270145   0.659   0.756   5.373 -0.1240 -1.5550  1.3782
16244TIP3   OH270146   5.325   4.716   0.529  0.1285  0.3614 -0.0807
16244TIP3    H170147   5.340   4.707   0.623  0.0081 -0.6589 -0.1480
16244TIP3    H270148   5.397   4.772   0.499  1.7553 -1.4607  0.2131
16245TIP3   OH270149   0.138   5.635   1.936 -0.3729 -0.5564  0.4401
16245TIP3    H170150   0.155   5.554   1.889 -1.7544 -0.4094 -0.3915
16245TIP3    H270151   0.208   5.695   1.907 -1.5779 -0.2479 -2.0773
16246TIP3   OH270152   3.772   1.121   0.336 -0.3476  0.2823  0.2702
16246TIP3    H170153   3.839   1.119   0.267 -0.9213  2.0417 -0.3820
16246TIP3    H270154   3.734   1.033   0.335 -0.1236  0.1723 -1.4428
16247TIP3   OH270155   4.963   0.172  13.542  0.3918  0.1325 -0.6106
16247TIP3    H170156   4.916   0.252  13.518  1.3001  0.4669 -1.2979
16247TIP3    H270157   4.992   0.135  13.459 -0.2161 -1.0522 -0.3187
16248TIP3   OH270158   2.277   1.007   2.690 -0.0935 -0.2412 -0.2833
16248TIP3    H170159   2.236   1.005   2.604  0.3198  0.3793 -0.5064
16248TIP3    H270160   2.221   0.953   2.745 -1.4454  0.8955 -0.4775
16249TIP3   OH270161   0.707   3.710  14.610 -0.4635  0.5819  0.1512
16249TIP3    H170162   0.740   3.620  14.607  2.1973  1.4580 -0.2516
16249TIP3    H270163   0.672   3.726  14.522 -0.5368  0.0807  0.0872
16250TIP3   OH270164   1.072   0.796   3.041  0.1292 -0.8211 -0.3590
16250TIP3    H170165   1.046   0.726   2.981  2.2457 -0.6203 -1.6010
16250TIP3    H270166   1.137   0.757   3.098 -0.2528 -0.4107  0.3698
16251TIP3   OH270167   4.660   0.941   4.112  1.0798  0.1319  0.4143
16251TIP3    H170168   4.653   0.955   4.017  1.4433 -1.8879  0.0302
16251TIP3    H270169   4.720   1.009   4.142  0.1791  1.4351 -0.6254
16252TIP3   OH270170   0.998   6.432  16.889 -0.0910 -0.4656  0.1437
16252TIP3    H170171   1.030   6.373  16.957  1.7953 -0.2660 -0.5194
16252TIP3    H270172   0.917   6.392  16.858 -0.1600 -1.3606  1.4364
16253TIP3   OH270173   5.214   2.110  11.254 -0.2965 -0.5728  0.2488
16253TIP3    H170174   5.138   2.121  11.197 -0.4591  0.6057  0.6706
16253TIP3    H270175   5.288   2.097  11.194 -0.7544 -1.3194 -0.1712
16254TIP3   OH270176   0.957   5.667  13.712  0.4139 -0.1853  0.4571
16254TIP3    H170177   0.968   5.668  13.617  0.6903 -0.2720  0.4881
16254TIP3    H270178   0.870   5.704  13.727  0.6690  0.5259  0.2138
16255TIP3   OH270179   0.859   4.421   3.697 -0.6210 -0.2967 -0.7490
16255TIP3    H170180   0.837   4.339   3.742  0.6230  0.9893  2.4690
16255TIP3    H270181   0.777   4.472   3.699 -0.4800 -0.0814  0.5775
16256TIP3   OH270182   4.579   1.834   2.666 -0.4595 -0.4105  0.0118
16256TIP3    H170183   4.612   1.860   2.581  0.9012 -0.1129  0.6070
16256TIP3    H270184   4.563   1.916   2.713  5.3468 -0.2283  2.4721
16257TIP3   OH270185   1.000   1.166  15.547  0.8083  0.3031  0.9114
16257TIP3    H170186   1.013   1.082  15.503  0.9613  0.2992  0.9631
16257TIP3    H270187   0.908   1.166  15.573  0.5470  0.5846  0.0073
16258TIP3   OH270188   6.109   6.125   0.129  0.0601 -0.1359 -0.4943
16258TIP3    H170189   6.147   6.207   0.097  0.0283  0.5201  1.0286
16258TIP3    H270190   6.045   6.101   0.062 -1.4266  2.2222 -0.0745
16259TIP3   OH270191   4.683   5.887   1.489 -0.8762 -0.0099 -1.1505
16259TIP3    H170192   4.728   5.918   1.410 -0.1121  0.6873 -0.4651
16259TIP3    H270193   4.725   5.804   1.509 -0.5957  0.1421 -1.0988
16260TIP3   OH270194   1.961   3.586   2.948 -0.4134 -0.1665  0.4633
16260TIP3    H170195   1.877   3.542   2.950  0.9039 -2.8577  0.5599
16260TIP3    H270196   2.025   3.518   2.970  2.0184  1.1452 -1.9321
16261TIP3   OH270197   2.436   6.208   0.983 -0.0532  0.1427 -0.3491
16261TIP3    H170198   2.378   6.256   1.042 -1.2544 -2.2824  0.5829
16261TIP3    H270199   2.379   6.181   0.910  1.1067  1.9246 -2.0353
16262TIP3   OH270200   0.275   0.082  12.912  0.1572  0.1943 -0.6519
16262TIP3    H170201   0.356   0.038  12.935  0.3794  0.9471  0.0562
16262TIP3    H270202   0.246   0.126  12.992 -1.3424 -0.6369 -0.6988
16263TIP3   OH270203   2.090   4.404   1.770 -0.0155  0.5948  0.9519
16263TIP3    H170204   2.052   4.446   1.847 -0.1983  1.7209  0.2647
16263TIP3    H270205   2.107   4.476   1.709  0.4386 -0.2378  0.0745
16264TIP3   OH270206   0.678   1.487  17.025 -0.4958  0.2842 -0.4081
16264TIP3    H170207   0.669   1.416  16.961  0.3045  1.7265 -2.2070
16264TIP3    H270208   0.601   1.542  17.011  1.1325  2.2281 -2.3271
16265TIP3   OH270209   5.332   2.399   0.641  0.1789 -0.1324  0.2411
16265TIP3    H170210   5.347   2.468   0.706 -0.1321 -0.9548  1.2120
16265TIP3    H270211   5.407   2.406   0.581  1.0719 -0.0676  1.3321
16266TIP3   OH270212   0.889   4.014   1.865  0.2381  0.2846  0.0926
16266TIP3    H170213   0.822   4.075   1.833 -1.0814 -1.1293  0.0700
16266TIP3    H270214   0.884   3.939   1.805 -0.3809 -1.2300  1.9310
16267TIP3   OH270215   2.117   2.157  17.059  0.1044 -0.5286  0.0129
16267TIP3    H170216   2.081   2.233  17.012  0.2297  0.8399  2.0040
16267TIP3    H270217   2.098   2.175  17.151  3.8792 -0.7573  1.0254
16268TIP3   OH270218   6.262   0.826  13.478 -0.1363 -0.3110  0.7552
16268TIP3    H170219   6.222   0.848  13.393  2.0540  1.4172  0.0806
16268TIP3    H270220   6.257   0.730  13.482 -0.2444 -0.4436 -1.3737
16269TIP3   OH270221   1.053   5.407   1.763  0.4344 -0.1058 -0.0854
16269TIP3    H170222   1.017   5.424   1.850  0.3710 -0.4086 -0.0525
16269TIP3    H270223   1.108   5.330   1.774  1.1583  0.3890 -0.1209
16270TIP3   OH270224   4.894   2.324   5.638  0.4783  0.1155 -0.1478
16270TIP3    H170225   4.964   2.283   5.587  0.5360  0.8175 -0.6474
16270TIP3    H270226   4.816   2.273   5.618  0.5255  0.3179 -0.8635
16271TIP3   OH270227   5.020   2.910  17.025 -0.0074  0.4461 -0.3391
16271TIP3    H170228   5.084   2.864  17.079 -1.0845 -1.6768 -0.7376
16271TIP3    H270229   4.944   2.922  17.082 -0.6383 -0.5572 -0.9341
16272TIP3   OH270230   3.071   0.052   3.981 -0.2195  0.3042  0.6592
16272TIP3    H170231   3.001   0.076   3.919  1.5288  2.2823 -0.7000
16272TIP3    H270232   3.056  -0.041   3.998 -2.1778  0.2379 -0.8972
16273TIP3   OH270233   3.285   1.321   3.059 -0.1003  0.3005 -0.0528
16273TIP3    H170234   3.262   1.248   3.002 -0.0871  1.6776 -1.9122
16273TIP3    H270235   3.381   1.319   3.064 -0.0284  0.8069 -1.0074
16274TIP3   OH270236   5.684   0.829  14.277 -0.3365  0.0270 -0.5916
16274TIP3    H170237   5.618   0.793  14.217 -0.7462  1.0793 -0.7846
16274TIP3    H270238   5.637   0.893  14.330  0.0560 -0.7761  0.7718
16275TIP3   OH270239   4.177   2.817  10.397 -0.1031  0.6492 -0.5207
16275TIP3    H170240   4.240   2.887  10.413  0.3440  0.4792 -1.4270
16275TIP3    H270241   4.097   2.844  10.442  0.9922  0.2381  1.7790
16276TIP3   OH270242   2.647   3.031   0.305  0.1417 -0.2312  0.1425
16276TIP3    H170243   2.552   3.023   0.298  0.1685  0.2769 -1.2289
16276TIP3    H270244   2.662   3.125   0.321  0.4436 -0.0585 -1.0551
16277TIP3   OH270245   4.972   0.405  12.735 -0.5132 -0.2096 -0.4579
16277TIP3    H170246   4.897   0.429  12.681  0.0727  1.1260 -0.7186
16277TIP3    H270247   5.043   0.461  12.705  0.9159 -2.1624 -0.9313
16278TIP3   OH270248   3.397   4.526  15.118 -0.7064 -0.5687  0.2153
16278TIP3    H170249   3.413   4.513  15.024  1.2215 -0.2868  0.4565
16278TIP3    H270250   3.360   4.614  15.123  0.0668 -0.1963 -0.2389
16279TIP3   OH270251   3.209   1.649   4.007  0.0592 -0.1103  0.3660
16279TIP3    H170252   3.131   1.695   4.038 -0.0864  0.6070 -1.0157
16279TIP3    H270253   3.244   1.703   3.936  1.1115 -1.0460  0.1275
16280TIP3   OH270254   2.399   2.843  15.535 -0.2658 -0.0215  0.4981
16280TIP3    H170255   2.305   2.843  15.518 -0.1757  0.0406 -0.0098
16280TIP3    H270256   2.417   2.931  15.570 -0.0300  0.8047 -1.5565
16281TIP3   OH270257   6.009   2.300   0.213 -0.0429  0.7270 -0.2007
16281TIP3    H170258   5.924   2.260   0.234  0.3749 -1.3735 -2.1573
16281TIP3    H270259   6.044   2.326   0.298 -0.8838 -2.0980  1.1379
16282TIP3   OH270260   3.467   5.189   1.379  0.2743  0.3046  0.3676
16282TIP3    H170261   3.554   5.182   1.417  0.3686  1.2638  0.3608
16282TIP3    H270262   3.479   5.169   1.286  0.5479  0.7433  0.3071
16283TIP3   OH270263   5.282   2.919  11.040  0.3369  0.1264 -0.2084
16283TIP3    H170264   5.274   2.926  10.945 -0.5683  1.4791 -0.0625
16283TIP3    H270265   5.261   3.006  11.073  2.3693  0.1671  1.1627
16284TIP3   OH270266   4.195   5.993   2.085  0.1147 -0.1315 -0.1688
16284TIP3    H170267   4.158   6.031   2.166  1.9380 -0.4311  0.8663
16284TIP3    H270268   4.288   5.979   2.106  0.8243  0.5190 -2.6010
16285TIP3   OH270269   4.898   5.642   0.514 -0.8226 -0.2664  0.3753
16285TIP3    H170270   4.955   5.572   0.482 -1.1655  0.4351 -1.9594
16285TIP3    H270271   4.957   5.715   0.533 -0.7411 -0.1416 -0.3148
16286TIP3   OH270272   5.942   2.639   4.888 -0.0347 -0.3814 -0.0493
16286TIP3    H170273   6.024   2.628   4.840  0.2634 -0.5328  0.4853
16286TIP3    H270274   5.969   2.659   4.978 -0.5601 -1.5995  0.4025
16287TIP3   OH270275   1.922   4.027   3.976  0.3484 -0.2565  0.3351
16287TIP3    H170276   1.857   4.054   4.042  1.5704 -0.1973  1.5562
16287TIP3    H270277   1.893   3.940   3.948 -0.0791 -0.3773  1.1204
16288TIP3   OH270278   5.025   6.537   3.119  0.3689 -0.1183  0.2149
16288TIP3    H170279   4.931   6.522   3.108  0.6434 -2.0048  0.0364
16288TIP3    H270280   5.052   6.473   3.184  0.5731  4.2650  5.0635
16289TIP3   OH270281   0.828   4.589  12.214  0.6019 -0.7334  0.2899
16289TIP3    H170282   0.762   4.630  12.270 -0.1228 -0.9280 -0.4081
16289TIP3    H270283   0.778   4.543  12.147  1.4413 -1.2275 -0.0177
16290TIP3   OH270284   5.208   3.411  13.632 -0.4733  0.1374  0.0224
16290TIP3    H170285   5.152   3.398  13.709  0.0056 -0.0706  0.3426
16290TIP3    H270286   5.170   3.487  13.587 -0.1464  0.9408  1.0485
16291TIP3   OH270287   3.804   3.584   1.161 -0.0150  0.4946  0.7679
16291TIP3    H170288   3.884   3.631   1.135  0.2679 -0.9223 -1.1914
16291TIP3    H270289   3.833   3.494   1.174 -1.3881 -0.2052 -0.7449
16292TIP3   OH270290   2.631   1.540  14.993 -0.3109  0.6060  0.2320
16292TIP3    H170291   2.616   1.602  14.923 -0.3137  1.2831  0.8199
16292TIP3    H270292   2.708   1.491  14.966  0.0687  1.2968  0.0559
16293TIP3   OH270293   0.316   2.167   0.547  0.2939 -0.3541 -0.4034
16293TIP3    H170294   0.317   2.169   0.451 -0.3747  0.1168 -0.4140
16293TIP3    H270295   0.307   2.259   0.572 -1.1756 -0.5952  0.0654
16294TIP3   OH270296   5.275   0.224  13.368 -0.2717 -0.0503  0.3405
16294TIP3    H170297   5.250   0.165  13.297 -0.4457  0.1694  0.2195
16294TIP3    H270298   5.317   0.167  13.433  0.5161 -0.1525 -0.2463
16295TIP3   OH270299   5.563   3.921  16.180  0.0905  0.4074 -0.0171
16295TIP3    H170300   5.492   3.888  16.125 -1.9267  1.0937  2.0131
16295TIP3    H270301   5.570   4.014  16.158  0.6176  0.2727 -0.4449
16296TIP3   OH270302   6.462   1.309  14.426 -0.3082 -0.1950 -0.2176
16296TIP3    H170303   6.479   1.403  14.421  1.6143 -0.4464  0.6433
16296TIP3    H270304   6.367   1.301  14.429 -0.5110  1.6912 -0.6983
16297TIP3   OH270305   1.076   6.709   3.928  0.5014  0.0347  0.1790
16297TIP3    H170306   1.165   6.677   3.943  0.4840  0.5481  1.5959
16297TIP3    H270307   1.069   6.787   3.983 -1.6736 -1.5061  2.3201
16298TIP3   OH270308   4.489   0.731   5.040  0.3656 -0.6498  0.3613
16298TIP3    H170309   4.415   0.710   5.097 -0.0978 -0.7235 -0.2636
16298TIP3    H270310   4.482   0.669   4.967  0.7349 -0.3144  0.0387
16299TIP3   OH270311   1.080   1.451  16.923  0.0116  0.2224  0.0240
16299TIP3    H170312   1.071   1.401  17.003  1.3293 -1.7486 -0.9786
16299TIP3    H270313   1.172   1.480  16.923 -0.0492  0.4434 -0.6355
16300TIP3   OH270314   5.020   4.272  12.133  0.7753  0.5649 -0.2869
16300TIP3    H170315   4.957   4.342  12.151  0.1955  0.4849 -1.8601
16300TIP3    H270316   5.100   4.300  12.179 -0.9033 -0.3986  3.5989
16301TIP3   OH270317   1.905   1.211   3.271  0.2322 -0.4043 -0.0725
16301TIP3    H170318   1.925   1.118   3.275  1.0443 -0.3038 -1.2824
16301TIP3    H270319   1.911   1.233   3.178  0.3889  0.9148  0.2282
16302TIP3   OH270320   6.675   1.270   0.814 -1.0603  0.5531  1.0652
16302TIP3    H170321   6.588   1.304   0.834 -1.2409  0.1970  0.8826
16302TIP3    H270322   6.733   1.313   0.878 -0.8393  3.3119 -0.7863
16303TIP3   OH270323   3.704   5.980   3.564 -0.1555  0.0701 -0.0944
16303TIP3    H170324   3.631   5.977   3.503  0.7532 -0.4530 -1.1976
16303TIP3    H270325   3.669   5.944   3.646 -0.1938 -4.0051 -1.6704
16304TIP3   OH270326   3.355   3.443  10.275 -0.2234  0.6619  0.2710
16304TIP3    H170327   3.357   3.503  10.350  0.8941  0.2161  0.6213
16304TIP3    H270328   3.306   3.367  10.308  2.0543 -0.4447  1.3151
16305TIP3   OH270329   3.946   1.168   5.230  0.4065 -0.7444  0.1767
16305TIP3    H170330   4.011   1.222   5.275 -0.1135  1.0099 -1.0439
16305TIP3    H270331   3.997   1.106   5.179  1.0152 -1.6606  1.8215
16306TIP3   OH270332   6.536   1.140  16.001 -0.8840  0.0067  0.4718
16306TIP3    H170333   6.602   1.091  16.051 -0.4059 -0.3733 -0.5079
16306TIP3    H270334   6.454   1.125  16.049 -0.8274 -2.0740  0.0095
16307TIP3   OH270335   5.945   3.473   1.243  0.1359 -0.4047  0.2000
16307TIP3    H170336   5.928   3.385   1.277  0.5817  0.1526  1.9948
16307TIP3    H270337   6.040   3.477   1.231 -0.1213 -1.1336 -2.8817
16308TIP3   OH270338   2.413   5.096   2.937  0.3428 -0.0919  0.0194
16308TIP3    H170339   2.358   5.124   3.010  0.7592  0.3559  0.1646
16308TIP3    H270340   2.383   5.148   2.863  0.2451 -0.2020 -0.0200
16309TIP3   OH270341   0.366   4.349   3.290 -0.0459 -0.3238 -0.0861
16309TIP3    H170342   0.342   4.303   3.370  0.2319 -2.2625 -1.0673
16309TIP3    H270343   0.306   4.315   3.224  0.9782 -0.1967 -1.1029
16310TIP3   OH270344   4.182   2.160  13.141  0.0901 -0.6470 -0.2670
16310TIP3    H170345   4.094   2.137  13.172 -0.7530  1.1892 -1.1147
16310TIP3    H270346   4.167   2.207  13.059  1.8799 -0.4511 -0.5182
16311TIP3   OH270347   5.092   0.768  15.621  0.1019 -0.4143 -0.1811
16311TIP3    H170348   5.080   0.739  15.530 -0.3390  0.0878 -0.2865
16311TIP3    H270349   5.186   0.788  15.627 -0.1092  0.8790 -0.9329
16312TIP3   OH270350   1.382   4.132  11.971 -0.0478  0.0538 -0.1823
16312TIP3    H170351   1.314   4.113  12.035  0.3300  1.3062  0.6194
16312TIP3    H270352   1.459   4.155  12.023 -0.1952  2.7483 -1.0067
16313TIP3   OH270353   1.450   6.775   3.786  0.8312 -0.0760  0.1194
16313TIP3    H170354   1.500   6.767   3.867 -1.6223 -3.5504  1.5032
16313TIP3    H270355   1.470   6.696   3.736 -0.3961  0.2796 -1.0183
16314TIP3   OH270356   5.261   0.070   0.742  0.1336 -0.0907 -0.4544
16314TIP3    H170357   5.260   0.024   0.659  1.8336 -0.7400 -0.1483
16314TIP3    H270358   5.242   0.003   0.808  0.7761  0.0017 -0.1645
16315TIP3   OH270359   3.462   4.457   3.062 -0.2382  0.3808  0.3118
16315TIP3    H170360   3.429   4.373   3.093  1.5690 -0.3976  0.2282
16315TIP3    H270361   3.479   4.442   2.968 -2.4160  1.6787 -0.3630
16316TIP3   OH270362   5.225   0.086   6.423  0.1272  0.1390 -0.2484
16316TIP3    H170363   5.234  -0.006   6.399  0.9016  0.5769 -1.7758
16316TIP3    H270364   5.280   0.097   6.500 -0.3932 -0.7800  0.2628
16317TIP3   OH270365   1.302   4.593  16.299 -0.0030  0.0316 -0.0893
16317TIP3    H170366   1.217   4.625  16.330  0.4734  1.8699 -0.5512
16317TIP3    H270367   1.351   4.673  16.278  1.7870 -0.9971  0.0113
16318TIP3   OH270368   0.241   1.739  13.923 -0.1076  0.7236  0.1218
16318TIP3    H170369   0.232   1.706  14.013  0.6876 -1.3882 -0.5240
16318TIP3    H270370   0.153   1.729  13.886 -0.2154  0.6952  0.3781
16319TIP3   OH270371   3.143   5.033  15.045 -0.2286 -0.3299 -0.2807
16319TIP3    H170372   3.074   4.985  14.999 -0.8031 -3.2605  3.1293
16319TIP3    H270373   3.103   5.056  15.129  1.5050  2.4086 -0.0902
16320TIP3   OH270374   1.938   6.559  15.105  0.0628  0.5014  0.3613
16320TIP3    H170375   1.939   6.468  15.134  0.0350  0.6017  0.6777
16320TIP3    H270376   2.003   6.563  15.036  0.5958  0.4049  0.8533
16321TIP3   OH270377   4.201   1.453  14.136  0.8273 -0.6204  0.4730
16321TIP3    H170378   4.196   1.376  14.192 -2.6674 -0.7630  0.1841
16321TIP3    H270379   4.220   1.525  14.196 -0.0402 -1.1628  1.4266
16322TIP3   OH270380   3.658   3.545   5.903 -0.4773 -0.3692 -0.1666
16322TIP3    H170381   3.714   3.562   5.827 -2.1729 -0.0505 -1.4320
16322TIP3    H270382   3.571   3.530   5.865 -1.2092 -1.1072  1.6750
16323TIP3   OH270383   4.952   2.817  15.760 -0.2401 -0.4584 -0.3662
16323TIP3    H170384   4.996   2.812  15.675  0.9065 -1.5813  0.2597
16323TIP3    H270385   4.912   2.732  15.772  1.7434 -1.2648  1.2813
16324TIP3   OH270386   5.712   3.978   4.797  0.0538  0.4917  0.2066
16324TIP3    H170387   5.665   3.934   4.868  0.4559 -1.5189 -0.6840
16324TIP3    H270388   5.644   4.027   4.751 -0.4044  0.9333  1.3259
16325TIP3   OH270389   1.961   5.120  12.583  0.4081  0.1951 -0.3850
16325TIP3    H170390   1.913   5.174  12.645  0.2287 -0.4478  0.0482
16325TIP3    H270391   2.053   5.142  12.598  0.3511  0.2081 -0.0434
16326TIP3   OH270392   2.894   2.558  11.677 -0.3510 -0.5165 -0.3772
16326TIP3    H170393   2.851   2.606  11.607 -0.4009 -0.3824 -0.2555
16326TIP3    H270394   2.831   2.491  11.703 -0.3215 -0.5831 -0.4799
16327TIP3   OH270395   3.509   5.552  12.740 -0.0014 -0.0308 -0.1406
16327TIP3    H170396   3.461   5.581  12.662 -0.7548 -0.6563  0.0855
16327TIP3    H270397   3.580   5.616  12.748  2.0494 -1.6487 -3.1586
16328TIP3   OH270398   1.299   2.605  11.658 -0.4261 -0.0161 -0.0833
16328TIP3    H170399   1.247   2.528  11.679  2.3931 -1.7118  1.2501
16328TIP3    H270400   1.256   2.676  11.706 -1.8750 -1.1751  0.4116
16329TIP3   OH270401   6.464   2.564  11.338 -0.0179 -0.0098 -0.4556
16329TIP3    H170402   6.534   2.617  11.299 -0.4164  1.3998  0.6694
16329TIP3    H270403   6.418   2.624  11.397 -2.4098 -0.7852 -1.3858
16330TIP3   OH270404   4.774   3.330   3.592 -0.3371  0.4817 -0.0706
16330TIP3    H170405   4.759   3.311   3.499 -2.2196  0.3796  0.2284
16330TIP3    H270406   4.754   3.248   3.636  0.6020  0.5176  0.4483
16331TIP3   OH270407   0.217   0.376  12.994 -0.3781  0.2195  0.1170
16331TIP3    H170408   0.252   0.336  13.073  1.5284  0.2451 -0.6494
16331TIP3    H270409   0.292   0.381  12.934 -1.9226 -0.6170 -2.0373
16332TIP3   OH270410   5.427   5.509   0.146 -0.6627 -0.0875  0.0928
16332TIP3    H170411   5.391   5.598   0.146 -1.8659 -0.5444  0.7171
16332TIP3    H270412   5.366   5.459   0.201  0.8561 -0.9588  1.0586
16333TIP3   OH270413   2.979   4.294  13.511 -0.7550 -0.2856  0.1830
16333TIP3    H170414   2.922   4.352  13.561  0.8275  0.0068  1.7300
16333TIP3    H270415   2.926   4.216  13.494 -1.7281  0.1141  1.2881
16334TIP3   OH270416   4.861   3.028  12.592 -0.3278 -0.1278  0.2143
16334TIP3    H170417   4.775   3.071  12.593  0.3321  1.1948  0.7794
16334TIP3    H270418   4.922   3.096  12.564  0.4522 -1.2661 -0.9621
16335TIP3   OH270419   1.560   2.526  13.916 -0.1270 -0.6997 -0.1071
16335TIP3    H170420   1.470   2.549  13.895 -0.1449  0.1022  0.7577
16335TIP3    H270421   1.584   2.586  13.987  1.5894  0.1298 -1.3201
16336TIP3   OH270422   0.007   6.632  14.571  0.1361 -0.2099 -0.0968
16336TIP3    H170423  -0.070   6.598  14.525 -0.0963 -0.5949  0.5526
16336TIP3    H270424  -0.017   6.626  14.664  1.2433 -1.0724  0.1598
16337TIP3   OH270425   0.812   0.698  11.635 -0.5196 -0.5779  0.2461
16337TIP3    H170426   0.836   0.734  11.549 -0.9928 -1.5688 -0.3202
16337TIP3    H270427   0.850   0.760  11.698  2.2635 -1.2690 -0.6109
16338TIP3   OH270428   4.074   1.723   1.873 -0.3716 -0.3641  0.3055
16338TIP3    H170429   4.039   1.685   1.953 -1.2284  0.2188  0.2187
16338TIP3    H270430   4.066   1.817   1.885  0.9216 -0.2155  0.1584
16339TIP3   OH270431   6.775   2.544  15.943  0.5144  0.2238 -1.1707
16339TIP3    H170432   6.721   2.528  15.865 -3.6035  2.2731  0.9262
16339TIP3    H270433   6.750   2.632  15.971  3.2923  0.3335  1.4775
16340TIP3   OH270434   3.104   1.665  12.648 -0.8784  0.3831 -0.5077
16340TIP3    H170435   3.067   1.658  12.560 -2.0302  0.1123 -0.0281
16340TIP3    H270436   3.194   1.634  12.639 -0.6695  1.2977 -1.7695
16341TIP3   OH270437   2.121   3.916   3.420 -0.2232 -0.2234  0.4394
16341TIP3    H170438   2.048   3.923   3.482 -0.6678 -1.5445  0.1017
16341TIP3    H270439   2.141   3.823   3.418  0.6064 -0.0359 -0.4780
16342TIP3   OH270440   4.274   0.082  11.567 -0.2717  0.2975  0.1056
16342TIP3    H170441   4.272   0.057  11.474  0.3165  0.7564 -0.0343
16342TIP3    H270442   4.241   0.172  11.569 -1.4489 -0.1248  0.4953
16343TIP3   OH270443   3.140   0.730  15.182  0.0241 -0.2019  0.7978
16343TIP3    H170444   3.095   0.729  15.097  0.6608  1.4529  0.3955
16343TIP3    H270445   3.220   0.679  15.168 -0.5629 -1.1394  0.8267
16344TIP3   OH270446   6.642   3.645  14.434 -0.6043  0.2971 -0.8949
16344TIP3    H170447   6.549   3.664  14.445 -0.3090  1.1608  0.3770
16344TIP3    H270448   6.647   3.594  14.353 -1.9222  2.3573 -2.3702
16345TIP3   OH270449   2.897   3.323  15.547 -0.2839  0.2170 -0.7175
16345TIP3    H170450   2.948   3.269  15.487 -1.5328 -1.2002 -0.5859
16345TIP3    H270451   2.822   3.352  15.495 -0.1685  0.9410 -0.4836
16346TIP3   OH270452   5.313   0.308  12.859  0.4681 -0.0705 -0.0679
16346TIP3    H170453   5.342   0.356  12.936 -0.0454  0.7997 -0.3985
16346TIP3    H270454   5.371   0.232  12.854  1.7663  0.8770  0.0707
16347TIP3   OH270455   2.534   1.668  15.671  0.0579 -0.3705  0.0911
16347TIP3    H170456   2.599   1.686  15.603 -0.2462  0.6310  0.0566
16347TIP3    H270457   2.555   1.729  15.741 -0.3230 -0.6285  0.4361
16348TIP3   OH270458   3.820   2.336  15.590 -0.4360  0.9782  0.3816
16348TIP3    H170459   3.862   2.252  15.577  0.5209  1.4357  0.4671
16348TIP3    H270460   3.873   2.398  15.539 -0.3709  1.7354  1.3414
16349TIP3   OH270461   0.510   1.067   5.169 -0.3357 -0.5794  0.4431
16349TIP3    H170462   0.510   1.163   5.173 -1.1738 -0.5594  0.1059
16349TIP3    H270463   0.529   1.040   5.259  0.1322 -0.1024  0.4966
16350TIP3   OH270464   2.776   0.770   2.341  0.2240 -0.6036  0.0605
16350TIP3    H170465   2.786   0.727   2.426 -0.3936  1.0241  0.9949
16350TIP3    H270466   2.684   0.795   2.337  0.7960  1.8133  0.1962
16351TIP3   OH270467   0.183   5.103  12.041  0.3140  0.1621 -0.9416
16351TIP3    H170468   0.262   5.128  12.088  0.2657  0.5887 -1.0845
16351TIP3    H270469   0.126   5.180  12.046 -0.4081 -0.4094 -0.1792
16352TIP3   OH270470   2.937   5.843   4.853 -0.2599 -0.4177 -0.2764
16352TIP3    H170471   2.901   5.802   4.932  2.3008 -5.0176 -1.1277
16352TIP3    H270472   2.879   5.814   4.783  1.1213 -2.0865 -0.7933
16353TIP3   OH270473   0.706   1.240  16.925 -0.1817 -0.0098  0.1185
16353TIP3    H170474   0.630   1.217  16.872 -0.7196 -1.2964  1.3961
16353TIP3    H270475   0.704   1.179  16.998  1.5144  0.5988  0.7262
16354TIP3   OH270476   1.111   4.698  12.060 -0.0892 -0.3322 -0.1780
16354TIP3    H170477   1.195   4.732  12.091  0.1329  0.4766 -1.6268
16354TIP3    H270478   1.121   4.603  12.066  0.4269 -0.2310  0.9115
16355TIP3   OH270479   0.815   3.752  14.232  0.2846 -0.4388  0.3603
16355TIP3    H170480   0.882   3.756  14.300 -0.4087  3.1955  1.0372
16355TIP3    H270481   0.737   3.718  14.276 -0.5482  3.1407  1.9373
16356TIP3   OH270482   6.187   1.283   1.148  0.2160 -0.3792 -1.0230
16356TIP3    H170483   6.112   1.342   1.135 -0.1640 -1.0289 -1.8727
16356TIP3    H270484   6.255   1.318   1.091  2.0061  2.4699  2.4217
16357TIP3   OH270485   1.205   1.417   1.244  0.1772  0.0796  0.0927
16357TIP3    H170486   1.162   1.463   1.316  1.5572  1.3898  0.1137
16357TIP3    H270487   1.133   1.371   1.200 -1.0774  1.2782  0.7962
16358TIP3   OH270488   5.871   1.080   5.670 -0.4027  0.7178  0.5670
16358TIP3    H170489   5.797   1.047   5.720 -1.6554  0.3916 -1.3778
16358TIP3    H270490   5.900   1.005   5.618  0.1169  1.3168 -0.0264
16359TIP3   OH270491   3.714   4.292   3.212 -0.5100 -0.4137  0.1268
16359TIP3    H170492   3.681   4.293   3.123  2.1138 -2.4594 -1.0110
16359TIP3    H270493   3.773   4.368   3.218  0.2107 -0.9246 -0.3147
16360TIP3   OH270494   2.740   0.012  11.536 -0.5216  0.0817 -0.2555
16360TIP3    H170495   2.719   0.037  11.446 -2.4556  1.0199  0.3995
16360TIP3    H270496   2.681  -0.061  11.555  0.3500 -0.5518  0.0430
16361TIP3   OH270497   3.676   1.707   4.156  0.0776  0.0751 -0.2709
16361TIP3    H170498   3.641   1.664   4.079  0.7660 -0.3525 -0.3600
16361TIP3    H270499   3.609   1.694   4.224 -0.0439 -0.5059 -0.4970
16362TIP3   OH270500   1.677   5.205  13.780  0.3215 -0.1493 -0.4375
16362TIP3    H170501   1.621   5.280  13.760  1.4967  0.5747 -1.1269
16362TIP3    H270502   1.706   5.220  13.870  1.3525  0.7976 -0.8943
16363TIP3   OH270503   6.654   0.918   4.711  0.0222  0.0960 -0.6162
16363TIP3    H170504   6.581   0.938   4.769  0.7164  0.7900  0.0425
16363TIP3    H270505   6.689   0.836   4.745 -0.2488 -0.0749 -0.7428
16364TIP3   OH270506   3.024   5.019   5.354  0.2262  0.0585 -0.7899
16364TIP3    H170507   3.014   4.951   5.420  0.8698 -0.4477 -1.2030
16364TIP3    H270508   3.014   5.101   5.403 -0.4043 -0.3271 -0.2664
16365TIP3   OH270509   3.216   6.708   3.580  0.1702  0.1428 -0.5463
16365TIP3    H170510   3.275   6.774   3.544 -0.3562  0.2281 -1.2576
16365TIP3    H270511   3.272   6.655   3.636  0.7126  0.8488 -0.4013
16366TIP3   OH270512   2.621   3.165   0.755  0.4981 -0.6214  0.2161
16366TIP3    H170513   2.529   3.188   0.762  0.9057  1.1729  0.0889
16366TIP3    H270514   2.623   3.091   0.694 -0.8353 -0.5902  0.1258
16367TIP3   OH270515   1.663   2.789   0.065 -0.2735 -0.4301 -0.0363
16367TIP3    H170516   1.610   2.791   0.145  0.4221  2.1111  0.4762
16367TIP3    H270517   1.748   2.756   0.095 -0.1339  0.1378  0.2116
16368TIP3   OH270518   3.942   1.713  14.942  0.2133 -0.3727 -0.0038
16368TIP3    H170519   3.936   1.796  14.990  1.7046  0.4749 -1.2103
16368TIP3    H270520   3.872   1.718  14.878  1.2469  0.7178 -1.1175
16369TIP3   OH270521   5.575   0.987   3.552  0.1967 -0.3643 -0.2213
16369TIP3    H170522   5.537   0.979   3.639  1.6100  0.9080  0.5708
16369TIP3    H270523   5.525   1.057   3.510 -1.3798 -1.8835 -0.9947
16370TIP3   OH270524   3.382   3.598  13.255 -0.2106  0.5812  0.1449
16370TIP3    H170525   3.429   3.596  13.339 -0.5578 -1.8633  0.3581
16370TIP3    H270526   3.300   3.552  13.273  1.1314 -3.1739 -2.2619
16371TIP3   OH270527   6.266   5.151   1.328 -0.2316  0.0418 -0.6586
16371TIP3    H170528   6.236   5.241   1.341  2.0902  0.8929 -0.8275
16371TIP3    H270529   6.309   5.128   1.410 -0.6438 -0.8852 -0.6843
16372TIP3   OH270530   4.251   3.631  11.894  0.6264  0.3391 -0.3692
16372TIP3    H170531   4.275   3.723  11.890 -0.4899  0.6357 -0.6107
16372TIP3    H270532   4.302   3.595  11.967  0.1746  1.4068  0.4803
16373TIP3   OH270533   2.074   4.609   1.560  0.0738  0.2007  0.0030
16373TIP3    H170534   2.108   4.578   1.476 -0.2923 -1.1530  0.3276
16373TIP3    H270535   1.980   4.590   1.556 -0.4205  2.4254 -0.2540
16374TIP3   OH270536   2.288   4.020  11.898  0.4838 -0.2568  0.0209
16374TIP3    H170537   2.228   3.965  11.949  0.9202 -0.8220 -0.0652
16374TIP3    H270538   2.231   4.070  11.839 -0.0559  0.6201  1.2496
16375TIP3   OH270539   4.678   2.855   3.119 -0.1826 -0.1004  0.2266
16375TIP3    H170540   4.625   2.788   3.161  1.1737 -0.2024  1.8967
16375TIP3    H270541   4.641   2.864   3.031 -1.2820 -1.9972  0.4459
16376TIP3   OH270542   5.101   6.090   0.711  0.2374 -0.3498 -0.3126
16376TIP3    H170543   5.088   6.013   0.767  1.7131 -0.4159  0.0001
16376TIP3    H270544   5.165   6.143   0.758  2.8435 -1.1877 -2.5935
16377TIP3   OH270545   0.951   1.234  16.414 -0.1344 -0.0312 -0.0352
16377TIP3    H170546   0.866   1.262  16.380 -0.0584 -0.3758 -0.5317
16377TIP3    H270547   0.937   1.142  16.440  0.7659 -1.0300 -2.7413
16378TIP3   OH270548   3.708   1.544  17.123  0.7862 -0.1718 -0.0436
16378TIP3    H170549   3.684   1.535  17.215 -0.7660  0.7903 -0.3178
16378TIP3    H270550   3.671   1.628  17.097 -0.2726 -1.1722 -1.9755
16379TIP3   OH270551   2.338   6.036  10.857 -0.1250  0.4032  0.0084
16379TIP3    H170552   2.301   6.018  10.770  0.8920 -0.5955 -0.2501
16379TIP3    H270553   2.317   5.958  10.908  0.5994  0.3286  0.1985
16380TIP3   OH270554   5.491   6.589   0.936 -0.2161 -0.5292  0.1582
16380TIP3    H170555   5.543   6.626   1.007 -2.6928  4.2194 -0.1117
16380TIP3    H270556   5.410   6.559   0.977 -1.0762  0.9289 -0.4128
16381TIP3   OH270557   1.922   3.848  11.170  0.0554  0.4179 -0.1040
16381TIP3    H170558   1.850   3.790  11.145  0.0976 -0.0509  0.8179
16381TIP3    H270559   1.950   3.888  11.088 -0.1289 -0.7072 -0.7421
16382TIP3   OH270560   0.416   3.338   3.735 -0.2605  0.5170  0.3905
16382TIP3    H170561   0.327   3.301   3.725  0.1332 -0.2977 -0.3299
16382TIP3    H270562   0.471   3.281   3.681  0.5658  1.5391  0.1231
16383TIP3   OH270563   3.302   3.678   0.630  0.2541 -0.1077 -0.3607
16383TIP3    H170564   3.289   3.615   0.559 -0.5723 -0.8585  0.4278
16383TIP3    H270565   3.263   3.759   0.598 -0.3472 -0.5108 -0.6673
16384TIP3   OH270566   5.208   5.980  13.618 -0.0688 -1.1904 -0.2162
16384TIP3    H170567   5.152   5.909  13.586  0.5067 -2.1194  0.7709
16384TIP3    H270568   5.284   5.979  13.559 -0.2963 -1.0586 -0.5128
16385TIP3   OH270569   4.381   3.874  12.052 -0.5055  0.1682  0.0327
16385TIP3    H170570   4.405   3.861  11.961 -2.2672 -2.5404 -0.1537
16385TIP3    H270571   4.453   3.924  12.089  2.0635 -1.7717 -1.9653
16386TIP3   OH270572   1.116   1.575  14.496 -0.4367 -0.0195  0.3052
16386TIP3    H170573   1.136   1.661  14.458 -1.6791  0.4762  0.7155
16386TIP3    H270574   1.192   1.555  14.551 -1.0643  1.8585  1.9665
16387TIP3   OH270575   2.950   4.317  15.222 -0.3891 -0.1881 -0.5084
16387TIP3    H170576   2.971   4.411  15.219  0.0548 -0.1954  1.0746
16387TIP3    H270577   2.952   4.288  15.131  0.3477  1.1581 -0.9437
16388TIP3   OH270578   1.251   5.047   3.000 -0.2166  0.4988 -0.5316
16388TIP3    H170579   1.208   4.999   3.071 -1.5654  0.7812 -1.1282
16388TIP3    H270580   1.193   5.121   2.982 -1.0303 -0.6883 -3.3133
16389TIP3   OH270581   3.763   6.040   4.069  0.1641  0.6619  0.0003
16389TIP3    H170582   3.672   6.055   4.043  0.6137  2.9951 -0.4470
16389TIP3    H270583   3.772   5.944   4.070 -1.9659  0.3828 -1.0390
16390TIP3   OH270584   3.937   6.334   1.489 -0.3748  0.5433  0.3517
16390TIP3    H170585   3.964   6.305   1.576  1.3123  1.6197  0.2397
16390TIP3    H270586   3.893   6.417   1.503 -0.0266  0.7605  0.1813
16391TIP3   OH270587   4.626   0.687   3.307  0.5849  0.9859 -0.6463
16391TIP3    H170588   4.549   0.630   3.302  0.0054  1.6181  0.5748
16391TIP3    H270589   4.677   0.666   3.229  0.0109 -0.6574 -0.6126
16392TIP3   OH270590   0.483   0.688   4.608 -0.0778  0.2150  0.1250
16392TIP3    H170591   0.514   0.750   4.542  1.2286  0.3326  0.8040
16392TIP3    H270592   0.521   0.604   4.582  1.5648  0.4950  1.3614
16393TIP3   OH270593   5.792   5.150   4.151 -0.5420 -0.4959 -0.0922
16393TIP3    H170594   5.713   5.135   4.202 -1.2168  2.2086 -0.1902
16393TIP3    H270595   5.852   5.080   4.179 -2.1233 -1.2192  1.7189
16394TIP3   OH270596   3.836   2.623  11.078 -0.5804 -0.4422 -0.2864
16394TIP3    H170597   3.868   2.534  11.060 -0.1353 -0.2614 -0.3947
16394TIP3    H270598   3.915   2.674  11.097 -0.6271  0.3390 -1.9362
16395TIP3   OH270599   1.703   6.722  12.809  0.3654 -0.1406  0.1037
16395TIP3    H170600   1.626   6.704  12.864 -0.8147  1.2580 -1.0132
16395TIP3    H270601   1.736   6.806  12.841  0.6223 -0.0842 -0.3002
16396TIP3   OH270602   3.513   1.241   2.302 -0.6187 -0.9857  0.2830
16396TIP3    H170603   3.584   1.297   2.271 -1.5001 -0.4891 -0.8990
16396TIP3    H270604   3.538   1.218   2.392  0.4408  0.1582  0.3078
16397TIP3   OH270605   4.244   3.719  10.773 -0.1290 -0.3487  0.4547
16397TIP3    H170606   4.245   3.651  10.705 -0.1820  0.9711 -0.9396
16397TIP3    H270607   4.214   3.675  10.852 -1.7018 -1.5978 -0.7863
16398TIP3   OH270608   6.705   1.164  11.888  0.9704 -0.1492  0.4585
16398TIP3    H170609   6.642   1.214  11.940  0.3395  0.5121 -0.9015
16398TIP3    H270610   6.662   1.081  11.870  2.3905 -1.7142  3.5428
16399TIP3   OH270611   2.005   3.687  10.310 -0.6857 -0.0574  0.5929
16399TIP3    H170612   2.077   3.749  10.319 -0.6725  0.0288 -0.0723
16399TIP3    H270613   2.042   3.603  10.337  0.6459 -0.6666 -2.7079
16400TIP3   OH270614   1.069   5.992   1.127 -0.4342  0.0264 -0.6308
16400TIP3    H170615   1.031   5.970   1.212  0.0727 -0.3009 -0.4852
16400TIP3    H270616   1.077   5.909   1.081 -0.4725  0.1695 -0.9003
16401TIP3   OH270617   5.605   2.816   4.639 -0.6650  0.4127 -0.2743
16401TIP3    H170618   5.692   2.831   4.678  0.6713  0.3973 -2.9801
16401TIP3    H270619   5.576   2.903   4.610 -0.3485  0.1052 -1.5947
16402TIP3   OH270620   0.238   0.431   0.857 -0.2312 -0.6232 -0.4585
16402TIP3    H170621   0.166   0.493   0.844  0.3913  0.0264 -0.9030
16402TIP3    H270622   0.231   0.370   0.784  0.0531 -0.1697 -0.8722
16403TIP3   OH270623   3.117   0.114  13.308 -0.2569 -0.3180  0.0689
16403TIP3    H170624   3.129   0.202  13.344  3.6555 -1.1222  1.2546
16403TIP3    H270625   3.121   0.126  13.213 -0.4791  0.8410  0.1968
16404TIP3   OH270626   5.040   4.583   2.531 -0.2664 -1.0639  0.2197
16404TIP3    H170627   4.970   4.576   2.466 -1.7129  0.3246  1.5488
16404TIP3    H270628   5.007   4.646   2.595  0.9799 -2.5429  2.4457
16405TIP3   OH270629   4.691   1.290  11.139  0.2953 -0.4311 -0.0123
16405TIP3    H170630   4.619   1.227  11.131 -1.6616  1.8576 -2.1191
16405TIP3    H270631   4.735   1.288  11.055 -2.1673  3.3861 -1.7027
16406TIP3   OH270632   5.215   0.360   0.042 -0.1320  0.2832 -0.2212
16406TIP3    H170633   5.202   0.434  -0.017 -0.0853 -1.3604 -2.3829
16406TIP3    H270634   5.298   0.379   0.087 -0.2701  1.6532 -0.5108
16407TIP3   OH270635   2.002   6.593   2.309  0.4209 -0.3432  0.2779
16407TIP3    H170636   1.951   6.673   2.314 -1.5703 -1.5082 -0.3309
16407TIP3    H270637   2.053   6.601   2.229  1.4307  0.9201  0.9997
16408TIP3   OH270638   5.162   2.899   4.369  0.3792 -0.0397 -0.3020
16408TIP3    H170639   5.192   2.867   4.454  2.2337  2.3214  0.0491
16408TIP3    H270640   5.242   2.909   4.318 -0.1761  2.5757 -0.8076
16409TIP3   OH270641   0.256   3.601   5.746 -0.5064  0.3571  0.2686
16409TIP3    H170642   0.227   3.623   5.657  1.0461 -1.1495 -0.6771
16409TIP3    H270643   0.341   3.560   5.733 -0.8075 -1.0348  2.3611
16410TIP3   OH270644   4.362   2.133   3.407 -0.2193 -0.4884  0.0963
16410TIP3    H170645   4.431   2.143   3.473 -0.0259 -0.9656 -0.0306
16410TIP3    H270646   4.392   2.061   3.352 -1.1371 -1.1601  0.4531
16411TIP3   OH270647   2.314   4.682  11.495  0.1970  0.1908 -0.0552
16411TIP3    H170648   2.262   4.738  11.437 -1.5631  1.2210  2.3617
16411TIP3    H270649   2.405   4.709  11.480 -0.1123  0.0376 -2.6237
16412TIP3   OH270650   0.099   6.063  15.724 -0.3431  0.2609  0.2437
16412TIP3    H170651   0.067   6.131  15.664 -2.1017 -1.6620 -1.1414
16412TIP3    H270652   0.098   5.982  15.673  0.5910 -1.0555  2.1451
16413TIP3   OH270653   1.662   0.170  12.928  0.1791 -0.0566  0.1754
16413TIP3    H170654   1.617   0.240  12.879  0.1438  1.1613  1.8537
16413TIP3    H270655   1.699   0.215  13.004  0.3325 -1.8546  1.1996
16414TIP3   OH270656   5.070   1.453  13.567 -0.3156 -0.4761  0.4068
16414TIP3    H170657   5.129   1.389  13.605 -1.0701 -0.1758  2.2035
16414TIP3    H270658   5.121   1.534  13.562 -0.5708 -0.1844  2.0772
16415TIP3   OH270659   5.606   1.733   1.582  0.0861 -0.4782 -0.0641
16415TIP3    H170660   5.543   1.672   1.621 -0.8066  1.1206  1.1122
16415TIP3    H270661   5.627   1.694   1.497 -0.3152 -2.4834  0.6906
16416TIP3   OH270662   0.304   2.889   5.082 -0.2654 -0.1317  0.1555
16416TIP3    H170663   0.333   2.815   5.136 -0.5716 -0.0896  0.3822
16416TIP3    H270664   0.373   2.899   5.017 -0.9070 -1.5502 -0.7996
16417TIP3   OH270665   5.576   6.350  14.549 -0.4448 -0.0537  0.5988
16417TIP3    H170666   5.582   6.410  14.623 -0.9472 -0.5473  1.0443
16417TIP3    H270667   5.553   6.405  14.474  1.3803  0.6578  0.5120
16418TIP3   OH270668   3.257   1.564   3.417  0.6201  0.6105 -0.1538
16418TIP3    H170669   3.194   1.495   3.437  0.9866  0.3309  0.0534
16418TIP3    H270670   3.318   1.524   3.355  0.7198  0.8105 -0.1879
16419TIP3   OH270671   5.346   6.762   1.263 -0.1693  0.0403  0.0354
16419TIP3    H170672   5.349   6.749   1.168 -3.9596  0.9006 -0.3677
16419TIP3    H270673   5.281   6.699   1.293 -2.7076  2.9866  1.2209
16420TIP3   OH270674   2.920   1.123   4.590 -0.5840  0.0853 -0.2764
16420TIP3    H170675   2.925   1.162   4.503  1.5876  0.5336  0.0022
16420TIP3    H270676   3.004   1.141   4.630 -1.8194  0.6562  2.2787
16421TIP3   OH270677   0.757   2.138   4.465 -0.0823  0.3503 -0.2933
16421TIP3    H170678   0.707   2.180   4.535  0.1404 -0.9805  0.6945
16421TIP3    H270679   0.839   2.188   4.462  0.2259 -0.0412  0.9390
16422TIP3   OH270680   6.220   6.656   2.993  0.5808  0.0259 -0.3235
16422TIP3    H170681   6.201   6.576   3.042 -1.2808 -0.5066 -1.7485
16422TIP3    H270682   6.195   6.727   3.052 -2.4144 -0.6100 -0.6488
16423TIP3   OH270683   3.426   3.760  16.812  0.1996  0.2475  0.6236
16423TIP3    H170684   3.498   3.708  16.775 -0.2188  1.9803 -3.0446
16423TIP3    H270685   3.355   3.698  16.823  1.0255 -0.7540  0.4603
16424TIP3   OH270686   5.330   0.311  15.990  1.1167 -0.1680 -0.0838
16424TIP3    H170687   5.287   0.371  15.928  1.3429 -0.0242 -0.1026
16424TIP3    H270688   5.362   0.369  16.060  1.1900 -0.2874 -0.0193
16425TIP3   OH270689   3.918   4.041   0.869 -0.6722 -0.0490  0.4679
16425TIP3    H170690   3.855   4.024   0.800  1.3196  0.7981 -1.6944
16425TIP3    H270691   3.999   4.063   0.823  1.0837 -0.5510  3.0857
16426TIP3   OH270692   4.250   0.523  16.147 -0.2611 -0.1373  0.2585
16426TIP3    H170693   4.260   0.553  16.237  0.0213 -0.9630  0.5176
16426TIP3    H270694   4.299   0.586  16.094  2.4181 -1.4162  1.0239
16427TIP3   OH270695   6.494   5.937   3.363 -0.2432 -0.6184  0.4445
16427TIP3    H170696   6.491   5.900   3.451  0.6471  0.0723  0.7813
16427TIP3    H270697   6.402   5.946   3.337 -0.4959 -1.3624  1.0650
16428TIP3   OH270698   5.124   0.742   2.939 -0.2414 -0.1960  1.0175
16428TIP3    H170699   5.190   0.786   2.992 -0.5377  2.1932 -0.4388
16428TIP3    H270700   5.171   0.713   2.861 -0.7535  1.0106  0.2340
16429TIP3   OH270701   1.540   0.736   3.236  0.4182  0.5518 -0.1618
16429TIP3    H170702   1.560   0.769   3.323  0.5152  0.5317 -0.1764
16429TIP3    H270703   1.621   0.696   3.206 -0.1405 -1.2145  0.5430
16430TIP3   OH270704   3.757   4.604   1.051 -0.1360  0.4226 -0.5849
16430TIP3    H170705   3.715   4.522   1.027  0.9084 -0.5085  0.6256
16430TIP3    H270706   3.738   4.616   1.144 -1.6723  2.4513 -1.0781
16431TIP3   OH270707   4.263   5.884   1.587  0.4521  0.3388 -0.4108
16431TIP3    H170708   4.318   5.837   1.523  0.5193  0.6369 -0.5733
16431TIP3    H270709   4.225   5.956   1.537 -3.0065 -1.8741 -1.2860
16432TIP3   OH270710   5.620   5.526  16.821  0.6848  0.8383  0.2719
16432TIP3    H170711   5.602   5.568  16.737 -1.0501 -0.3737 -0.0397
16432TIP3    H270712   5.601   5.593  16.886  1.5275  1.6293 -0.2701
16433TIP3   OH270713   4.599   6.723   3.389  0.0163  0.2250 -0.0439
16433TIP3    H170714   4.531   6.783   3.359  0.2161  0.5204  0.0927
16433TIP3    H270715   4.550   6.649   3.427 -0.2762  1.4977  2.2634
16434TIP3   OH270716   3.990   6.595   5.368 -0.2926  0.2963 -0.3517
16434TIP3    H170717   4.030   6.679   5.347 -0.9103  0.5276 -0.6105
16434TIP3    H270718   3.904   6.617   5.403 -0.3938 -0.2205 -0.2683
16435TIP3   OH270719   6.412   4.696  11.826  0.2675 -0.3708 -0.2429
16435TIP3    H170720   6.406   4.607  11.792  1.3925 -0.9419  0.9355
16435TIP3    H270721   6.465   4.743  11.762  2.9529 -1.6057  0.8984
16436TIP3   OH270722   2.403   2.939   4.991  0.2142  0.3859  0.6024
16436TIP3    H170723   2.414   2.940   5.086  2.7798  1.1900  0.3934
16436TIP3    H270724   2.312   2.965   4.976 -0.5428 -0.7293  2.8304
16437TIP3   OH270725   1.508   1.486   5.291 -0.0510  0.2621  0.2188
16437TIP3    H170726   1.588   1.527   5.259  0.1112  0.6335  1.0756
16437TIP3    H270727   1.515   1.394   5.265  0.9456  0.1581  0.8177
16438TIP3   OH270728   2.748   6.787  13.826  0.3019  0.2276 -0.6122
16438TIP3    H170729   2.655   6.789  13.806  0.1179 -0.2981  0.1510
16438TIP3    H270730   2.791   6.778  13.741 -0.4481 -1.9945 -0.8175
16439TIP3   OH270731   0.179   2.629  14.995  0.2521  0.1027 -0.2843
16439TIP3    H170732   0.231   2.709  15.009 -0.9053  0.8970 -0.3573
16439TIP3    H270733   0.188   2.611  14.902 -0.6987  1.0509 -0.5818
16440TIP3   OH270734   4.855   2.731  14.503 -0.3863 -0.5467 -0.2632
16440TIP3    H170735   4.778   2.679  14.525  0.8285 -2.8499 -1.1750
16440TIP3    H270736   4.865   2.721  14.408  0.0353  1.1806 -0.4325
16441TIP3   OH270737   0.166   4.169  16.759  0.5141 -0.4775 -0.1131
16441TIP3    H170738   0.230   4.222  16.712  0.5748 -1.6931 -1.4753
16441TIP3    H270739   0.216   4.126  16.828  0.5448  0.8592  0.7326
16442TIP3   OH270740   1.707   6.306   5.712 -0.1945 -0.0782 -0.2483
16442TIP3    H170741   1.707   6.310   5.807  0.3580  0.0538 -0.2513
16442TIP3    H270742   1.698   6.397   5.683 -3.6883 -0.3185 -0.3535
16443TIP3   OH270743   0.164   2.010  14.949  0.0233 -0.5458 -0.3648
16443TIP3    H170744   0.177   2.103  14.967 -1.7805 -0.3401  0.0651
16443TIP3    H270745   0.118   2.008  14.865 -1.7552 -0.9055  0.5696
16444TIP3   OH270746   5.619   4.883   5.987 -0.4332 -0.3182  0.0792
16444TIP3    H170747   5.589   4.958   6.039 -0.5896  0.0250 -0.4902
16444TIP3    H270748   5.690   4.918   5.933 -0.3493 -0.6394 -0.0193
16445TIP3   OH270749   4.046   0.441   2.371 -0.5052  0.1965  0.0125
16445TIP3    H170750   4.141   0.451   2.382 -0.4268 -0.4799  0.0084
16445TIP3    H270751   4.013   0.431   2.461 -0.5508  0.2868  0.0052
16446TIP3   OH270752   0.749   5.570   0.020  0.2452 -0.0979  0.4372
16446TIP3    H170753   0.693   5.518   0.078  1.1824  0.0259  1.4887
16446TIP3    H270754   0.813   5.507  -0.014 -0.8681 -0.3744 -1.2650
16447TIP3   OH270755   6.344   0.746   3.336 -0.1747  0.5086 -0.1837
16447TIP3    H170756   6.416   0.775   3.280  0.9800 -1.9387 -0.0622
16447TIP3    H270757   6.380   0.746   3.424 -0.6719  0.2815  0.0255
16448TIP3   OH270758   5.001   4.240   5.743  0.6122  0.0559 -0.2285
16448TIP3    H170759   5.029   4.221   5.653 -0.5919  1.4452 -0.9308
16448TIP3    H270760   4.997   4.335   5.748  2.2420  0.1054  1.8325
16449TIP3   OH270761   6.356   3.221  15.696  0.2559  0.4770  0.0800
16449TIP3    H170762   6.300   3.172  15.756  0.9676  0.3900  0.6867
16449TIP3    H270763   6.433   3.165  15.684  1.1595  1.4939  0.9105
16450TIP3   OH270764   5.377   0.913  14.611  0.2204  0.4913  0.1751
16450TIP3    H170765   5.388   0.836  14.667  0.4003  1.8304  2.0588
16450TIP3    H270766   5.435   0.897  14.536  1.5389 -0.4516  1.3600
16451TIP3   OH270767   3.343   6.194  14.684 -0.1117  0.0180 -0.3238
16451TIP3    H170768   3.355   6.141  14.605  0.1663  0.6581 -0.7145
16451TIP3    H270769   3.336   6.284  14.653  0.1575  0.2948  0.3894
16452TIP3   OH270770   4.436   0.747   1.255 -0.5469  0.5893 -0.0981
16452TIP3    H170771   4.407   0.744   1.346 -0.8988  0.9602 -0.1961
16452TIP3    H270772   4.485   0.666   1.243 -0.4575  0.5593  0.4347
16453TIP3   OH270773   6.527   6.152  15.743  0.5594 -0.6242  0.0942
16453TIP3    H170774   6.498   6.084  15.804  1.3459  0.2824  1.5052
16453TIP3    H270775   6.620   6.134  15.730  0.6266 -0.1889 -0.0229
16454TIP3   OH270776   5.154   5.906  11.965 -0.1261  0.5172 -0.2877
16454TIP3    H170777   5.140   5.999  11.986 -3.2470  0.2008 -0.3717
16454TIP3    H270778   5.155   5.863  12.050  0.4142  0.5460 -0.2813
16455TIP3   OH270779   1.780   2.033  11.010  0.5889  0.1473 -0.3881
16455TIP3    H170780   1.708   1.982  10.974  1.4610 -2.6052  1.4872
16455TIP3    H270781   1.762   2.123  10.981 -3.1069 -0.5178 -0.6399
16456TIP3   OH270782   3.857   5.001   2.429  0.3493  0.3015  0.8174
16456TIP3    H170783   3.780   4.946   2.445 -0.3827  1.0838  0.0720
16456TIP3    H270784   3.883   5.031   2.516 -0.1790  0.0158  1.0781
16457TIP3   OH270785   2.349   6.768  10.116 -0.3072  0.4223 -0.1088
16457TIP3    H170786   2.277   6.707  10.098 -1.0270  1.6715 -1.7330
16457TIP3    H270787   2.423   6.732  10.067 -0.7375  0.8553 -1.0912
16458TIP3   OH270788   3.783   3.589   6.544 -0.1514  0.2695 -0.0797
16458TIP3    H170789   3.691   3.608   6.563 -0.2450  1.0123 -1.1426
16458TIP3    H270790   3.780   3.523   6.474  0.1372 -0.2793  0.4194
16459TIP3   OH270791   2.549   4.936  12.904 -0.2642 -0.4036  0.3067
16459TIP3    H170792   2.595   4.852  12.898 -0.0246 -0.3067  0.7863
16459TIP3    H270793   2.608   4.999  12.864 -0.3350 -0.4208  0.1755
16460TIP3   OH270794   2.585   3.352   0.208  0.0943  0.2354  0.4323
16460TIP3    H170795   2.532   3.431   0.197  1.2541  0.9199 -0.5242
16460TIP3    H270796   2.551   3.291   0.142 -1.4074 -0.4675  1.7662
16461TIP3   OH270797   5.669   2.290  15.891 -0.0481  0.6305 -0.0245
16461TIP3    H170798   5.755   2.283  15.848 -0.3280  0.0918 -0.5058
16461TIP3    H270799   5.632   2.371  15.856 -0.0430  0.4785 -0.3920
16462TIP3   OH270800   2.545   2.796   5.737  0.4650 -0.1934 -0.1600
16462TIP3    H170801   2.484   2.761   5.671 -0.2193  2.8629 -1.3191
16462TIP3    H270802   2.632   2.783   5.698  0.3015 -1.2100 -0.2147
16463TIP3   OH270803   1.886   4.031   1.610  0.3296  0.1074  1.0155
16463TIP3    H170804   1.875   3.981   1.691  1.5662 -0.2196  0.9967
16463TIP3    H270805   1.979   4.023   1.589 -0.1266 -0.6322 -0.9730
16464TIP3   OH270806   4.156   3.007  16.523 -0.0284  0.4926 -0.7482
16464TIP3    H170807   4.097   3.068  16.479  0.0330  0.3053 -1.0960
16464TIP3    H270808   4.226   2.992  16.459  0.4636  0.8070 -0.2972
16465TIP3   OH270809   6.696   3.767  16.456 -0.1125  0.1670  0.2276
16465TIP3    H170810   6.727   3.727  16.375  0.4796  0.4560  0.3099
16465TIP3    H270811   6.764   3.829  16.480 -0.2641  0.0433  0.9831
16466TIP3   OH270812   6.153   3.267   2.459  0.5107 -0.8824  0.5006
16466TIP3    H170813   6.236   3.305   2.429  0.1740  1.8949  2.6780
16466TIP3    H270814   6.177   3.212   2.533  0.5418 -1.2750  0.2013
16467TIP3   OH270815   4.709   1.345  16.753  0.3955 -0.8310  0.1236
16467TIP3    H170816   4.689   1.317  16.843 -0.1337 -1.7639 -0.2660
16467TIP3    H270817   4.779   1.285  16.725  0.9334 -0.1969  0.0843
16468TIP3   OH270818   3.472   1.468   4.950 -0.3726 -0.8435  0.1254
16468TIP3    H170819   3.539   1.467   5.018  1.0134  2.0526 -1.0245
16468TIP3    H270820   3.519   1.446   4.870 -1.1133 -0.2449 -0.4799
16469TIP3   OH270821   6.313   1.705  13.967 -0.7659  0.4788  0.0758
16469TIP3    H170822   6.242   1.683  14.026  0.4297 -0.5077  1.1879
16469TIP3    H270823   6.332   1.624  13.920 -0.6284  0.8333 -0.4899
16470TIP3   OH270824   5.633   6.704  13.644 -0.4008 -0.2253  0.2572
16470TIP3    H170825   5.555   6.655  13.673 -0.2219 -0.1595  0.8523
16470TIP3    H270826   5.693   6.700  13.718  0.3652 -0.6862 -0.3734
16471TIP3   OH270827   5.768   2.569   1.197 -0.1546 -0.8210  0.2621
16471TIP3    H170828   5.845   2.519   1.225  0.0829 -1.4048 -1.2928
16471TIP3    H270829   5.694   2.515   1.224 -0.1161  0.2608  2.7387
16472TIP3   OH270830   3.889   3.296   4.611 -0.0030  0.3080 -0.2322
16472TIP3    H170831   3.799   3.264   4.609 -0.5888  1.8957 -0.9803
16472TIP3    H270832   3.914   3.303   4.518  1.2181 -0.9070 -0.0367
16473TIP3   OH270833   5.447   5.362   3.656  0.3810 -0.3242 -0.4499
16473TIP3    H170834   5.378   5.322   3.603  1.4921 -0.2753 -2.0113
16473TIP3    H270835   5.466   5.298   3.724  0.0968 -1.1894 -1.1601
16474TIP3   OH270836   5.666   3.665  13.192 -0.5965 -0.1336 -0.2284
16474TIP3    H170837   5.669   3.614  13.274  0.3493  1.0018  0.4687
16474TIP3    H270838   5.687   3.601  13.124 -0.4543 -0.9093  0.5232
16475TIP3   OH270839   2.941   0.458  11.609 -0.3759  0.0885  0.1936
16475TIP3    H170840   2.885   0.385  11.635 -1.8028  1.4417  1.0327
16475TIP3    H270841   2.902   0.491  11.528  1.0939 -0.8976 -0.9880
16476TIP3   OH270842   2.704   1.336   2.302  0.1877  0.2278 -0.5080
16476TIP3    H170843   2.693   1.393   2.226  1.7422 -1.5516 -2.1609
16476TIP3    H270844   2.695   1.247   2.268  1.8137 -0.6650  1.1725
16477TIP3   OH270845   3.844   6.265  10.827 -0.0061  0.0797  0.1696
16477TIP3    H170846   3.844   6.182  10.779  0.0287  0.1877 -0.0194
16477TIP3    H270847   3.826   6.331  10.760  2.0051  0.4468 -0.0704
16478TIP3   OH270848   1.019   3.019  12.890 -0.3529  0.0727 -0.0489
16478TIP3    H170849   1.010   2.924  12.875  2.0960  0.2003 -3.4770
16478TIP3    H270850   1.089   3.026  12.955 -1.0290 -0.4330  0.7568
16479TIP3   OH270851   3.688   6.635   1.103  0.1626  0.3395 -0.2301
16479TIP3    H170852   3.659   6.607   1.016  2.3877  0.2258 -0.9884
16479TIP3    H270853   3.659   6.564   1.161  2.3450 -1.7981 -1.5604
16480TIP3   OH270854   2.643   5.500   0.067 -0.1613 -0.0658  0.9474
16480TIP3    H170855   2.672   5.564   0.002  0.5865  0.0249  1.3648
16480TIP3    H270856   2.624   5.422   0.016  2.0243 -0.5410  0.7627
16481TIP3   OH270857   5.049   2.290   4.311 -0.1214 -0.4129  0.2472
16481TIP3    H170858   5.103   2.365   4.285 -1.4099  0.3268 -0.4095
16481TIP3    H270859   5.028   2.307   4.403  0.2349 -0.3812  0.3251
16482TIP3   OH270860   3.310   6.192  11.308 -0.0126  0.2285 -0.0856
16482TIP3    H170861   3.251   6.158  11.241 -1.7939 -0.1974  1.6249
16482TIP3    H270862   3.355   6.114  11.343 -0.8491  0.1385  0.8209
16483TIP3   OH270863   0.315   0.470   3.973 -0.0692  0.2370  0.2614
16483TIP3    H170864   0.248   0.420   3.927  0.8362 -0.3532 -0.4629
16483TIP3    H270865   0.390   0.411   3.977  0.7383  1.2315  0.1506
16484TIP3   OH270866   1.329   6.517   3.911  0.6879 -0.4019 -0.0661
16484TIP3    H170867   1.417   6.489   3.935  0.9068 -0.9393 -1.4143
16484TIP3    H270868   1.338   6.551   3.822 -0.0571  1.6846  0.6045
16485TIP3   OH270869   4.648   6.538   3.790 -0.2407  0.2087 -0.1694
16485TIP3    H170870   4.677   6.479   3.859 -0.7530 -1.2266 -1.1308
16485TIP3    H270871   4.715   6.530   3.722  0.5819  2.0690  0.3614
16486TIP3   OH270872   1.408   4.313  13.538 -0.0835  0.0643  0.6644
16486TIP3    H170873   1.371   4.238  13.586  0.4598  0.4860  1.7662
16486TIP3    H270874   1.480   4.344  13.593  1.4084 -0.2281 -1.0500
16487TIP3   OH270875   1.267   3.356   4.337  0.2268  0.0628  0.5407
16487TIP3    H170876   1.253   3.359   4.242  1.2204 -1.4496  0.3127
16487TIP3    H270877   1.359   3.382   4.348  0.3214 -0.4581  1.0077
16488TIP3   OH270878   2.318   2.895   4.113  0.5928  0.0276 -0.5759
16488TIP3    H170879   2.230   2.933   4.111  0.5973  0.0693 -2.6224
16488TIP3    H270880   2.375   2.970   4.131  0.2364  0.0250  0.6276
16489TIP3   OH270881   5.867   3.811  13.101  0.2003  0.2521 -0.0834
16489TIP3    H170882   5.821   3.744  13.152  1.1029 -0.2298  0.1138
16489TIP3    H270883   5.959   3.802  13.126  0.4491  1.0107 -0.6820
16490TIP3   OH270884   0.084   4.655   3.484 -0.1017 -0.1401 -0.4790
16490TIP3    H170885   0.014   4.709   3.522  0.3218  0.0704  0.0090
16490TIP3    H270886   0.089   4.684   3.393  1.0514  1.6586  0.0960
16491TIP3   OH270887   4.762   0.676   1.666 -0.1261 -0.1686 -0.3350
16491TIP3    H170888   4.784   0.654   1.575 -0.9184 -1.2349 -0.2791
16491TIP3    H270889   4.717   0.760   1.660 -0.7348 -0.5348 -0.9973
16492TIP3   OH270890   1.476   0.044  11.137 -0.5445 -0.2809 -0.1437
16492TIP3    H170891   1.484   0.075  11.227 -3.7139  0.3266  0.0586
16492TIP3    H270892   1.467   0.123  11.085 -1.1858 -0.6797 -0.6553
16493TIP3   OH270893   1.401   1.484   0.210 -0.2180 -0.3895  0.2789
16493TIP3    H170894   1.354   1.482   0.294 -0.0777 -0.9392  0.3447
16493TIP3    H270895   1.469   1.550   0.222 -0.9637  0.4108  0.1854
16494TIP3   OH270896   5.484   5.740  12.865  0.0362  0.5380 -0.3369
16494TIP3    H170897   5.517   5.729  12.775  0.1910 -0.5595 -0.1637
16494TIP3    H270898   5.408   5.681  12.870  0.5165 -0.0376  0.4855
16495TIP3   OH270899   3.744   4.065   0.334 -0.2491 -0.3229 -0.0451
16495TIP3    H170900   3.730   4.099   0.422  1.3110 -1.3942  0.6646
16495TIP3    H270901   3.704   4.130   0.276  1.4806  2.0730  1.2786
16496TIP3   OH270902   2.758   4.523   0.847 -0.1486 -0.4772  0.0832
16496TIP3    H170903   2.666   4.548   0.855  0.3721  1.3281  1.1517
16496TIP3    H270904   2.757   4.442   0.796 -2.3052 -0.4354 -0.0331
16497TIP3   OH270905   2.733   4.832   5.562  0.1639  0.3770 -0.6682
16497TIP3    H170906   2.809   4.775   5.547  2.5704  3.0561  0.4166
16497TIP3    H270907   2.761   4.918   5.532 -2.2277  1.6444  0.4282
16498TIP3   OH270908   3.275   1.107   2.910  0.2285  0.4650 -0.5244
16498TIP3    H170909   3.367   1.111   2.885  0.0836 -1.9315 -1.6590
16498TIP3    H270910   3.228   1.099   2.827 -0.9258  0.4302  0.1074
16499TIP3   OH270911   5.751   2.811   1.055 -0.1370 -0.1560  1.4042
16499TIP3    H170912   5.708   2.798   0.971 -0.2182 -0.1045  1.4371
16499TIP3    H270913   5.781   2.724   1.081  1.9199  0.1457  0.2431
16500TIP3   OH270914   3.762   6.503  11.962  0.5865 -0.7116 -0.0013
16500TIP3    H170915   3.733   6.426  12.010 -0.1592 -0.0666  0.6077
16500TIP3    H270916   3.857   6.503  11.973  0.7444 -2.2355 -1.0987
16501TIP3   OH270917   5.638   2.232   5.962  0.3063  0.1923 -0.1626
16501TIP3    H170918   5.622   2.212   6.054  0.3213 -0.0105 -0.2037
16501TIP3    H270919   5.552   2.251   5.926  0.3498  0.6985 -0.0070
16502TIP3   OH270920   6.295   3.741  15.438 -0.2886  0.0713  0.5012
16502TIP3    H170921   6.215   3.744  15.385  1.3134  1.5719 -2.0298
16502TIP3    H270922   6.293   3.655  15.480 -1.6239 -1.3243 -2.1807
16503TIP3   OH270923   6.723   5.179   3.292 -0.1612 -0.1114 -0.1626
16503TIP3    H170924   6.776   5.257   3.307 -0.8082 -0.1063  2.7496
16503TIP3    H270925   6.640   5.198   3.335 -1.0658 -1.6535 -1.1441
16504TIP3   OH270926   2.300   0.456  13.717 -0.0911 -0.5167  0.2858
16504TIP3    H170927   2.273   0.373  13.758 -1.9135 -0.2505 -0.2942
16504TIP3    H270928   2.219   0.505  13.707  0.5260  0.1388 -2.0704
16505TIP3   OH270929   5.699   2.704   2.018 -0.4387 -0.4769  0.1125
16505TIP3    H170930   5.620   2.759   2.025  0.2262  0.5074  0.0056
16505TIP3    H270931   5.675   2.622   2.063 -1.2174  0.1526  0.8802
16506TIP3   OH270932   4.254   3.596   2.644  0.0414 -0.2027 -0.1542
16506TIP3    H170933   4.177   3.605   2.700 -0.5153 -1.9707 -0.5938
16506TIP3    H270934   4.250   3.674   2.588 -0.6946  0.3879  0.6684
16507TIP3   OH270935   0.415   1.412   2.137  0.6827  0.4279 -0.5389
16507TIP3    H170936   0.460   1.347   2.083  1.4556  1.6073 -1.3770
16507TIP3    H270937   0.454   1.495   2.110 -0.4130  1.2530  0.3664
16508TIP3   OH270938   1.935   2.272   4.758  0.0906 -0.2618 -0.2026
16508TIP3    H170939   2.027   2.250   4.748  0.4852 -0.0618  2.3290
16508TIP3    H270940   1.909   2.229   4.839 -1.7819  0.5096 -0.3447
16509TIP3   OH270941   6.092   5.052  15.545 -0.2444  0.0252 -0.5797
16509TIP3    H170942   6.064   5.144  15.549 -1.3471 -0.3142 -0.0332
16509TIP3    H270943   6.086   5.021  15.635 -3.2061 -1.4775 -1.1789
16510TIP3   OH270944   4.555   0.528  15.755  0.1013  0.4873 -0.2744
16510TIP3    H170945   4.495   0.595  15.721 -1.2502  0.5182  1.9637
16510TIP3    H270946   4.602   0.572  15.826 -0.4724 -0.7817  0.9247
16511TIP3   OH270947   5.263   5.658  13.490  0.1835  0.6590  0.6626
16511TIP3    H170948   5.230   5.626  13.574 -0.7145 -2.1502 -0.6410
16511TIP3    H270949   5.354   5.631  13.489 -0.2500 -0.8324  0.0723
16512TIP3   OH270950   1.287   5.181  12.482 -0.5898  0.3807  0.0918
16512TIP3    H170951   1.281   5.219  12.570 -0.6781 -1.8470  1.1021
16512TIP3    H270952   1.318   5.253  12.428 -1.5978  2.1489  1.7113
16513TIP3   OH270953   5.191   0.606   0.443 -0.0662 -0.0128 -0.1641
16513TIP3    H170954   5.129   0.536   0.425  1.2397 -0.8153 -1.8550
16513TIP3    H270955   5.267   0.562   0.481 -0.1755  0.8462  1.1342
16514TIP3   OH270956   6.010   0.077  15.200  0.4065 -0.3449  0.1355
16514TIP3    H170957   5.979   0.050  15.114  2.0260 -0.0751 -0.5727
16514TIP3    H270958   6.085   0.133  15.182 -0.9014  2.0580  1.6514
16515TIP3   OH270959   3.596   4.199   4.533 -0.0098  0.0885 -0.0004
16515TIP3    H170960   3.690   4.213   4.549  0.0280  0.9400 -0.8333
16515TIP3    H270961   3.581   4.238   4.447 -1.5816  2.0848  1.0955
16516TIP3   OH270962   2.467   2.331  16.366 -0.0075 -0.5834  0.3572
16516TIP3    H170963   2.380   2.368  16.380 -0.2807 -0.7733 -0.7126
16516TIP3    H270964   2.525   2.385  16.420 -0.4439  1.1545 -0.8235
16517TIP3   OH270965   2.867   2.547  17.056  0.0879 -0.1916  0.3431
16517TIP3    H170966   2.940   2.609  17.062  1.0397 -1.3466  1.4425
16517TIP3    H270967   2.839   2.535  17.147 -0.3833 -1.0052  0.1025
16518TIP3   OH270968   3.566   3.700  11.728  0.4148 -0.0264 -0.1685
16518TIP3    H170969   3.644   3.678  11.779  0.8410 -1.0499 -1.2057
16518TIP3    H270970   3.598   3.760  11.660  0.3068 -0.4624 -0.6079
16519TIP3   OH270971   0.409   5.738   1.188  0.4299 -0.1209 -0.1499
16519TIP3    H170972   0.323   5.696   1.196 -1.1370  2.3531 -2.2896
16519TIP3    H270973   0.418   5.789   1.268 -0.6288  0.4507 -0.3756
16520TIP3   OH270974   5.532   6.130   2.176  0.2563  0.0668 -0.1468
16520TIP3    H170975   5.552   6.207   2.228 -0.0599  0.2372 -0.2708
16520TIP3    H270976   5.580   6.059   2.218 -0.0579  0.1843  0.4275
16521TIP3   OH270977   5.190   0.265   2.249 -0.0971 -0.0780  0.7191
16521TIP3    H170978   5.101   0.260   2.215  0.2526  0.5917 -0.3419
16521TIP3    H270979   5.184   0.227   2.337 -1.3742 -0.2550  0.5781
16522TIP3   OH270980   6.149   5.107  12.804 -0.0454 -0.3080 -0.6583
16522TIP3    H170981   6.196   5.110  12.888 -0.1967  1.0120 -0.5934
16522TIP3    H270982   6.204   5.157  12.744 -2.2162  3.0936 -0.0763
16523TIP3   OH270983   5.467   5.112   0.602  0.3890 -0.2745  0.2516
16523TIP3    H170984   5.512   5.176   0.547 -1.9628  0.5555 -0.8180
16523TIP3    H270985   5.480   5.029   0.556 -0.3175  0.1790 -0.8096
16524TIP3   OH270986   0.526   1.056   1.644  0.1803  0.4013  0.6005
16524TIP3    H170987   0.449   1.032   1.696  0.6934 -0.8991  0.8133
16524TIP3    H270988   0.540   1.149   1.663  0.0583  0.0956  2.4400
16525TIP3   OH270989   0.423   2.701   3.885  0.1584  0.5514  0.5532
16525TIP3    H170990   0.448   2.780   3.836  0.0322  0.7371  0.7870
16525TIP3    H270991   0.498   2.684   3.943  1.5396 -1.2412 -1.5810
16526TIP3   OH270992   3.582   0.601   3.000 -0.5026  0.5021 -0.3725
16526TIP3    H170993   3.658   0.552   2.968  0.3440  1.2676  0.4155
16526TIP3    H270994   3.529   0.534   3.045  0.9721  0.3613  1.2844
16527TIP3   OH270995   2.403   1.108  16.931  0.1693  0.1276  0.3284
16527TIP3    H170996   2.438   1.122  17.019 -0.6762 -4.1357  1.5867
16527TIP3    H270997   2.309   1.096  16.944 -0.4488  2.0074 -1.6557
16528TIP3   OH270998   6.247   6.578   2.501 -0.0492  0.1681 -0.2449
16528TIP3    H170999   6.275   6.669   2.496 -0.1842  0.1971 -0.5289
16528TIP3    H271000   6.152   6.583   2.514  0.3283  0.1188  3.7260
16529TIP3   OH271001   0.938   3.529   3.002 -0.6291  0.3605  0.4466
16529TIP3    H171002   0.994   3.569   2.935 -0.5820  0.3275  0.4665
16529TIP3    H271003   0.993   3.524   3.079 -0.5968  0.1423  0.4089
16530TIP3   OH271004   3.469   4.931  14.159 -0.8720  0.0924  0.0098
16530TIP3    H171005   3.485   4.906  14.250  0.2871  3.0971  0.7178
16530TIP3    H271006   3.408   5.004  14.164 -1.2516 -0.0644 -1.6954
16531TIP3   OH271007   4.148   6.644   5.897  0.0917  0.2916  0.2283
16531TIP3    H171008   4.161   6.726   5.849 -1.3291  0.7326  0.5344
16531TIP3    H271009   4.055   6.645   5.921  0.3321 -0.8191  1.3214
16532TIP3   OH271010   4.963   6.339  11.024  0.2812 -0.4197  0.1511
16532TIP3    H171011   4.943   6.323  10.932 -2.1752  2.3842  0.0447
16532TIP3    H271012   4.881   6.320  11.070  1.3387 -1.3491  1.7262
16533TIP3   OH271013   2.251   4.754  15.328 -0.1726 -0.2276  0.3133
16533TIP3    H171014   2.191   4.686  15.358 -2.0515  1.3284  0.2650
16533TIP3    H271015   2.301   4.713  15.258 -1.6788 -1.3969 -0.1190
16534TIP3   OH271016   0.286   2.504   3.746 -0.9769  0.2352  0.5836
16534TIP3    H171017   0.301   2.570   3.815 -0.2017 -0.2358  0.8858
16534TIP3    H271018   0.244   2.431   3.792  0.2491 -0.3956  0.7347
16535TIP3   OH271019   1.324   2.053  12.888 -0.0594 -0.4025  0.1021
16535TIP3    H171020   1.368   2.037  12.972 -0.2162 -1.7828 -0.0596
16535TIP3    H271021   1.390   2.094  12.833  0.1907  0.0607  0.7420
16536TIP3   OH271022   6.607   1.496  16.135  0.3377  0.0370 -0.2967
16536TIP3    H171023   6.536   1.432  16.136 -0.2522  0.6359 -1.5313
16536TIP3    H271024   6.679   1.451  16.179 -0.8944 -0.4377  1.3126
16537TIP3   OH271025   4.971   6.632   4.438 -0.2028  0.6314  0.0588
16537TIP3    H171026   5.056   6.661   4.406  0.1007 -1.2509 -0.9965
16537TIP3    H271027   4.909   6.658   4.370 -0.1844  0.3468 -0.0679
16538TIP3   OH271028   1.046   1.580   5.561 -0.2142 -0.2704  0.3773
16538TIP3    H171029   1.067   1.651   5.500  0.7506  0.5818  1.6537
16538TIP3    H271030   1.093   1.504   5.526  2.4354  0.8081  1.3512
16539TIP3   OH271031   2.301   0.246  14.886  0.4072  0.3203  0.5081
16539TIP3    H171032   2.259   0.162  14.868  3.1023 -0.6469 -2.1702
16539TIP3    H271033   2.246   0.311  14.842 -1.3876 -0.0292  2.1074
16540TIP3   OH271034   2.921   0.310  12.874 -0.2802  0.3123  0.0443
16540TIP3    H171035   2.881   0.225  12.895 -0.2548  0.5252  1.0301
16540TIP3    H271036   2.879   0.371  12.934  1.0213  0.6588  0.6437
16541TIP3   OH271037   2.753   0.564   0.867  0.2093  0.4450  0.5010
16541TIP3    H171038   2.723   0.650   0.837 -0.5610  0.5331  1.4359
16541TIP3    H271039   2.689   0.502   0.831 -0.0944  0.4399  1.0228
16542TIP3   OH271040   5.075   5.725  16.698 -0.2431 -0.1319 -0.0007
16542TIP3    H171041   5.155   5.675  16.713 -1.6258 -2.6691 -0.6291
16542TIP3    H271042   5.010   5.687  16.757 -0.9944  2.0526  0.7039
16543TIP3   OH271043   1.591   1.393   0.415  0.4502  0.2452  0.6793
16543TIP3    H171044   1.511   1.391   0.468 -1.0565  0.6493 -1.4410
16543TIP3    H271045   1.560   1.380   0.325  2.9571 -1.1601 -0.0702
16544TIP3   OH271046   3.462   1.896  13.076 -0.5573  0.3313 -0.9307
16544TIP3    H171047   3.488   1.901  13.168  0.2579 -0.0825 -1.1239
16544TIP3    H271048   3.432   1.984  13.054 -0.0468  0.6256 -0.4669
16545TIP3   OH271049   5.251   6.751   4.419 -0.4818 -0.1449 -0.3884
16545TIP3    H171050   5.207   6.831   4.449  1.0625  0.4468  0.4366
16545TIP3    H271051   5.325   6.782   4.367  0.8752 -0.9443  0.9759
16546TIP3   OH271052   2.340   2.111   2.576 -1.0798 -0.1090  0.1707
16546TIP3    H171053   2.333   2.203   2.601 -0.1771  0.7773 -2.4954
16546TIP3    H271054   2.422   2.106   2.527 -0.2551 -2.7225  1.6314
16547TIP3   OH271055   3.947   5.050  15.479 -0.2893 -0.2836  0.3330
16547TIP3    H171056   4.017   5.100  15.437  0.7990 -1.3726  0.8108
16547TIP3    H271057   3.989   4.971  15.512 -2.2453 -2.5408 -2.0596
16548TIP3   OH271058   3.653   4.979   4.488  0.0234  0.2323  0.1495
16548TIP3    H171059   3.612   5.065   4.499  0.5187  0.2505  2.3553
16548TIP3    H271060   3.729   4.981   4.546  1.7040 -0.7170 -1.8990
16549TIP3   OH271061   5.811   4.005  17.130  0.6888  0.1740 -0.3286
16549TIP3    H171062   5.848   4.078  17.079  0.0279  0.4175 -0.4623
16549TIP3    H271063   5.812   3.931  17.069 -1.7531  0.8792 -1.3528
16550TIP3   OH271064   6.702   4.319  10.966 -0.3262 -0.4073  0.0182
16550TIP3    H171065   6.687   4.404  10.925  3.8278  0.7469  0.4135
16550TIP3    H271066   6.703   4.337  11.060 -0.0922 -1.0059  0.1346
16551TIP3   OH271067   0.382   6.260   5.903 -0.2896  0.1743  0.1980
16551TIP3    H171068   0.347   6.283   5.817 -0.0465 -0.1337  0.0137
16551TIP3    H271069   0.305   6.231   5.952 -0.4206  0.2910  0.0643
16552TIP3   OH271070   2.535   2.223  14.036  1.0830 -0.2092 -0.0200
16552TIP3    H171071   2.525   2.301  14.091  0.8097 -0.4297  0.2501
16552TIP3    H271072   2.446   2.188  14.027  1.2564 -0.7366  0.2345
16553TIP3   OH271073   2.115   5.179   2.288  0.0435 -0.1261 -0.3120
16553TIP3    H171074   2.199   5.184   2.333 -0.4745  2.1498  0.5187
16553TIP3    H271075   2.113   5.256   2.231 -2.2330  1.0543  1.1931
16554TIP3   OH271076   6.063   6.113  17.044 -0.6560 -0.0621 -0.0534
16554TIP3    H171077   6.036   6.026  17.073 -0.1967 -0.9136 -2.0064
16554TIP3    H271078   5.992   6.143  16.989 -1.1806  1.2007  1.2424
16555TIP3   OH271079   0.019   1.194  11.115  0.8189 -0.1411  0.3492
16555TIP3    H171080   0.095   1.140  11.091  1.4823  0.4657  1.0388
16555TIP3    H271081  -0.031   1.139  11.176  1.3554 -0.0836  0.8472
16556TIP3   OH271082   0.929   6.640   5.483 -0.2472 -0.7762 -0.0908
16556TIP3    H171083   1.007   6.611   5.531 -1.6938  0.0918  3.0727
16556TIP3    H271084   0.859   6.633   5.547 -2.0209  2.5717 -1.4644
16557TIP3   OH271085   1.046   1.117  13.063 -0.2078 -0.1382 -0.1162
16557TIP3    H171086   1.113   1.123  12.995 -0.2091  0.8298 -0.0533
16557TIP3    H271087   1.030   1.024  13.074  0.1386 -0.3214 -1.1048
16558TIP3   OH271088   6.025   5.604   0.492 -0.3754 -0.1907 -0.7204
16558TIP3    H171089   5.975   5.523   0.486 -0.8768  0.1212 -0.8450
16558TIP3    H271090   6.114   5.576   0.516 -0.7345 -0.7194  0.0487
16559TIP3   OH271091   5.757   1.314   4.822 -0.0140 -0.5920 -0.4703
16559TIP3    H171092   5.692   1.374   4.784  0.4074 -1.0475 -1.9861
16559TIP3    H271093   5.758   1.336   4.915  1.8313  3.4044 -1.2314
16560TIP3   OH271094   6.038   3.203  16.172  0.6769 -0.3653  0.0053
16560TIP3    H171095   6.059   3.224  16.263  1.5335 -1.3916  0.0644
16560TIP3    H271096   6.049   3.286  16.125  0.9660 -0.0001  0.7103
16561TIP3   OH271097   0.747   0.699  14.147  0.5210  0.3733  0.2674
16561TIP3    H171098   0.799   0.777  14.126  0.1581  0.4933 -0.2065
16561TIP3    H271099   0.714   0.715  14.235 -1.7584  2.0056 -0.7971
16562TIP3   OH271100   1.743   1.418   2.463 -0.1451 -0.0219 -0.4102
16562TIP3    H171101   1.722   1.354   2.395  0.3471 -1.0054  0.3455
16562TIP3    H271102   1.725   1.503   2.422  0.0282 -0.5955 -1.7236
16563TIP3   OH271103   0.173   1.538  16.746  0.4501  0.6000 -0.5099
16563TIP3    H171104   0.165   1.633  16.734  0.5019  0.5138 -1.2424
16563TIP3    H271105   0.144   1.524  16.837  1.6682  1.4651  0.0469
16564TIP3   OH271106   0.707   2.202  11.511  0.1077  0.4124 -0.0407
16564TIP3    H171107   0.632   2.258  11.493  1.4524  1.9536 -1.1150
16564TIP3    H271108   0.670   2.126  11.556 -1.9821  1.4271  0.0620
16565TIP3   OH271109   4.046   5.818  15.820 -0.9118 -0.9060 -0.0429
16565TIP3    H171110   4.028   5.782  15.907 -0.1909 -2.7014 -0.5865
16565TIP3    H271111   4.054   5.741  15.764  0.1293  0.1476 -1.4055
16566TIP3   OH271112   3.864   3.402  12.993  0.1712  0.1063 -0.6208
16566TIP3    H171113   3.901   3.324  13.034  0.0516  0.3632 -0.0132
16566TIP3    H271114   3.791   3.427  13.051 -0.8770 -0.3148 -1.7149
16567TIP3   OH271115   2.179   0.103  17.029  0.6856  0.3005  0.0293
16567TIP3    H171116   2.169   0.190  16.990 -1.3461  0.4914  0.8672
16567TIP3    H271117   2.093   0.083  17.066  1.2346 -1.8813  0.2686
16568TIP3   OH271118   6.288   5.752  13.491 -0.2576 -0.1821  0.4449
16568TIP3    H171119   6.209   5.722  13.447  0.0015 -3.7366  2.0480
16568TIP3    H271120   6.259   5.825  13.546 -2.4283 -1.2627  0.8434
16569TIP3   OH271121   0.551   0.524  13.488  0.4604 -0.3656  0.5488
16569TIP3    H171122   0.613   0.476  13.543  0.2302  1.6789  2.7959
16569TIP3    H271123   0.596   0.607  13.469 -0.1893 -0.3124 -0.8852
16570TIP3   OH271124   0.765   1.994  12.587  0.5263  0.5489 -0.1756
16570TIP3    H171125   0.839   1.984  12.528  1.2480  0.6673  0.6795
16570TIP3    H271126   0.805   2.014  12.672 -0.4700  0.2154  0.3902
16571TIP3   OH271127   0.430   4.008   1.413 -0.3133 -0.2895  0.4397
16571TIP3    H171128   0.404   4.046   1.329 -2.4320 -1.0107  0.7303
16571TIP3    H271129   0.420   4.079   1.476  0.7210  0.0866  0.1996
16572TIP3   OH271130   1.314   4.840  12.936  0.5029 -0.3318  0.0166
16572TIP3    H171131   1.388   4.884  12.896  0.6233  0.2823  0.8951
16572TIP3    H271132   1.351   4.794  13.012 -0.2573  1.4487  1.5353
16573TIP3   OH271133   2.332   0.711  11.662  0.2075  0.7748  0.5791
16573TIP3    H171134   2.317   0.668  11.577  0.3024  0.6941  0.6022
16573TIP3    H271135   2.249   0.700  11.709  0.3077  0.4032  0.6766
16574TIP3   OH271136   5.700   4.714   3.342  0.2924  0.4775 -0.2710
16574TIP3    H171137   5.635   4.782   3.324  0.6537  1.0953  0.7497
16574TIP3    H271138   5.756   4.714   3.264  0.0189  1.0246 -0.4744
16575TIP3   OH271139   2.560   0.403  16.292  0.7065 -0.2437  0.0555
16575TIP3    H171140   2.616   0.325  16.282  1.9559  0.7414 -1.0565
16575TIP3    H271141   2.620   0.477  16.281 -0.2436  0.9399  2.2011
16576TIP3   OH271142   2.077   5.525  15.958  0.1625  0.4280 -0.0847
16576TIP3    H171143   2.013   5.504  15.891  0.6724  0.6518 -0.6513
16576TIP3    H271144   2.155   5.475  15.934  0.6713  1.2685 -0.2253
16577TIP3   OH271145   3.004   3.461  11.175 -0.1265  0.2896  0.2056
16577TIP3    H171146   3.054   3.428  11.249  0.4921 -1.0800 -0.7722
16577TIP3    H271147   2.912   3.454  11.203  0.0939 -0.3336  0.7886
16578TIP3   OH271148   3.877   2.068   5.089  0.3062 -0.4378 -0.2752
16578TIP3    H171149   3.847   2.155   5.116  0.9163  0.0911 -1.2483
16578TIP3    H271150   3.846   2.010   5.158  0.4142  0.6355  0.7116
16579TIP3   OH271151   3.923   6.111  13.215 -0.3611  0.4847  0.1315
16579TIP3    H171152   3.860   6.090  13.283 -0.4131  1.9215  0.5638
16579TIP3    H271153   3.928   6.032  13.161 -0.9097 -0.3897  1.3325
16580TIP3   OH271154   1.478   4.659  11.013  0.2240 -0.4613 -0.2097
16580TIP3    H171155   1.513   4.706  11.089  0.1936 -0.7293 -0.0290
16580TIP3    H271156   1.503   4.568  11.027  0.1730 -0.5213 -0.4965
16581TIP3   OH271157   6.601   6.338  11.628  0.0500  0.3208 -0.1442
16581TIP3    H171158   6.695   6.348  11.616 -0.0564  1.1742 -0.2921
16581TIP3    H271159   6.572   6.423  11.662 -0.7643  0.2674 -0.6967
16582TIP3   OH271160   0.522   0.808  12.597 -0.5679 -0.3220  0.4342
16582TIP3    H171161   0.599   0.844  12.640 -0.4793  0.9653 -0.7394
16582TIP3    H271162   0.449   0.859  12.631 -0.3691  1.5561 -1.7256
16583TIP3   OH271163   5.139   5.908   5.364  0.3319  0.2580 -0.0025
16583TIP3    H171164   5.170   5.820   5.340  0.9049  0.1081  1.2029
16583TIP3    H271165   5.218   5.962   5.362  0.4387  0.2177  1.5403
16584TIP3   OH271166   1.546   2.582  15.764 -0.1848 -0.3922 -0.4843
16584TIP3    H171167   1.593   2.660  15.734 -0.4476 -0.2225 -0.4588
16584TIP3    H271168   1.456   2.612  15.778  0.4523  0.3250  3.2992
16585TIP3   OH271169   0.911   1.316   3.775  0.1394 -0.1776  0.1781
16585TIP3    H171170   0.924   1.225   3.802 -0.5203 -0.1355  0.6613
16585TIP3    H271171   0.966   1.326   3.697  2.3989 -0.2142  1.6561
16586TIP3   OH271172   5.451   6.362  12.434 -0.4991  0.3965 -0.2673
16586TIP3    H171173   5.397   6.332  12.507 -1.8162 -2.0875 -2.1549
16586TIP3    H271174   5.390   6.377  12.363  0.7272  3.0651 -0.8836
16587TIP3   OH271175   2.435   1.919   4.276 -0.2001  0.4637  0.2465
16587TIP3    H171176   2.365   1.902   4.213  0.8215  0.9460 -1.0689
16587TIP3    H271177   2.456   1.833   4.312 -1.1483  0.2561  0.3228
16588TIP3   OH271178   0.795   1.722  12.333  0.2064 -0.2531  0.3150
16588TIP3    H171179   0.783   1.808  12.294 -1.4369 -0.8372 -0.5735
16588TIP3    H271180   0.876   1.729  12.384  0.5262  1.5591 -0.3856
16589TIP3   OH271181   2.355   2.176   2.111  0.4537 -0.3398  0.0765
16589TIP3    H171182   2.306   2.204   2.188  0.2082  0.6010 -0.4146
16589TIP3    H271183   2.288   2.161   2.044  0.8007  0.6183 -0.4970
16590TIP3   OH271184   1.574   4.456   2.925 -0.3604 -0.1593  0.0817
16590TIP3    H171185   1.552   4.366   2.948  0.7822 -0.7224 -0.9234
16590TIP3    H271186   1.668   4.464   2.941 -0.2984  0.6222 -0.5572
16591TIP3   OH271187   0.697   1.730   3.059 -0.1384 -0.0352 -0.2499
16591TIP3    H171188   0.737   1.785   2.992  0.3018  0.0864  0.1134
16591TIP3    H271189   0.763   1.664   3.079 -0.3726 -0.2345 -0.1284
16592TIP3   OH271190   6.671   1.364   1.172 -0.2905 -0.7236 -0.4791
16592TIP3    H171191   6.597   1.379   1.115  1.2579 -1.8232 -2.9446
16592TIP3    H271192   6.733   1.313   1.119  2.3635  0.3760  1.3210
16593TIP3   OH271193   5.178   1.410   5.496 -0.1013  0.5518 -0.8754
16593TIP3    H171194   5.142   1.326   5.466 -1.0262  0.4317  0.4448
16593TIP3    H271195   5.159   1.411   5.590  1.8825  1.2708 -0.4349
16594TIP3   OH271196   1.835   1.170  11.817  0.3597  0.7208 -0.6841
16594TIP3    H171197   1.906   1.106  11.812 -0.5074 -0.2466 -1.1634
16594TIP3    H271198   1.869   1.248  11.775  1.1770  0.3074 -0.8072
16595TIP3   OH271199   1.766   5.242   3.598 -0.5372 -0.3503 -0.7048
16595TIP3    H171200   1.838   5.178   3.596  1.1572  1.4689 -0.9552
16595TIP3    H271201   1.807   5.324   3.572 -2.0570  1.4102  2.0111
16596TIP3   OH271202   1.078   5.497   1.323 -0.5311  0.1521 -0.1572
16596TIP3    H171203   1.155   5.441   1.331  0.5758  1.5133 -0.7202
16596TIP3    H271204   1.058   5.525   1.412  0.1262  0.3939 -0.0762
16597TIP3   OH271205   6.665   4.024   2.239  0.0797  0.3415  0.3495
16597TIP3    H171206   6.608   4.022   2.162  1.9060  1.7670 -1.1305
16597TIP3    H271207   6.667   4.116   2.266  0.5399  0.0731  1.2959
16598TIP3   OH271208   4.408   4.736  16.028  0.1645 -0.2080 -0.6058
16598TIP3    H171209   4.445   4.753  16.114  3.8887  0.5923 -2.1711
16598TIP3    H271210   4.392   4.641  16.027 -0.5090 -0.1471  1.0791
16599TIP3   OH271211   4.418   3.898  16.605  0.2775 -0.0778 -0.4336
16599TIP3    H171212   4.417   3.988  16.637  0.4097  0.1209 -0.9668
16599TIP3    H271213   4.388   3.845  16.678  1.4172  0.2693  0.3152
16600TIP3   OH271214   2.166   0.950  13.557  0.0489 -0.8798 -0.5229
16600TIP3    H171215   2.260   0.963  13.555  0.1623 -1.7128 -0.8291
16600TIP3    H271216   2.131   1.015  13.496  0.0958  1.8211  2.0862
16601TIP3   OH271217   2.967   1.086   3.478  0.0840  0.0387  0.1846
16601TIP3    H171218   2.957   1.046   3.392  0.6015 -2.4365  1.1974
16601TIP3    H271219   2.967   1.180   3.461  0.8007 -0.3821 -2.5872
16602TIP3   OH271220   5.647   1.238  10.293  0.1419 -0.0327  0.1589
16602TIP3    H171221   5.588   1.228  10.219 -0.3301  1.4077  0.3063
16602TIP3    H271222   5.660   1.333  10.301  3.2439 -0.2739 -0.4776
16603TIP3   OH271223   5.444   5.810  10.653  0.9496 -0.2735 -0.0649
16603TIP3    H171224   5.504   5.850  10.590 -0.9379  1.6490 -0.7692
16603TIP3    H271225   5.392   5.749  10.601  0.7955 -0.2367  0.0447
16604TIP3   OH271226   6.462   4.523   2.387 -0.3143  0.2984  0.1915
16604TIP3    H171227   6.553   4.512   2.415 -0.3566  0.1322  0.2636
16604TIP3    H271228   6.419   4.564   2.462 -0.1244  1.0937 -0.1275
16605TIP3   OH271229   6.370   0.317   1.115  0.3127 -0.4838 -0.4528
16605TIP3    H171230   6.350   0.265   1.193  0.7884 -0.5573 -0.3758
16605TIP3    H271231   6.407   0.254   1.053  1.2343 -0.1834 -0.2238
16606TIP3   OH271232   1.981   2.507  15.420 -0.0914 -0.3473  0.4642
16606TIP3    H171233   1.915   2.499  15.351 -0.2379 -0.9702  0.6756
16606TIP3    H271234   1.986   2.601  15.436 -0.7710 -0.2721  0.2948
16607TIP3   OH271235   3.768   1.707   1.049  0.6125  0.6712  0.2723
16607TIP3    H171236   3.685   1.735   1.087  0.6250  0.0637  0.7669
16607TIP3    H271237   3.775   1.614   1.074  2.0394  1.0358  1.3161
16608TIP3   OH271238   3.001   5.707  11.977 -0.4063 -0.0297 -0.4179
16608TIP3    H171239   2.911   5.736  11.992  0.1608  1.8898 -0.4224
16608TIP3    H271240   3.050   5.788  11.964  0.9965 -1.1009 -2.3410
16609TIP3   OH271241   0.502   1.038  15.775  0.2151 -0.3799 -0.0886
16609TIP3    H171242   0.551   0.957  15.785  2.3445  0.6341 -1.5008
16609TIP3    H271243   0.535   1.095  15.844 -0.1239 -0.1876 -0.0824
16610TIP3   OH271244   3.580   1.381   2.713  0.9457  0.7041 -0.0944
16610TIP3    H171245   3.597   1.320   2.642 -0.2251 -0.9674  1.0001
16610TIP3    H271246   3.488   1.405   2.703  0.6787  0.2028  1.0062
16611TIP3   OH271247   4.709   6.013   5.944  0.0664 -0.3064 -0.3976
16611TIP3    H171248   4.685   6.003   6.036  3.1612 -0.0865  0.5781
16611TIP3    H271249   4.659   6.088   5.914 -2.6227 -1.6403  0.3850
16612TIP3   OH271250   3.528   2.427  13.261 -0.7245 -0.1378 -0.1129
16612TIP3    H171251   3.599   2.388  13.210 -0.3851 -0.8146  0.8453
16612TIP3    H271252   3.526   2.519  13.234  1.4692  0.2461  0.8584
16613TIP3   OH271253   3.363   2.020  11.384  0.5027  0.2161  0.1832
16613TIP3    H171254   3.442   2.019  11.329  0.2351  1.2301 -0.2432
16613TIP3    H271255   3.291   2.034  11.323  0.2439  1.8337  0.7941
16614TIP3   OH271256   0.820   5.870  13.922  0.0861 -0.1193 -0.5386
16614TIP3    H171257   0.853   5.960  13.913  2.8069 -1.0074 -0.4439
16614TIP3    H271258   0.897   5.819  13.948 -0.6986 -2.9729 -3.2585
16615TIP3   OH271259   5.450   3.183   5.877 -0.4191 -0.4026 -0.3054
16615TIP3    H171260   5.366   3.227   5.861 -0.2292  1.3448  2.7098
16615TIP3    H271261   5.516   3.252   5.870  0.6611 -1.4780 -1.2579
16616TIP3   OH271262   0.028   3.247  16.201 -0.5257  0.7294 -0.0570
16616TIP3    H171263   0.002   3.185  16.270  1.6652  0.2926  0.4595
16616TIP3    H271264   0.081   3.312  16.247 -1.7447  2.3339 -0.8169
16617TIP3   OH271265   3.861   3.977  16.613 -0.3462  0.0813  0.1621
16617TIP3    H171266   3.787   3.945  16.563  0.7221 -1.6819 -0.3855
16617TIP3    H271267   3.879   3.908  16.677  0.1509  0.9692  1.0201
16618TIP3   OH271268   6.451   1.867  12.064 -0.3569 -0.2670 -0.5170
16618TIP3    H171269   6.484   1.839  12.150 -0.1769 -0.0915 -0.5258
16618TIP3    H271270   6.492   1.953  12.050 -0.6739 -0.1308 -0.6160
16619TIP3   OH271271   0.756   1.778   1.538 -0.0800  0.0690 -0.2311
16619TIP3    H171272   0.693   1.763   1.466 -1.2611  1.4796  0.4541
16619TIP3    H271273   0.822   1.836   1.500 -0.4340  0.4111 -0.3335
16620TIP3   OH271274   4.634   3.862  16.891 -0.0988 -0.0331  0.2480
16620TIP3    H171275   4.641   3.906  16.976 -1.2594 -0.0486  0.3687
16620TIP3    H271276   4.710   3.893  16.841 -0.3788  1.3619  0.6608
16621TIP3   OH271277   6.077   2.472   1.524 -0.1294 -0.4015 -0.6110
16621TIP3    H171278   6.137   2.442   1.593  1.1455 -0.7891 -1.8427
16621TIP3    H271279   6.001   2.415   1.531 -0.2655 -0.0781  0.8126
16622TIP3   OH271280   3.204   3.350  15.199  0.0977 -0.3181 -0.1673
16622TIP3    H171281   3.260   3.372  15.124  1.0662  1.8045  1.0689
16622TIP3    H271282   3.222   3.258  15.217 -0.4619 -1.0166 -2.7324
16623TIP3   OH271283   0.433   6.038  12.319  1.1362 -0.2358  0.0287
16623TIP3    H171284   0.525   6.023  12.341  1.0428 -0.3047  0.3723
16623TIP3    H271285   0.424   6.004  12.230  2.1726  2.4145 -1.2229
16624TIP3   OH271286   0.982   5.041  14.789 -0.2256 -0.2878  0.0987
16624TIP3    H171287   1.000   5.000  14.873  0.8698 -0.7302 -0.3312
16624TIP3    H271288   1.063   5.087  14.766 -0.9869  1.0095 -0.0597
16625TIP3   OH271289   5.793   1.803   5.667  0.7639 -0.2971  0.3393
16625TIP3    H171290   5.747   1.873   5.712  0.4959 -0.2543  0.0000
16625TIP3    H271291   5.858   1.848   5.613 -0.1550 -0.2375 -0.7409
16626TIP3   OH271292   4.983   5.301   0.834 -0.0878  0.1448  0.5965
16626TIP3    H171293   5.043   5.364   0.794  1.4852 -0.0088  2.5503
16626TIP3    H271294   5.015   5.216   0.805 -1.2117  0.1369 -0.7175
16627TIP3   OH271295   4.027   4.915   2.770 -0.5972  0.3766 -0.0469
16627TIP3    H171296   4.064   4.835   2.734 -0.5638  0.3875 -0.0373
16627TIP3    H271297   4.072   4.986   2.723 -0.4644  0.3927  0.1003
16628TIP3   OH271298   1.875   6.007  11.260 -0.1218 -0.1230  0.7799
16628TIP3    H171299   1.844   5.952  11.189 -1.4647 -0.3484  1.5062
16628TIP3    H271300   1.796   6.032  11.307  0.4075  2.5323  0.4151
16629TIP3   OH271301   5.781   2.863   4.213  0.1159 -0.0429 -0.4851
16629TIP3    H171302   5.839   2.824   4.148  0.6887  0.4395 -0.2724
16629TIP3    H271303   5.762   2.791   4.274  1.0481 -0.0450 -0.1784
16630TIP3   OH271304   5.169   1.163   3.840  0.3404 -0.6762 -0.1294
16630TIP3    H171305   5.179   1.088   3.899 -0.8057 -0.6510  0.1135
16630TIP3    H271306   5.161   1.238   3.898 -0.8499 -0.6562 -0.3103
16631TIP3   OH271307   5.750   4.452   3.847  0.8201 -0.1283 -0.6561
16631TIP3    H171308   5.754   4.522   3.782 -0.8674  1.1940  0.5492
16631TIP3    H271309   5.657   4.429   3.851  0.9933 -0.6931  0.7183
16632TIP3   OH271310   3.043   1.063   5.880  0.0867 -0.3795 -0.0726
16632TIP3    H171311   2.992   1.068   5.961 -2.6945  0.2893 -1.7043
16632TIP3    H271312   3.121   1.014   5.903 -0.0423  0.7470  3.2494
16633TIP3   OH271313   1.039   4.434   1.057  0.3994  0.1325 -0.0515
16633TIP3    H171314   1.063   4.372   1.126  1.3520  1.0089  0.4328
16633TIP3    H271315   1.075   4.518   1.087 -2.3361  1.3371  0.1937
16634TIP3   OH271316   3.584   1.715  10.672 -0.2055 -0.0493  0.0073
16634TIP3    H171317   3.665   1.751  10.708 -0.5150  1.2262 -0.5392
16634TIP3    H271318   3.570   1.762  10.590 -1.6913  0.0306  0.2631
16635TIP3   OH271319   4.074   4.475  10.853 -0.2013  0.0990  0.5004
16635TIP3    H171320   4.046   4.407  10.915  0.3468 -3.2218 -2.5350
16635TIP3    H271321   4.027   4.453  10.772  1.3514  2.3448 -1.1071
16636TIP3   OH271322   3.522   3.186  13.169  0.1057 -0.3919 -0.1294
16636TIP3    H171323   3.433   3.193  13.203 -0.3401 -1.9683 -0.8511
16636TIP3    H271324   3.566   3.124  13.227  0.4014 -0.4598 -0.4220
16637TIP3   OH271325   2.642   0.883   1.034  0.0211  0.1593  0.2964
16637TIP3    H171326   2.679   0.851   0.951 -0.2156  0.5570  0.0329
16637TIP3    H271327   2.613   0.804   1.079  0.6106 -0.1045  0.2251
16638TIP3   OH271328   4.507   4.406  10.599 -0.4426 -0.0526  0.8450
16638TIP3    H171329   4.427   4.388  10.648 -0.2457  0.9612  1.5591
16638TIP3    H271330   4.531   4.321  10.560 -1.9127 -0.3411  0.5195
16639TIP3   OH271331   6.748   0.864  10.188 -0.4004  0.0493 -0.3228
16639TIP3    H171332   6.727   0.816  10.269 -2.7104 -0.1524 -0.9891
16639TIP3    H271333   6.822   0.920  10.213 -0.8195 -0.2482  1.8421
16640TIP3   OH271334   0.461   3.937  12.161 -0.2480 -0.2965 -0.2622
16640TIP3    H171335   0.515   3.866  12.126  1.1745  0.6515 -0.0379
16640TIP3    H271336   0.472   4.009  12.099  0.7810  0.7580  1.0955
16641TIP3   OH271337   4.416   6.484   1.282 -0.1797 -0.6747  0.2485
16641TIP3    H171338   4.461   6.550   1.230 -2.9605  0.1861 -1.3002
16641TIP3    H271339   4.408   6.409   1.224  0.4549 -1.3296  0.9943
16642TIP3   OH271340   4.666   5.518  13.375  0.0469 -0.1485  0.1484
16642TIP3    H171341   4.739   5.552  13.426  0.4649 -1.6073  0.5747
16642TIP3    H271342   4.598   5.498  13.439  0.5926 -2.0373  0.2053
16643TIP3   OH271343   6.733   5.418  13.370  0.3878  0.5850 -0.3672
16643TIP3    H171344   6.721   5.324  13.386  0.9397  0.6407  0.4381
16643TIP3    H271345   6.644   5.452  13.363  0.1592  0.1388  0.2193
16644TIP3   OH271346   6.482   5.116   4.291 -0.3884  0.0138 -0.2312
16644TIP3    H171347   6.447   5.179   4.354  1.4726 -0.2726  1.1608
16644TIP3    H271348   6.563   5.156   4.259  1.5318 -2.0979  1.6460
16645TIP3   OH271349   5.728   1.701   4.929  0.3055  0.1735 -0.8039
16645TIP3    H171350   5.727   1.781   4.875  0.3929  0.9508  0.3238
16645TIP3    H271351   5.648   1.705   4.980  0.2368 -0.5462 -0.8487
16646TIP3   OH271352   3.603   2.310  14.971 -0.4842  0.3419 -0.1628
16646TIP3    H171353   3.675   2.358  14.930 -1.3431 -0.4983 -2.8258
16646TIP3    H271354   3.576   2.365  15.044  3.1119  0.4717  1.2664
16647TIP3   OH271355   5.428   3.319   4.884  0.3550  0.2269  0.0446
16647TIP3    H171356   5.452   3.394   4.829  1.2192 -0.9377 -1.2446
16647TIP3    H271357   5.341   3.340   4.916  0.5908  1.8067 -0.2391
16648TIP3   OH271358   1.022   1.176   1.112 -0.0940 -0.4000  0.7103
16648TIP3    H171359   1.028   1.084   1.086 -2.4030  0.1228 -2.2829
16648TIP3    H271360   0.975   1.175   1.195  1.1937 -1.9177  1.4682
16649TIP3   OH271361   6.604   4.629  16.249  0.2366  0.0449 -0.3181
16649TIP3    H171362   6.691   4.643  16.286  0.1507 -1.6456  0.6445
16649TIP3    H271363   6.550   4.604  16.324 -0.7825 -0.1411 -1.0870
16650TIP3   OH271364   3.791   4.283   2.743 -0.6749 -0.0322 -0.4067
16650TIP3    H171365   3.746   4.339   2.680 -3.3939 -1.2245  0.3403
16650TIP3    H271366   3.837   4.218   2.689 -1.5273  0.0178 -1.2204
16651TIP3   OH271367   3.925   3.021  10.973 -0.0672  0.0004  0.4233
16651TIP3    H171368   3.922   2.996  11.065 -1.8373  0.1295  0.4329
16651TIP3    H271369   3.926   2.937  10.926 -3.4455 -0.2339  0.5199
16652TIP3   OH271370   2.678   6.319   2.631  0.3520  0.0439  0.1887
16652TIP3    H171371   2.645   6.235   2.598  0.5958 -0.3793  0.9999
16652TIP3    H271372   2.740   6.348   2.565  0.3305 -0.4624 -0.0608
16653TIP3   OH271373   6.111   4.222   5.664 -0.2780  0.0555  0.4620
16653TIP3    H171374   6.116   4.188   5.754 -0.2894  1.5833  1.0697
16653TIP3    H271375   6.052   4.162   5.619 -1.6062  0.1915  1.9249
16654TIP3   OH271376   2.938   4.842   2.954  0.5160 -0.3086 -0.4130
16654TIP3    H171377   2.897   4.920   2.918  0.6718 -1.5042 -3.5064
16654TIP3    H271378   3.019   4.874   2.995  1.2978  1.0785 -2.8383
16655TIP3   OH271379   6.319   4.376  16.342 -0.2187  0.5493  0.4023
16655TIP3    H171380   6.325   4.371  16.246 -1.4436  1.4792  0.2454
16655TIP3    H271381   6.324   4.285  16.371 -0.3676  0.2108 -0.5889
16656TIP3   OH271382   1.881   2.243   3.047  0.1166 -0.4367  0.0565
16656TIP3    H171383   1.820   2.304   3.088  1.0903  0.1444  0.6953
16656TIP3    H271384   1.878   2.265   2.954 -1.4525 -1.1656 -0.1051
16657TIP3   OH271385   4.067   5.148   4.895  0.6244  0.1380  0.5095
16657TIP3    H171386   4.070   5.052   4.893 -0.7737  0.1019 -1.0393
16657TIP3    H271387   3.986   5.168   4.941 -0.1741  0.5356 -1.0324
16658TIP3   OH271388   3.762   2.545   3.362  0.4556 -0.0518  0.0026
16658TIP3    H171389   3.682   2.494   3.347  0.4906 -0.3051  0.6383
16658TIP3    H271390   3.777   2.590   3.279 -0.2844 -0.0906 -0.1661
16659TIP3   OH271391   4.021   3.138   0.030  0.3769 -0.2656 -0.0949
16659TIP3    H171392   4.081   3.160  -0.041 -1.1187 -1.5507 -1.8662
16659TIP3    H271393   4.074   3.093   0.094  1.3958 -1.0881 -1.4590
16660TIP3   OH271394   0.629   6.498   2.614  0.8020 -0.6360 -0.7499
16660TIP3    H171395   0.598   6.543   2.535 -0.1917 -0.2336 -0.1452
16660TIP3    H271396   0.594   6.409   2.605  0.2098 -0.4373 -0.5147
16661TIP3   OH271397   0.755   1.732   3.561 -0.3466  0.1144 -0.5511
16661TIP3    H171398   0.735   1.750   3.652  0.7998  0.3689 -0.3290
16661TIP3    H271399   0.741   1.637   3.552  0.8125 -0.1639  0.2639
16662TIP3   OH271400   2.400   5.750  11.609  0.2518  0.1656 -0.8204
16662TIP3    H171401   2.372   5.658  11.603 -0.4236  0.1394  1.4870
16662TIP3    H271402   2.480   5.747  11.661  0.9447  0.8048 -1.8302
16663TIP3   OH271403   5.569   0.149  16.007 -0.5188 -0.3521 -0.5077
16663TIP3    H171404   5.660   0.176  16.019 -0.3378 -0.8619 -0.7680
16663TIP3    H271405   5.518   0.223  16.042 -0.0217  0.2948 -1.1213
16664TIP3   OH271406   0.723   0.463  14.006 -0.6748  0.2317  0.5721
16664TIP3    H171407   0.730   0.543  14.059 -0.4840  1.9986 -1.9345
16664TIP3    H271408   0.807   0.458  13.959 -1.6956  0.1543 -1.3405
16665TIP3   OH271409   3.711   5.619  11.820 -0.4879  0.4242  0.0186
16665TIP3    H171410   3.623   5.593  11.794 -1.1891  1.9404  0.7573
16665TIP3    H271411   3.724   5.579  11.906 -0.5378  0.3574 -0.0056
16666TIP3   OH271412   0.584   2.925  16.457 -0.2498 -0.4776 -0.4453
16666TIP3    H171413   0.509   2.868  16.474 -0.3819 -0.0693  0.3922
16666TIP3    H271414   0.603   2.966  16.542  0.4691 -0.0336 -0.8087
16667TIP3   OH271415   0.728   3.889  12.374 -0.1307  0.1946 -0.4463
16667TIP3    H171416   0.771   3.926  12.297  0.5723 -1.9329 -1.1573
16667TIP3    H271417   0.696   3.804  12.345  0.3729 -0.7959  1.6437
16668TIP3   OH271418   2.548   4.669   1.180  0.2130 -0.5446  0.1007
16668TIP3    H171419   2.469   4.638   1.136 -0.2393 -1.4510  1.4853
16668TIP3    H271420   2.522   4.752   1.221  0.9077  0.8201 -2.0609
16669TIP3   OH271421   5.775   0.937   4.486  0.0522 -0.7661  0.1785
16669TIP3    H171422   5.729   0.991   4.422  0.6691  0.6259  0.8584
16669TIP3    H271423   5.867   0.944   4.461  0.2500 -0.5834  0.9284
16670TIP3   OH271424   6.698   0.332  12.398  0.6644 -0.6125 -0.1196
16670TIP3    H171425   6.726   0.274  12.469  0.6883 -0.5402 -0.0696
16670TIP3    H271426   6.612   0.299  12.373  1.6341 -2.1773 -1.7001
16671TIP3   OH271427   0.995   3.420   0.962 -0.1377  0.0227 -0.0992
16671TIP3    H171428   1.077   3.374   0.975  0.7506  1.3375 -0.8482
16671TIP3    H271429   0.984   3.423   0.867 -0.7555  0.3645 -0.0228
16672TIP3   OH271430   6.516   6.241  16.159 -0.8203 -0.2396  0.1809
16672TIP3    H171431   6.436   6.270  16.202  0.1439 -0.2069  2.0761
16672TIP3    H271432   6.584   6.251  16.226  1.3782  2.5366 -2.2035
16673TIP3   OH271433   4.557   5.542   1.670  0.0889  0.0017 -0.1888
16673TIP3    H171434   4.551   5.473   1.736  2.1740 -1.0682 -1.0180
16673TIP3    H271435   4.579   5.621   1.720 -0.8530 -0.2321  0.6242
16674TIP3   OH271436   4.896   4.851  13.058 -0.3093  0.0728  0.0010
16674TIP3    H171437   4.825   4.886  13.112  0.3622  0.2815  0.7723
16674TIP3    H271438   4.966   4.832  13.120  1.3322  2.4205 -0.9756
16675TIP3   OH271439   6.754   4.896   5.448  0.2953 -0.2060  0.0906
16675TIP3    H171440   6.820   4.922   5.384 -0.9970  1.7263 -0.5374
16675TIP3    H271441   6.679   4.868   5.395  0.4793 -2.2094  0.7933
16676TIP3   OH271442   3.258   2.558  15.004 -0.3153  0.6104 -0.3148
16676TIP3    H171443   3.266   2.595  15.092  1.3649  2.0300 -1.0157
16676TIP3    H271444   3.283   2.629  14.946 -0.7761 -0.5015 -1.9244
16677TIP3   OH271445   5.930   0.915   5.447 -0.5075  0.4891 -0.5285
16677TIP3    H171446   5.994   0.952   5.386 -0.0068  1.3929  0.4884
16677TIP3    H271447   5.855   0.890   5.393  1.0006 -1.3897 -1.8808
16678TIP3   OH271448   1.749   4.882   4.665  0.4384 -0.8345 -0.0608
16678TIP3    H171449   1.804   4.933   4.726 -0.5767 -1.0126  1.0280
16678TIP3    H271450   1.689   4.834   4.722 -0.6253 -0.9044 -1.2239
16679TIP3   OH271451   6.613   4.882  16.824 -0.5770  0.2844 -0.8604
16679TIP3    H171452   6.609   4.847  16.735  0.6608  0.5576 -1.0350
16679TIP3    H271453   6.676   4.826  16.870  1.4587  2.2178 -1.1491
16680TIP3   OH271454   6.788   2.930   1.188  0.3690  0.0191  0.0460
16680TIP3    H171455   6.864   2.901   1.238  0.5662  0.5304  0.0516
16680TIP3    H271456   6.824   2.960   1.104  0.0154 -1.0427 -0.5068
16681TIP3   OH271457   3.280   1.942   1.069 -0.1366 -0.4284 -0.0112
16681TIP3    H171458   3.249   1.872   1.126 -1.3912  1.2834  1.5253
16681TIP3    H271459   3.216   1.944   0.997  0.8869 -1.9321 -1.0278
16682TIP3   OH271460   2.996   3.464   1.880 -0.3459  0.5795  0.4863
16682TIP3    H171461   2.990   3.401   1.808  0.9609  0.1084  0.7681
16682TIP3    H271462   3.086   3.457   1.911 -0.7671  1.0820  1.9025
16683TIP3   OH271463   0.994   0.149   2.237 -0.4557 -0.4988  0.0079
16683TIP3    H171464   1.006   0.104   2.320  0.2701  0.8753  0.6862
16683TIP3    H271465   0.970   0.238   2.261  0.8906  0.2400 -1.2108
16684TIP3   OH271466   5.294   1.982  16.722  1.2365  0.5689 -0.1705
16684TIP3    H171467   5.273   2.058  16.669  2.9781  0.2764 -1.3819
16684TIP3    H271468   5.372   2.008  16.772  0.8759  0.1249  0.6410
16685TIP3   OH271469   0.557   1.022   2.363 -0.1082  0.1550  0.6289
16685TIP3    H171470   0.490   1.087   2.342  0.0597  0.1100 -0.0675
16685TIP3    H271471   0.625   1.034   2.296  0.7889  0.4948  1.5839
16686TIP3   OH271472   4.190   1.477   5.731  0.0658  0.7218 -0.3315
16686TIP3    H171473   4.128   1.520   5.672  1.3372  0.9840 -1.5341
16686TIP3    H271474   4.188   1.385   5.705 -1.6939  0.2060  1.3798
16687TIP3   OH271475   5.699   2.039   2.606 -0.1356 -0.4037  0.7319
16687TIP3    H171476   5.656   1.958   2.634  0.6189 -0.3692  2.0686
16687TIP3    H271477   5.651   2.109   2.650 -0.9222 -0.0673 -0.5873
16688TIP3   OH271478   5.033   5.553   2.516  0.2596 -0.1454  0.8430
16688TIP3    H171479   4.986   5.612   2.574  1.2016 -0.5624  2.0880
16688TIP3    H271480   4.972   5.536   2.444 -0.3553  1.6007  0.9115
16689TIP3   OH271481   6.510   1.892  13.930  0.0157 -0.3623  0.0884
16689TIP3    H171482   6.431   1.839  13.943 -1.3136  1.6910  0.8067
16689TIP3    H271483   6.525   1.934  14.014  0.9615  0.4908 -0.4869
16690TIP3   OH271484   6.378   1.350  15.281 -0.4855  0.1229 -0.0492
16690TIP3    H171485   6.434   1.320  15.353  2.0568 -1.0878 -2.3192
16690TIP3    H271486   6.397   1.444  15.274  0.6881 -0.1052 -0.2452
16691TIP3   OH271487   2.600   6.647  14.013 -0.1862  0.2293 -0.1184
16691TIP3    H171488   2.671   6.681  13.959  0.0150 -1.3245 -0.8867
16691TIP3    H271489   2.550   6.724  14.038 -0.1003  1.0523 -2.2861
16692TIP3   OH271490   4.553   3.978   4.206  0.2769  0.0779  0.5556
16692TIP3    H171491   4.473   3.951   4.160  0.7380  0.0543 -0.2539
16692TIP3    H271492   4.586   4.053   4.155 -0.0875  1.1329  1.8110
16693TIP3   OH271493   2.447   0.281   2.061  0.3666 -0.0851 -0.3402
16693TIP3    H171494   2.399   0.363   2.075 -0.4886 -0.7766  0.9514
16693TIP3    H271495   2.491   0.264   2.144 -0.0273 -1.2788 -0.3543
16694TIP3   OH271496   2.260   0.014  10.392  0.5582 -0.2347  0.3935
16694TIP3    H171497   2.288  -0.015  10.305 -0.7793 -0.8684  0.1527
16694TIP3    H271498   2.165  -0.001  10.393  0.3350  1.0556  1.4672
16695TIP3   OH271499   0.132   1.723  14.583 -0.5353  0.6957  0.1348
16695TIP3    H171500   0.135   1.818  14.599 -1.3019  0.9418 -1.0375
16695TIP3    H271501   0.216   1.703  14.543 -0.6650  1.0377 -0.3205
16696TIP3   OH271502   2.430   0.196   3.874 -0.4544  0.3223 -0.0814
16696TIP3    H171503   2.509   0.183   3.821 -0.4675  0.0049 -0.0257
16696TIP3    H271504   2.452   0.269   3.932 -0.4756  0.7287 -0.5895
16697TIP3   OH271505   3.961   5.693   1.660 -0.1221 -0.1955  0.0261
16697TIP3    H171506   3.993   5.623   1.603 -0.8648  1.4283 -2.5724
16697TIP3    H271507   4.008   5.771   1.631 -2.1815  1.1272  0.0619
16698TIP3   OH271508   6.393   6.057   0.160 -0.2494 -0.7610  0.1696
16698TIP3    H171509   6.425   5.972   0.190  0.3350 -0.7098 -0.2913
16698TIP3    H271510   6.386   6.048   0.065  1.5471  0.2532 -0.1063
16699TIP3   OH271511   3.387   1.412  16.333  0.4562 -0.5754  0.3758
16699TIP3    H171512   3.327   1.359  16.387 -0.2071 -0.1426  0.0805
16699TIP3    H271513   3.467   1.418  16.385  0.2609 -1.2073  0.7610
16700TIP3   OH271514   0.194   5.549   3.115 -0.6001 -0.1345 -0.4644
16700TIP3    H171515   0.103   5.568   3.136 -0.4188 -0.1749  0.4063
16700TIP3    H271516   0.242   5.627   3.142 -0.5732  0.7453 -2.7918
16701TIP3   OH271517   0.252   1.900   3.076  0.2839  0.1287 -0.3807
16701TIP3    H171518   0.271   1.897   2.982 -0.6608 -0.8226 -0.5698
16701TIP3    H271519   0.337   1.913   3.118  0.8041 -0.0759 -1.3406
16702TIP3   OH271520   4.499   4.712  17.051 -0.0672 -0.5065  0.2047
16702TIP3    H171521   4.418   4.670  17.081  0.5229 -0.9029  1.3139
16702TIP3    H271522   4.565   4.683  17.114  0.6304  1.0636  0.2426
16703TIP3   OH271523   2.630   0.287  12.660  0.1103 -0.2500  0.2046
16703TIP3    H171524   2.549   0.336  12.678 -0.6320 -1.3448 -0.0694
16703TIP3    H271525   2.681   0.295  12.741 -1.3882 -1.6410  1.3518
16704TIP3   OH271526   6.740   5.402   5.649 -0.2734  0.0609 -0.3459
16704TIP3    H171527   6.666   5.454   5.680  0.5928  0.2438  1.5816
16704TIP3    H271528   6.815   5.461   5.655  0.4963 -0.9669  0.5442
16705TIP3   OH271529   0.395   1.714   3.522  0.1617 -0.1539  0.4916
16705TIP3    H171530   0.462   1.662   3.477  1.1429  1.3733  0.1098
16705TIP3    H271531   0.320   1.714   3.462 -0.5497 -2.5430  1.2724
16706TIP3   OH271532   3.837   0.658   1.023 -0.7752 -0.0871 -0.4714
16706TIP3    H171533   3.870   0.746   1.008  0.2332 -0.3524  0.1029
16706TIP3    H271534   3.772   0.644   0.954 -0.3796  0.8094 -1.0379
16707TIP3   OH271535   2.268   1.019   5.568 -0.5416 -0.1105  0.0540
16707TIP3    H171536   2.216   0.942   5.591 -0.3543 -0.0801  0.5838
16707TIP3    H271537   2.265   1.022   5.472 -0.3090 -0.9465  0.0140
16708TIP3   OH271538   4.897   5.765   5.415  0.6836  0.2029  0.7572
16708TIP3    H171539   4.971   5.818   5.443 -0.0043  0.0753  3.0172
16708TIP3    H271540   4.822   5.824   5.417  0.4524 -0.0625  0.1079
16709TIP3   OH271541   5.939   0.942   1.138  0.2471 -0.0881 -0.2226
16709TIP3    H171542   6.004   0.982   1.197  0.3373  1.8134 -1.5290
16709TIP3    H271543   5.982   0.863   1.105  0.5714 -0.6638  1.4601
16710TIP3   OH271544   2.795   2.037   1.768  0.4593  0.1441  0.3080
16710TIP3    H171545   2.779   2.050   1.675 -1.0518 -1.3184  0.3111
16710TIP3    H271546   2.811   1.943   1.777 -2.8679 -0.4184  1.8776
16711TIP3   OH271547   5.665   1.907  16.005  0.0119  0.2880  0.0225
16711TIP3    H171548   5.717   1.953  16.071  0.2994  1.0185 -0.6989
16711TIP3    H271549   5.717   1.914  15.925  1.1779 -3.1586  0.2776
16712TIP3   OH271550   5.753   0.759  16.958  0.0477 -0.0616 -0.9963
16712TIP3    H171551   5.682   0.694  16.956 -1.3219  1.1271  2.3421
16712TIP3    H271552   5.707   0.843  16.959  1.6282  0.8316 -1.0920
16713TIP3   OH271553   5.127   0.035  12.513  0.2295  0.1065 -0.6485
16713TIP3    H171554   5.194  -0.028  12.539  0.4373  0.3108 -0.6776
16713TIP3    H271555   5.176   0.116  12.496 -0.1539  0.5900  0.4803
16714TIP3   OH271556   4.781   4.803  11.509  0.3121  0.2533  0.1646
16714TIP3    H171557   4.859   4.823  11.458  0.3424  0.3613  0.2504
16714TIP3    H271558   4.805   4.727  11.562  0.3471  0.2655  0.1660
16715TIP3   OH271559   5.336   4.373  16.866 -0.0745 -0.2563  0.5924
16715TIP3    H171560   5.421   4.390  16.826  0.3557 -1.9631  0.6840
16715TIP3    H271561   5.348   4.396  16.958  0.2207 -0.2918  0.5639
16716TIP3   OH271562   0.041   4.908   2.960 -0.3683 -0.1434 -0.4273
16716TIP3    H171563  -0.047   4.934   2.986 -0.0450  0.1022  0.4685
16716TIP3    H271564   0.037   4.898   2.865 -1.1176  0.7928 -0.5028
16717TIP3   OH271565   1.549   1.765   1.534 -1.3624  0.0530 -0.1841
16717TIP3    H171566   1.464   1.797   1.504 -0.2149  2.4460 -1.1566
16717TIP3    H271567   1.605   1.767   1.457 -0.6522 -2.6589  0.1454
16718TIP3   OH271568   5.256   2.972  11.932  0.8050  0.7301 -0.4668
16718TIP3    H171569   5.231   2.993  11.842  0.6928 -2.3419 -1.2660
16718TIP3    H271570   5.324   2.904  11.923  0.7036  0.2553  1.7449
16719TIP3   OH271571   3.205   1.636  16.933 -0.0814  0.2384  0.3577
16719TIP3    H171572   3.143   1.567  16.910  1.6610 -1.2934  0.0109
16719TIP3    H271573   3.171   1.714  16.891 -0.9848 -0.8778 -1.0790
16720TIP3   OH271574   6.567   6.374  13.662 -0.0832  0.2146  0.5865
16720TIP3    H171575   6.481   6.334  13.656 -0.9367  1.8018  1.5325
16720TIP3    H271576   6.576   6.399  13.754  1.1986  0.4523  0.4112
16721TIP3   OH271577   2.859   0.088  14.547 -0.2648  0.1330 -0.2900
16721TIP3    H171578   2.838   0.156  14.610 -0.4940 -0.2071 -0.0017
16721TIP3    H271579   2.844   0.006  14.593  1.0353 -0.1263 -0.2817
16722TIP3   OH271580   6.350   0.898   4.110  0.1706 -0.5726  0.3161
16722TIP3    H171581   6.365   0.954   4.186  0.8083  2.2104 -1.6518
16722TIP3    H271582   6.437   0.868   4.084  0.5452  1.6074 -1.3357
16723TIP3   OH271583   2.229   3.703  15.531  0.1946  0.0786  0.2700
16723TIP3    H171584   2.186   3.618  15.529 -0.3331  0.3433 -1.2335
16723TIP3    H271585   2.322   3.683  15.542  0.1983 -0.7699 -1.1133
16724TIP3   OH271586   4.183   4.577   4.459 -0.1986 -0.7122 -0.0365
16724TIP3    H171587   4.234   4.574   4.378 -0.9745 -0.1535 -0.5602
16724TIP3    H271588   4.130   4.656   4.451  0.2552 -0.2359  1.3625
16725TIP3   OH271589   6.693   4.493  14.271  0.0137 -0.5378  0.6423
16725TIP3    H171590   6.620   4.461  14.218  0.1549 -1.2897  0.8874
16725TIP3    H271591   6.654   4.519  14.354 -0.0390 -0.4972  0.6048
16726TIP3   OH271592   0.287   4.147  13.027  0.0480  0.1196  0.3792
16726TIP3    H171593   0.258   4.215  13.088  0.7896  0.2840  0.5528
16726TIP3    H271594   0.271   4.183  12.940 -0.4010  0.1466  0.4714
16727TIP3   OH271595   1.641   0.141   5.097  0.3157 -0.1858  0.3154
16727TIP3    H171596   1.680   0.193   5.027 -0.0016  1.7394  1.4842
16727TIP3    H271597   1.549   0.134   5.073  0.2361  0.3518  0.4435
16728TIP3   OH271598   1.193   3.627   2.875  0.3096  0.2567  0.4856
16728TIP3    H171599   1.148   3.709   2.854  1.1690  0.5343 -0.3450
16728TIP3    H271600   1.203   3.583   2.791  1.5568  0.1912  0.6549
16729TIP3   OH271601   6.362   1.776   1.671 -0.0325  0.0851  0.4711
16729TIP3    H171602   6.299   1.705   1.681 -0.1932  0.3328  1.3041
16729TIP3    H271603   6.342   1.836   1.742  0.0580  1.0086 -0.2609
16730TIP3   OH271604   4.913   4.311  14.467 -0.5511 -0.0975 -0.0564
16730TIP3    H171605   4.837   4.369  14.463 -2.8765 -2.9521 -3.2125
16730TIP3    H271606   4.963   4.330  14.388  0.9974  0.3858  0.9958
16731TIP3   OH271607   6.451   6.588   5.795 -0.0048 -0.5041 -0.2993
16731TIP3    H171608   6.471   6.583   5.888  0.7030  0.0775 -0.4032
16731TIP3    H271609   6.374   6.645   5.790 -2.2165 -3.2487  0.1555
16732TIP3   OH271610   0.443   6.428  14.068 -0.2537 -0.2398 -0.2157
16732TIP3    H171611   0.487   6.462  13.990 -0.0453  2.0142  0.8093
16732TIP3    H271612   0.508   6.438  14.138 -1.0726 -0.4968  0.6030
16733TIP3   OH271613   0.631   0.459   5.166  0.5912 -0.3416  0.5455
16733TIP3    H171614   0.658   0.533   5.222  1.4279  0.0718 -0.3842
16733TIP3    H271615   0.660   0.484   5.078  0.9697 -1.8275  0.2286
16734TIP3   OH271616   5.475   0.553   1.660  0.2402 -0.0478 -0.0553
16734TIP3    H171617   5.406   0.494   1.627  0.7650 -0.5684 -0.2367
16734TIP3    H271618   5.450   0.570   1.751  0.0151 -0.4578 -0.0358
16735TIP3   OH271619   5.026   0.171  12.830 -0.1566  0.3484  0.1164
16735TIP3    H171620   5.006   0.264  12.833  0.6697  0.5041  2.4890
16735TIP3    H271621   5.095   0.163  12.765 -1.2210  1.1471 -1.1594
16736TIP3   OH271622   1.536   6.708  14.258 -0.2391 -0.5152 -0.5339
16736TIP3    H171623   1.615   6.722  14.311 -0.9196 -1.0521  0.6792
16736TIP3    H271624   1.533   6.782  14.199 -0.8117  1.5782  1.9342
16737TIP3   OH271625   3.434   4.435  14.156 -0.4915  0.6064  0.4412
16737TIP3    H171626   3.509   4.391  14.116 -0.9835 -1.6649  1.7849
16737TIP3    H271627   3.461   4.527  14.163  1.0731  0.3712 -1.5081
16738TIP3   OH271628   5.694   4.245   6.044 -0.1155  0.4283  0.1747
16738TIP3    H171629   5.669   4.288   6.126 -0.0064 -0.1625  0.5243
16738TIP3    H271630   5.782   4.277   6.026 -0.1531  0.5885  0.2692
16739TIP3   OH271631   0.989   5.292   2.006  0.3408 -0.6073 -0.2455
16739TIP3    H171632   1.025   5.362   2.060 -1.6481 -0.1855  0.6327
16739TIP3    H271633   0.957   5.227   2.069 -0.7355 -0.7874 -0.9533
16740TIP3   OH271634   2.936   3.749   1.872 -0.4759  0.0890  0.3829
16740TIP3    H171635   2.928   3.654   1.861 -0.2578  0.0336  0.6947
16740TIP3    H271636   3.019   3.761   1.918 -0.8547  0.3793  1.0049
16741TIP3   OH271637   5.539   4.346  11.899  0.4667 -0.1712  0.1199
16741TIP3    H171638   5.548   4.430  11.943 -1.8604  0.9121 -1.2242
16741TIP3    H271639   5.508   4.286  11.967  1.7897  0.1246  1.0123
16742TIP3   OH271640   3.074   0.837  11.326 -0.3565  0.2760  0.4148
16742TIP3    H171641   3.013   0.869  11.260  0.6959  2.6286  0.4877
16742TIP3    H271642   3.022   0.830  11.406 -1.0508 -0.0362 -0.0635
16743TIP3   OH271643   4.774   3.643  13.655 -0.5259  0.0946 -0.2207
16743TIP3    H171644   4.835   3.683  13.716  0.9781 -1.1357 -0.8561
16743TIP3    H271645   4.816   3.651  13.570 -2.0411  0.7064 -0.9484
16744TIP3   OH271646   3.362   2.615   0.900  0.0294 -0.0867  0.7235
16744TIP3    H171647   3.362   2.709   0.914  0.6650 -0.1213  1.0080
16744TIP3    H271648   3.455   2.592   0.893 -0.1417 -0.2922 -2.1005
16745TIP3   OH271649   2.565   2.684  15.890 -0.2643 -0.3365  0.1175
16745TIP3    H171650   2.551   2.659  15.981  2.0648  0.0284  0.6365
16745TIP3    H271651   2.610   2.610  15.851  0.7083  0.3707 -0.1332
16746TIP3   OH271652   3.847   1.002   3.191 -0.5387 -0.4332 -0.2066
16746TIP3    H171653   3.808   0.916   3.180 -0.7813 -0.3183 -0.2471
16746TIP3    H271654   3.830   1.026   3.282 -0.2606 -0.5314 -0.1281
16747TIP3   OH271655   2.260   4.811  16.247  0.4833 -0.3812 -0.1866
16747TIP3    H171656   2.321   4.853  16.309 -2.6057  2.0412  1.5279
16747TIP3    H271657   2.195   4.769  16.303 -0.8774 -0.5630 -1.8451
16748TIP3   OH271658   0.787   0.673   1.757 -0.4848  0.1432 -0.0701
16748TIP3    H171659   0.875   0.635   1.757  0.1412  1.3606 -2.6527
16748TIP3    H271660   0.800   0.765   1.780 -1.0611  0.3249 -0.4309
16749TIP3   OH271661   1.520   2.560   4.790 -0.1708 -0.3595  0.2571
16749TIP3    H171662   1.500   2.631   4.730 -1.1124  0.3480  1.3678
16749TIP3    H271663   1.563   2.602   4.864  3.2403 -1.4916 -0.8540
16750TIP3   OH271664   5.896   4.561  11.703  0.2425 -0.2583 -0.0320
16750TIP3    H171665   5.873   4.475  11.668  0.6408 -0.7946  0.9983
16750TIP3    H271666   5.872   4.622  11.633  0.1158 -1.2126 -0.8476
16751TIP3   OH271667   2.465   3.372   0.558  0.1491  0.2366  0.6489
16751TIP3    H171668   2.415   3.363   0.477  0.3628  1.1282  0.4182
16751TIP3    H271669   2.494   3.463   0.559 -0.2606  0.3690  1.9646
16752TIP3   OH271670   5.376   4.441  11.714 -0.1279 -0.6867  0.4165
16752TIP3    H171671   5.385   4.534  11.736 -1.7940 -0.7151  1.3907
16752TIP3    H271672   5.434   4.396  11.775 -0.4610 -0.3849  0.9596
16753TIP3   OH271673   1.351   4.219  12.662 -0.5255  0.3749  0.2244
16753TIP3    H171674   1.353   4.314  12.657 -0.5642  0.3768  0.2537
16753TIP3    H271675   1.375   4.190  12.573  0.9347  0.4101  0.5786
16754TIP3   OH271676   2.452   1.041   3.011  0.5374  0.3592 -0.1655
16754TIP3    H171677   2.469   1.134   3.000 -0.6633  0.7247  0.8837
16754TIP3    H271678   2.489   1.020   3.097  1.6174 -0.3601 -0.7791
16755TIP3   OH271679   3.449   6.306  13.139 -0.3852  0.3879 -0.0156
16755TIP3    H171680   3.412   6.363  13.072 -0.0719 -0.9826 -1.4211
16755TIP3    H271681   3.544   6.311  13.126 -0.2937  0.5688  0.7128
16756TIP3   OH271682   4.772   5.116  14.723 -0.5612 -0.4054 -0.3913
16756TIP3    H171683   4.787   5.028  14.688  0.8954  0.2447 -1.5396
16756TIP3    H271684   4.860   5.153  14.731 -1.2172  1.6105 -1.8230
16757TIP3   OH271685   2.667   2.999  14.133 -0.4959  0.8508  0.3560
16757TIP3    H171686   2.749   2.953  14.155 -0.7857  0.3958  0.4988
16757TIP3    H271687   2.606   2.929  14.111 -1.0247  1.1466  0.8525
16758TIP3   OH271688   5.051   2.635   4.330 -0.1223 -0.1195  0.8551
16758TIP3    H171689   5.127   2.577   4.330  0.7119  0.9455  1.2075
16758TIP3    H271690   5.075   2.706   4.271 -1.0581 -0.0295  0.5762
16759TIP3   OH271691   6.647   2.734  13.522  0.1525  0.6214  0.0378
16759TIP3    H171692   6.722   2.682  13.491 -1.4520 -1.5957 -0.3489
16759TIP3    H271693   6.610   2.773  13.442 -0.8183 -0.7305 -0.2081
16760TIP3   OH271694   1.455   1.661   3.618  0.1088  0.4197  0.8906
16760TIP3    H171695   1.453   1.567   3.598 -2.2695  0.5571  0.1718
16760TIP3    H271696   1.364   1.684   3.632  0.5806  2.7860  0.4084
16761TIP3   OH271697   3.514   4.723  14.691  0.0757 -0.1324  0.5984
16761TIP3    H171698   3.557   4.637  14.687  1.1822  0.4371 -0.1750
16761TIP3    H271699   3.542   4.760  14.774  1.8394  0.5903 -0.2732
16762TIP3   OH271700   0.463   6.494  16.179  0.0929  0.0403 -0.1819
16762TIP3    H171701   0.487   6.420  16.235  0.5275  0.4286  0.1483
16762TIP3    H271702   0.537   6.554  16.184 -0.7318  1.0517  0.4919
16763TIP3   OH271703   1.997   5.862   3.085 -0.5220  0.2410 -0.2701
16763TIP3    H171704   1.943   5.941   3.079  1.7284  1.9513  0.5419
16763TIP3    H271705   1.968   5.819   3.165 -0.3564  1.3804  0.4152
16764TIP3   OH271706   3.352   5.703   5.611  0.2659 -0.0378 -0.3350
16764TIP3    H171707   3.418   5.772   5.612  1.9312 -1.5170 -1.2761
16764TIP3    H271708   3.365   5.656   5.693 -1.5043  1.2754  0.7509
16765TIP3   OH271709   4.939   3.377  11.606 -0.6678 -0.6573 -0.1934
16765TIP3    H171710   4.873   3.387  11.537  0.1353 -2.7944 -1.3688
16765TIP3    H271711   4.923   3.451  11.665 -1.7232  0.9888 -2.3808
16766TIP3   OH271712   6.735   4.715  10.615 -0.1158 -0.1473 -0.3903
16766TIP3    H171713   6.641   4.731  10.625 -0.2496  0.2500 -2.1331
16766TIP3    H271714   6.752   4.724  10.522  1.6332 -0.4276 -0.1351
16767TIP3   OH271715   1.576   6.651  11.343  0.3391 -0.2504 -0.1180
16767TIP3    H171716   1.498   6.700  11.369  0.0247 -0.7949 -0.0125
16767TIP3    H271717   1.559   6.625  11.253  0.2040 -0.7196  0.0333
16768TIP3   OH271718   4.232   4.436   3.670  0.2227 -0.0610  0.4789
16768TIP3    H171719   4.298   4.475   3.728  1.9901 -2.2547  0.0708
16768TIP3    H271720   4.196   4.364   3.721  0.6417 -1.0097 -0.5446
16769TIP3   OH271721   5.469   2.898   5.860  0.0866  0.4463  0.4532
16769TIP3    H171722   5.477   2.992   5.876 -1.4969  1.2578 -2.5858
16769TIP3    H271723   5.376   2.880   5.873 -0.0494 -0.1542 -1.1406
16770TIP3   OH271724   2.262   2.124  14.007  0.5044  0.2272  0.1704
16770TIP3    H171725   2.252   2.186  13.935 -0.6285 -1.1442 -0.9191
16770TIP3    H271726   2.188   2.064  13.997  1.8218 -1.5917  0.8861
16771TIP3   OH271727   4.291   2.693  16.953  0.0244  0.2520  0.3825
16771TIP3    H171728   4.223   2.626  16.961  1.0052 -0.9561 -0.9978
16771TIP3    H271729   4.275   2.733  16.868  1.2751 -0.3489 -0.1595
16772TIP3   OH271730   2.599   5.938  10.720 -0.8635 -0.0941  0.4952
16772TIP3    H171731   2.517   5.977  10.751 -1.3146 -1.4015  1.0317
16772TIP3    H271732   2.604   5.854  10.766  0.2177 -0.5316 -0.3818
16773TIP3   OH271733   4.916   6.723   6.413 -0.2236  0.7491  0.3902
16773TIP3    H171734   4.862   6.678   6.348  0.5583  1.1468 -0.5488
16773TIP3    H271735   4.855   6.780   6.460 -0.6023  1.2836 -0.7347
16774TIP3   OH271736   6.400   6.153   4.456  0.5404  0.3226 -0.5587
16774TIP3    H171737   6.352   6.215   4.403  0.3398  1.3290  0.7494
16774TIP3    H271738   6.485   6.145   4.413  0.8065  2.0249 -0.3908
16775TIP3   OH271739   3.841   2.453  14.912 -0.3425 -0.1012  0.0239
16775TIP3    H171740   3.927   2.488  14.887 -0.3854 -0.2923 -0.4076
16775TIP3    H271741   3.780   2.523  14.889 -0.1771  0.6203  1.6621
16776TIP3   OH271742   1.348   6.802   5.540  0.5058 -0.1675  0.6258
16776TIP3    H171743   1.438   6.833   5.547  0.3271  0.4986  0.1026
16776TIP3    H271744   1.350   6.712   5.572  1.2267  0.0699  1.2616
16777TIP3   OH271745   1.303   5.118  15.004 -0.1508 -0.0757  0.2543
16777TIP3    H171746   1.313   5.114  14.908 -0.7477 -1.5456  0.2152
16777TIP3    H271747   1.381   5.075  15.038 -0.3892 -0.4075  0.3864
16778TIP3   OH271748   4.783   4.170   0.791 -0.5224 -0.5500 -0.2516
16778TIP3    H171749   4.869   4.134   0.770 -0.3479  0.0405 -0.5732
16778TIP3    H271750   4.746   4.196   0.707 -0.8998 -0.5411 -0.0868
16779TIP3   OH271751   0.137   4.221  14.049 -0.4639 -0.7350  0.1309
16779TIP3    H171752   0.196   4.147  14.042 -0.8513 -0.9792 -0.7047
16779TIP3    H271753   0.066   4.202  13.987 -0.6154  0.2810 -0.0412
16780TIP3   OH271754   4.671   5.719   0.171  0.1363  0.4741  0.6026
16780TIP3    H171755   4.654   5.677   0.255 -0.7431  1.0138  0.7132
16780TIP3    H271756   4.722   5.655   0.122 -2.5528 -1.4816  0.1477
16781TIP3   OH271757   3.517   6.302   5.320  0.0087  0.0299 -0.2839
16781TIP3    H171758   3.588   6.344   5.369 -0.0382 -1.8790  1.5605
16781TIP3    H271759   3.554   6.219   5.290 -1.5255 -1.2802  1.2032
16782TIP3   OH271760   0.241   1.526   3.860 -0.2017 -0.4010  0.6796
16782TIP3    H171761   0.195   1.485   3.933  1.2952  0.6645  2.2854
16782TIP3    H271762   0.185   1.508   3.784 -1.1730 -2.6189  1.8317
16783TIP3   OH271763   4.867   2.164  12.008 -0.0778 -0.6623 -0.5332
16783TIP3    H171764   4.877   2.158  12.103 -1.0625  0.7880 -0.2882
16783TIP3    H271765   4.792   2.222  11.996  2.9046  3.3959 -2.1477
16784TIP3   OH271766   0.151   0.553   1.183 -0.0400 -0.2401 -0.1128
16784TIP3    H171767   0.159   0.478   1.124 -0.1129 -0.0681 -0.3423
16784TIP3    H271768   0.238   0.565   1.219  0.2982  0.3928 -1.0935
16785TIP3   OH271769   6.215   6.215  11.052 -0.5315  0.4055  0.6603
16785TIP3    H171770   6.225   6.252  11.140 -2.3556 -0.1612  1.1348
16785TIP3    H271771   6.226   6.291  10.993 -0.1741  0.9458  1.4025
16786TIP3   OH271772   0.139   2.355   6.052  0.0970 -0.0058  0.3852
16786TIP3    H171773   0.099   2.438   6.026 -1.4514 -1.0143 -0.5962
16786TIP3    H271774   0.146   2.360   6.147 -0.9010  0.8504  0.4242
16787TIP3   OH271775   3.083   0.578  12.682  0.1631  0.5872 -0.4052
16787TIP3    H171776   3.091   0.665  12.641 -0.6540  0.1096 -1.6394
16787TIP3    H271777   3.043   0.595  12.767  0.0940  1.4448 -0.5993
16788TIP3   OH271778   2.869   0.552  16.964 -0.0516 -0.8931 -0.1512
16788TIP3    H171779   2.810   0.536  17.037 -2.2153 -0.5864 -1.7415
16788TIP3    H271780   2.865   0.647  16.950 -0.0119 -0.9963 -0.9182
16789TIP3   OH271781   4.736   3.186  15.268 -0.0399  0.6007  0.5052
16789TIP3    H171782   4.754   3.165  15.360 -0.5075 -0.0955  0.4411
16789TIP3    H271783   4.719   3.280  15.268 -2.4982  0.2258  1.5413
16790TIP3   OH271784   0.580   1.140  12.596  0.3558  0.0976 -0.3830
16790TIP3    H171785   0.546   1.226  12.572  0.0745 -0.0347 -0.4564
16790TIP3    H271786   0.503   1.090  12.623  0.5566 -0.0353 -0.0469
16791TIP3   OH271787   6.262   6.431  13.940 -0.0175 -0.4764 -0.1278
16791TIP3    H171788   6.258   6.406  13.847 -0.7903  1.2232 -0.5872
16791TIP3    H271789   6.223   6.519  13.943  2.3801  0.6376  1.3835
16792TIP3   OH271790   3.798   6.417   5.849  0.3369  0.3661 -0.2488
16792TIP3    H171791   3.855   6.422   5.773 -0.2598 -1.9177 -0.9201
16792TIP3    H271792   3.778   6.509   5.871  4.4122  1.3254  0.2240
16793TIP3   OH271793   5.338   6.761  15.869 -0.2917 -0.3950  0.9017
16793TIP3    H171794   5.341   6.853  15.895 -0.1605  0.2408 -1.1520
16793TIP3    H271795   5.249   6.732  15.891 -0.2608  0.1463  1.7598
16794TIP3   OH271796   3.087   3.226  11.984  0.1748  0.6827 -0.4553
16794TIP3    H171797   3.111   3.300  12.040  1.4578  1.3195 -1.7548
16794TIP3    H271798   3.094   3.149  12.040  1.2683  1.3126  0.3073
16795TIP3   OH271799   0.282   4.167  15.171  0.6078 -0.1887 -0.5328
16795TIP3    H171800   0.368   4.156  15.212  0.1684 -0.1238  0.4401
16795TIP3    H271801   0.288   4.120  15.088  1.0463 -1.6344  0.2894
16796TIP3   OH271802   5.217   0.474   5.812  0.1322 -0.0151 -0.0571
16796TIP3    H171803   5.213   0.568   5.797  2.4498  0.4799  1.9091
16796TIP3    H271804   5.187   0.436   5.729 -1.0011  2.4134 -0.8552
16797TIP3   OH271805   4.080   2.734  13.064  0.3817 -0.8369  0.0991
16797TIP3    H171806   4.105   2.815  13.019 -0.8047 -0.9553 -0.8146
16797TIP3    H271807   4.113   2.745  13.153  1.4959  0.0303 -0.3944
16798TIP3   OH271808   2.140   1.048  17.038 -0.4127  0.2654 -0.5166
16798TIP3    H171809   2.092   0.969  17.064  1.1527 -1.0890 -1.4851
16798TIP3    H271810   2.155   1.095  17.120 -2.3132  0.1467 -0.0528
16799TIP3   OH271811   3.040   6.396   1.039  0.2912 -0.1507  0.0191
16799TIP3    H171812   3.010   6.377   0.950  1.3912  4.4674 -1.5746
16799TIP3    H271813   3.123   6.349   1.046  1.1545  0.8811 -2.2115
16800TIP3   OH271814   4.074   0.270  13.339  0.2118 -0.0691  0.0307
16800TIP3    H171815   4.090   0.235  13.251  0.7756  1.4384 -0.4977
16800TIP3    H271816   3.983   0.298  13.338  0.2712  0.1190 -0.1371
16801TIP3   OH271817   3.611   3.690   0.014  0.5281 -0.1986  0.1899
16801TIP3    H171818   3.531   3.741   0.033 -0.1091 -1.8214  2.2121
16801TIP3    H271819   3.583   3.627  -0.053  1.0109  1.2062 -1.4277
16802TIP3   OH271820   2.860   3.868   4.278 -0.1386  0.0501 -0.0390
16802TIP3    H171821   2.815   3.855   4.362 -0.1695  1.6883  0.2243
16802TIP3    H271822   2.894   3.957   4.282 -2.1126  1.0485 -2.6801
16803TIP3   OH271823   1.147   6.196   5.665 -0.3552  0.3074  0.0384
16803TIP3    H171824   1.199   6.209   5.744 -1.4376  0.8796  0.6780
16803TIP3    H271825   1.056   6.197   5.695 -0.7831  0.3435 -1.1843
16804TIP3   OH271826   4.690   0.097   1.880 -0.5761  0.0435  0.1287
16804TIP3    H171827   4.616   0.091   1.819  0.8530  1.3072 -1.8744
16804TIP3    H271828   4.700   0.009   1.915 -1.9180 -0.5662 -0.9216
16805TIP3   OH271829   1.882   3.335  15.860 -0.3033 -0.1809  0.0326
16805TIP3    H171830   1.804   3.366  15.906  0.3444  0.2277  0.8865
16805TIP3    H271831   1.900   3.403  15.795 -0.7282 -0.3423 -0.2580
16806TIP3   OH271832   0.089   3.868  14.597 -0.2521  0.2380  0.3200
16806TIP3    H171833   0.176   3.831  14.586 -0.2711  0.2845  0.0041
16806TIP3    H271834   0.045   3.810  14.660  0.4494  0.9686  1.5248
16807TIP3   OH271835   0.781   6.031   0.528  0.5450 -0.2476  0.2425
16807TIP3    H171836   0.810   6.014   0.618 -0.2775 -0.7361  0.4303
16807TIP3    H271837   0.687   6.046   0.535  0.3264 -1.0687 -0.6246
16808TIP3   OH271838   0.159   2.847   4.551  0.7516  0.2702  0.6077
16808TIP3    H171839   0.190   2.937   4.545  0.2359  0.4071 -0.0720
16808TIP3    H271840   0.101   2.836   4.476  3.0596 -1.5227 -1.0567
16809TIP3   OH271841   5.212   4.507  14.488  0.1239  0.3938 -0.6816
16809TIP3    H171842   5.291   4.539  14.445  0.8605 -0.6869 -0.1694
16809TIP3    H271843   5.146   4.504  14.419  0.4003  1.6926 -1.0261
16810TIP3   OH271844   3.078   2.883   5.754  1.0107  0.0084  0.6217
16810TIP3    H171845   3.032   2.800   5.763  0.8904 -0.0069 -0.1103
16810TIP3    H271846   3.076   2.902   5.660  2.2833  0.1359  0.6098
16811TIP3   OH271847   3.928   5.621  11.660  0.9827 -0.1442 -0.0458
16811TIP3    H171848   3.851   5.581  11.700  1.7316 -3.5107 -1.6397
16811TIP3    H271849   3.904   5.714  11.649 -1.9769 -0.6216  1.3950
16812TIP3   OH271850   3.734   4.599  16.580 -0.4525 -0.1730  0.4318
16812TIP3    H171851   3.718   4.691  16.601  1.9895  0.5080 -0.3351
16812TIP3    H271852   3.647   4.563  16.562 -1.3197  2.6885 -1.9446
16813TIP3   OH271853   2.311   2.360  16.039 -0.1315  0.2819  0.2263
16813TIP3    H171854   2.284   2.330  15.952 -2.1948  1.3517  0.4284
16813TIP3    H271855   2.360   2.287  16.076 -1.3894 -1.1873 -0.8711
16814TIP3   OH271856   4.659   2.584   4.508 -0.6328 -0.5896  0.0483
16814TIP3    H171857   4.653   2.584   4.603 -0.1778 -1.3259  0.0848
16814TIP3    H271858   4.731   2.644   4.488  0.2574 -1.5619  0.2538
16815TIP3   OH271859   3.967   3.064   2.112 -0.3957 -0.3674  0.0174
16815TIP3    H171860   4.004   3.091   2.029 -1.0448  1.0173  0.1550
16815TIP3    H271861   3.904   2.995   2.089  0.6731 -1.2214 -0.4271
16816TIP3   OH271862   0.435   4.959  16.318  0.9483  0.3687  0.1943
16816TIP3    H171863   0.471   5.039  16.281  0.4873 -0.7987 -3.1238
16816TIP3    H271864   0.508   4.919  16.365  1.2064  2.5722  1.8516
16817TIP3   OH271865   5.230   3.278   1.552  0.3394  0.3200  0.1953
16817TIP3    H171866   5.152   3.331   1.538 -0.0045 -0.1797  0.1773
16817TIP3    H271867   5.296   3.339   1.585  0.4033  1.0471 -1.1853
16818TIP3   OH271868   4.780   0.056   1.271 -0.5191 -0.3213 -0.3348
16818TIP3    H171869   4.772   0.113   1.347  3.2536  1.1158 -0.8100
16818TIP3    H271870   4.740   0.106   1.199 -1.5944 -0.4853  0.1243
16819TIP3   OH271871   3.441   4.744   3.960  0.3057 -0.3121 -0.0400
16819TIP3    H171872   3.364   4.755   4.015 -0.3552  1.9479 -1.2951
16819TIP3    H271873   3.413   4.683   3.891 -0.4051  0.5286 -0.5136
16820TIP3   OH271874   1.151   0.207   3.588 -0.3637 -0.1908 -0.0853
16820TIP3    H171875   1.094   0.130   3.586  0.8819 -1.1398  0.0997
16820TIP3    H271876   1.158   0.235   3.497  0.4167 -1.2442 -0.3638
16821TIP3   OH271877   1.466   1.188   3.152  0.2404 -0.0203 -0.5093
16821TIP3    H171878   1.374   1.187   3.125 -0.2907  2.6353  0.8648
16821TIP3    H271879   1.510   1.243   3.088  0.2836  0.9817  0.3599
16822TIP3   OH271880   6.077   3.216   2.881 -0.5075  0.1870 -0.2745
16822TIP3    H171881   6.015   3.247   2.948 -1.4445  0.4723 -1.2334
16822TIP3    H271882   6.098   3.127   2.907  1.3086  1.1531  1.8971
16823TIP3   OH271883   2.390   0.715  13.182 -0.1718  0.1316  0.1372
16823TIP3    H171884   2.340   0.671  13.251  1.0504  0.3622  1.1995
16823TIP3    H271885   2.463   0.756  13.228  0.8495  0.0277 -1.3429
16824TIP3   OH271886   1.832   0.021   2.311 -0.0046  0.2998 -0.4901
16824TIP3    H171887   1.854   0.106   2.349 -1.0330  0.4935 -0.3016
16824TIP3    H271888   1.750   0.036   2.264 -1.3441 -1.0420  1.2792
16825TIP3   OH271889   0.390   2.338   5.958 -0.1593  0.6049  0.3935
16825TIP3    H171890   0.296   2.355   5.970 -0.0092  0.7554  1.4639
16825TIP3    H271891   0.433   2.418   5.988  0.2848  1.0736 -1.3722
16826TIP3   OH271892   2.204   0.843  16.016 -0.0325 -0.1661 -0.1024
16826TIP3    H171893   2.127   0.900  16.017  1.0609  1.4355 -1.6996
16826TIP3    H271894   2.183   0.775  15.952 -1.7586 -2.3808  2.5275
16827TIP3   OH271895   3.184   2.962   2.533  0.9984 -0.2529 -0.3928
16827TIP3    H171896   3.141   2.991   2.453 -0.1375 -1.5776 -0.3081
16827TIP3    H271897   3.269   2.928   2.504 -0.3156 -2.9615 -1.4943
16828TIP3   OH271898   2.380   6.301  16.675 -0.5383 -0.2699  0.0858
16828TIP3    H171899   2.385   6.394  16.653  2.0480 -0.2439  0.5368
16828TIP3    H271900   2.362   6.300  16.769  2.3022 -0.0993  0.7052
16829TIP3   OH271901   5.868   1.417   4.360 -0.0689  0.5046 -0.1272
16829TIP3    H171902   5.833   1.375   4.281  0.5212  1.6156 -1.0056
16829TIP3    H271903   5.810   1.388   4.430  0.2915 -1.7458 -0.6811
16830TIP3   OH271904   2.971   0.197   3.716  0.2088 -0.8553  0.2270
16830TIP3    H171905   3.054   0.233   3.748 -0.3212 -0.4826  1.2491
16830TIP3    H271906   2.996   0.134   3.649  1.1974  1.0977 -1.3314
16831TIP3   OH271907   2.755   5.447  16.992 -0.8809 -0.0743  0.0433
16831TIP3    H171908   2.806   5.522  16.961 -0.2042 -1.3832 -2.2258
16831TIP3    H271909   2.669   5.459  16.952 -0.3380 -1.1920 -1.5582
16832TIP3   OH271910   4.352   1.952   1.817 -0.5573  0.2590 -0.0793
16832TIP3    H171911   4.393   2.038   1.806  0.2889 -0.2894 -1.4508
16832TIP3    H271912   4.424   1.894   1.838 -0.9819 -0.3125 -0.1829
16833TIP3   OH271913   1.020   1.767   2.606  0.0968 -0.2522  0.9265
16833TIP3    H171914   1.021   1.676   2.575 -0.9005  0.4047 -1.2408
16833TIP3    H271915   0.927   1.787   2.614  0.2988  0.7803  0.7427
16834TIP3   OH271916   4.771   4.045   5.558 -0.2128  0.2703 -0.2382
16834TIP3    H171917   4.840   3.986   5.588 -0.5206  0.7625  1.5296
16834TIP3    H271918   4.799   4.132   5.587 -0.6514  0.7500 -1.1984
16835TIP3   OH271919   0.600   3.410   2.273 -0.2815 -0.1375  0.2053
16835TIP3    H171920   0.590   3.478   2.206  0.7923 -0.8622 -0.7101
16835TIP3    H271921   0.514   3.404   2.314 -0.9440  0.3327 -1.0888
16836TIP3   OH271922   4.070   1.731   1.414  0.0511 -0.2823  0.0037
16836TIP3    H171923   4.132   1.757   1.482  1.8404  0.9886 -1.9715
16836TIP3    H271924   4.114   1.660   1.368 -0.3679  0.0019 -0.8514
16837TIP3   OH271925   0.228   3.592   1.688  0.8617 -0.3188 -0.4860
16837TIP3    H171926   0.209   3.600   1.595  0.6592 -0.9529 -0.5063
16837TIP3    H271927   0.270   3.675   1.712 -1.0396  0.7571 -0.6634
16838TIP3   OH271928   5.489   2.890  14.733  0.0431  0.2141  0.1628
16838TIP3    H171929   5.418   2.882  14.670  1.6559  1.6195 -1.9828
16838TIP3    H271930   5.479   2.978  14.769 -0.3565 -0.2661  1.2588
16839TIP3   OH271931   2.522   0.119   0.021  0.0040  0.0063  0.6141
16839TIP3    H171932   2.522   0.171  -0.060  3.2579 -1.4703 -0.4782
16839TIP3    H271933   2.547   0.181   0.089  0.2234  0.6538 -0.0446
16840TIP3   OH271934   1.513   5.703  15.499  0.3124  0.1360 -0.5214
16840TIP3    H171935   1.489   5.790  15.529  0.6537  0.8543 -2.2289
16840TIP3    H271936   1.609   5.702  15.501  0.4438  0.8704 -3.2074
16841TIP3   OH271937   4.774   0.973   4.687 -0.1024 -0.4809  0.1085
16841TIP3    H171938   4.809   0.891   4.650  0.6036 -1.3980  2.6315
16841TIP3    H271939   4.762   1.030   4.611  0.9279 -2.3530 -1.5540
16842TIP3   OH271940   6.394   0.073   4.398  0.2046 -0.1262 -0.2598
16842TIP3    H171941   6.320   0.103   4.451  0.2249 -2.2215  1.0854
16842TIP3    H271942   6.472   0.095   4.449  0.3167 -0.8301 -0.1228
16843TIP3   OH271943   3.507   1.462  14.482 -0.5061  0.5973 -0.3284
16843TIP3    H171944   3.471   1.466  14.570 -1.8137  2.2814 -0.8753
16843TIP3    H271945   3.586   1.516  14.485 -0.0658 -0.0531 -0.0046
16844TIP3   OH271946   5.787   3.531   5.027  0.4093 -0.4955  0.1623
16844TIP3    H171947   5.750   3.443   5.023 -0.9069  0.0469  0.0468
16844TIP3    H271948   5.869   3.520   5.074  0.8164 -1.9555 -0.8275
16845TIP3   OH271949   1.579   4.713   4.363  0.7327  0.1298  1.0293
16845TIP3    H171950   1.591   4.767   4.285  0.9720  1.5151  1.9748
16845TIP3    H271951   1.668   4.697   4.394  0.6273 -0.1893  1.1646
16846TIP3   OH271952   3.600   5.137  10.395  0.0005 -0.1457 -0.7486
16846TIP3    H171953   3.549   5.075  10.342  0.2341 -0.7819 -0.2525
16846TIP3    H271954   3.615   5.212  10.337 -2.4079  0.5547 -0.5677
16847TIP3   OH271955   2.704   1.521  16.780  0.0409  0.3070  0.2505
16847TIP3    H171956   2.661   1.577  16.715 -1.3115 -1.4995 -0.5113
16847TIP3    H271957   2.746   1.582  16.840 -2.6923  2.2029  0.4270
16848TIP3   OH271958   1.538   2.681   0.273 -0.1494 -0.2274 -0.0053
16848TIP3    H171959   1.472   2.613   0.263 -0.0660 -0.7234  2.1828
16848TIP3    H271960   1.514   2.725   0.355 -1.0393  3.4064 -1.9851
16849TIP3   OH271961   2.934   0.585   4.190 -0.6134  0.1979  0.2761
16849TIP3    H171962   2.895   0.664   4.152  1.8337  1.7880  0.8043
16849TIP3    H271963   2.962   0.612   4.278  1.5785 -0.7814 -0.0597
16850TIP3   OH271964   6.445   3.901  14.033 -0.1398  0.4605 -0.3982
16850TIP3    H171965   6.386   3.899  13.958 -0.8102  0.7050  0.1190
16850TIP3    H271966   6.439   3.991  14.067 -0.3250  0.1793  0.3324
16851TIP3   OH271967   0.220   6.254  11.283 -0.4494 -0.4251 -0.3004
16851TIP3    H171968   0.313   6.264  11.303 -0.8848 -1.1488  2.4826
16851TIP3    H271969   0.204   6.160  11.293 -1.9201 -0.0154  1.7178
16852TIP3   OH271970   3.003   4.113   4.279 -0.4552  0.9036  0.3195
16852TIP3    H171971   2.990   4.208   4.289  0.1686  0.9165  1.1008
16852TIP3    H271972   3.056   4.088   4.355  1.9174  0.4304 -1.3678
16853TIP3   OH271973   1.323   2.316  12.501  0.5104  0.2769  0.1973
16853TIP3    H171974   1.340   2.227  12.469  0.4077 -0.0436  1.0279
16853TIP3    H271975   1.373   2.372  12.442 -1.0449 -0.1589 -1.6389
16854TIP3   OH271976   4.318   2.483  11.983  1.0418  0.0041 -0.5237
16854TIP3    H171977   4.387   2.467  11.919  2.1146 -1.2002  0.8613
16854TIP3    H271978   4.363   2.481  12.067 -0.4399  0.8318  0.3361
16855TIP3   OH271979   6.692   1.601   1.328  0.4817 -0.0201  0.3539
16855TIP3    H171980   6.711   1.509   1.309  1.3156  0.2679 -0.2416
16855TIP3    H271981   6.608   1.599   1.374  0.3800 -1.0600  0.1400
16856TIP3   OH271982   4.899   4.825  10.812 -0.1250  0.0684 -0.4063
16856TIP3    H171983   4.900   4.840  10.906  1.9720 -0.7894 -0.2208
16856TIP3    H271984   4.943   4.901  10.775  2.5848 -1.2868 -0.2545
16857TIP3   OH271985   2.557   6.320  12.094 -0.4718  0.6710  0.9203
16857TIP3    H171986   2.512   6.351  12.015  0.0172 -0.7969  0.0332
16857TIP3    H271987   2.487   6.311  12.158 -1.2193 -0.0635  0.0369
16858TIP3   OH271988   0.135   5.365  12.322 -0.0171  0.0478 -0.0195
16858TIP3    H171989   0.152   5.273  12.341  1.3697  0.4446  0.7830
16858TIP3    H271990   0.218   5.399  12.289 -0.4916  1.0207 -0.2565
16859TIP3   OH271991   4.869   2.008  10.789 -0.2433 -0.2855 -1.0582
16859TIP3    H171992   4.876   1.918  10.755  0.8913  0.4116 -2.7992
16859TIP3    H271993   4.932   2.058  10.737 -0.7076  1.4966  0.0188
16860TIP3   OH271994   2.973   5.318  11.049  0.0934  0.0678  0.2503
16860TIP3    H171995   2.925   5.340  10.969 -0.3710  1.7522  0.9593
16860TIP3    H271996   3.015   5.234  11.029 -1.1447 -0.2476 -1.2541
16861TIP3   OH271997   4.100   4.225   1.935  0.0291  0.5349  0.4097
16861TIP3    H171998   4.160   4.217   1.862 -2.6840  1.3757 -2.1216
16861TIP3    H271999   4.077   4.134   1.957 -0.7913  0.2550 -1.3762
16862TIP3   OH272000   5.698   5.976  10.823  0.4428 -0.3377  0.3926
16862TIP3    H172001   5.772   5.993  10.764 -1.3066 -0.2428 -1.9444
16862TIP3    H272002   5.679   6.061  10.862  0.2007  0.1711 -0.7649
16863TIP3   OH272003   2.397   0.649  13.989 -0.1135  0.3990  0.3819
16863TIP3    H172004   2.422   0.729  13.945  2.9373 -1.3523 -1.4069
16863TIP3    H272005   2.428   0.660  14.079  0.1342  1.2531  0.1987
16864TIP3   OH272006   6.743   3.579   1.571  0.1800  0.2112 -0.1334
16864TIP3    H172007   6.725   3.534   1.653  0.7959  1.6872  0.8662
16864TIP3    H272008   6.770   3.510   1.510  1.6109 -0.7201  1.4784
16865TIP3   OH272009   1.404   5.961  15.564 -0.2737  0.0099 -0.0691
16865TIP3    H172010   1.323   6.010  15.549 -1.4889 -0.8411  2.9672
16865TIP3    H272011   1.443   6.002  15.641  0.4734 -1.6044  0.4491
16866TIP3   OH272012   4.201   6.089  11.123 -0.5065  0.5492  0.1096
16866TIP3    H172013   4.120   6.087  11.071 -0.5363  1.4188  0.1078
16866TIP3    H272014   4.171   6.093  11.214 -0.4605  0.0017  0.1482
16867TIP3   OH272015   6.508   1.094  11.255 -0.0647 -0.3084  0.0026
16867TIP3    H172016   6.531   1.183  11.228 -0.0219 -0.3706 -0.1636
16867TIP3    H272017   6.541   1.087  11.345  0.4735 -0.3619 -0.1955
16868TIP3   OH272018   5.878   6.619  17.155  0.7257 -0.2254  0.7029
16868TIP3    H172019   5.918   6.658  17.077 -0.4789 -1.9905 -0.8922
16868TIP3    H272020   5.943   6.558  17.188  0.1302 -1.7268 -0.7855
16869TIP3   OH272021   5.582   2.836  15.242  0.0066 -0.3041  0.1588
16869TIP3    H172022   5.576   2.771  15.312  0.8268 -1.2245 -0.5887
16869TIP3    H272023   5.655   2.805  15.188  0.4830  1.3052 -0.1615
16870TIP3   OH272024   5.673   5.457  16.479 -0.4301  0.4488  0.4355
16870TIP3    H172025   5.761   5.495  16.477 -0.6327  0.9421 -1.5218
16870TIP3    H272026   5.688   5.364  16.498  0.2924  0.9323  2.4803
16871TIP3   OH272027   6.266   3.431  16.939  0.3715  0.4507  0.3274
16871TIP3    H172028   6.353   3.465  16.958 -0.1303  1.5548  0.6930
16871TIP3    H272029   6.280   3.337  16.924  1.7275  0.7428 -0.3762
16872TIP3   OH272030   0.324   0.795  15.583 -0.0574 -0.0259 -0.3712
16872TIP3    H172031   0.296   0.831  15.499  2.8574  2.1128 -0.5513
16872TIP3    H272032   0.299   0.861  15.647  0.9736  0.0864 -0.0626
16873TIP3   OH272033   3.519   5.713  15.093  0.3783 -0.0052  0.4994
16873TIP3    H172034   3.585   5.758  15.145  0.6558  1.0135 -0.6876
16873TIP3    H272035   3.464   5.669  15.157  1.7727 -0.2950  1.5549
16874TIP3   OH272036   5.976   3.811  12.122  0.3396  0.1712  0.3920
16874TIP3    H172037   6.065   3.805  12.156  0.8205 -1.6583 -1.0384
16874TIP3    H272038   5.988   3.838  12.030 -0.7268  1.7981  0.6785
16875TIP3   OH272039   1.880   0.784  12.542 -0.0278  0.5608 -0.2368
16875TIP3    H172040   1.866   0.715  12.476  0.4457  1.3029 -1.1319
16875TIP3    H272041   1.836   0.751  12.620  1.8718 -1.6993 -0.0049
16876TIP3   OH272042   2.958   0.016   2.803 -0.3166  0.2861 -0.2436
16876TIP3    H172043   3.042  -0.021   2.776  0.6797  1.3225  1.3179
16876TIP3    H272044   2.893  -0.049   2.774  1.1188 -1.2168 -0.2376
16877TIP3   OH272045   5.269   4.304  11.238  0.3895 -0.3105 -0.1410
16877TIP3    H172046   5.186   4.310  11.192  1.1662 -0.6436 -1.6536
16877TIP3    H272047   5.265   4.374  11.303 -1.3357 -0.7737  0.2924
16878TIP3   OH272048   2.895   5.349  10.792 -0.2846 -0.4921 -0.3707
16878TIP3    H172049   2.925   5.440  10.795 -0.0955 -0.5717  1.1172
16878TIP3    H272050   2.903   5.323  10.701  1.7152  0.3181 -0.4633
16879TIP3   OH272051   5.029   2.057   0.739 -0.2937 -0.2548  0.0898
16879TIP3    H172052   4.950   2.046   0.687 -0.1958 -1.1357  0.1117
16879TIP3    H272053   4.999   2.092   0.822 -0.3392  2.3166 -0.9155
16880TIP3   OH272054   3.643   3.440  13.189 -0.3504  0.5008  0.7678
16880TIP3    H172055   3.600   3.354  13.199 -0.6584  0.4996 -0.4258
16880TIP3    H272056   3.577   3.503  13.218 -0.1650  0.3540  1.5366
16881TIP3   OH272057   6.255   2.199   5.512  0.4322 -0.1742 -0.3003
16881TIP3    H172058   6.244   2.127   5.451 -0.1703 -0.8289  0.5640
16881TIP3    H272059   6.348   2.196   5.536  0.8622  0.5816 -1.7522
16882TIP3   OH272060   2.605   1.807   5.587 -0.5697 -0.0446  0.1332
16882TIP3    H172061   2.673   1.851   5.638 -1.3217  0.8167  0.4114
16882TIP3    H272062   2.549   1.764   5.653  0.1029 -1.3855 -0.1262
16883TIP3   OH272063   0.190   1.065   0.786  0.6349 -0.0272  0.1531
16883TIP3    H172064   0.222   0.977   0.809  1.0786  0.3482  1.0063
16883TIP3    H272065   0.181   1.110   0.870  0.0580  0.6324 -0.2511
16884TIP3   OH272066   0.853   5.806  15.973 -0.0311  0.2943 -0.5240
16884TIP3    H172067   0.945   5.830  15.981  0.4906 -1.2419 -1.4801
16884TIP3    H272068   0.823   5.851  15.894 -0.3160  1.3146  0.1374
16885TIP3   OH272069   4.478   5.598  14.903  0.0381 -0.3590 -0.8952
16885TIP3    H172070   4.515   5.561  14.822 -1.6613 -0.9634 -1.4215
16885TIP3    H272071   4.449   5.522  14.953  0.4717  0.0567  0.0143
16886TIP3   OH272072   0.483   1.835  11.251 -0.3133  0.1142 -0.4221
16886TIP3    H172073   0.471   1.771  11.321 -0.1540  0.2740 -0.2504
16886TIP3    H272074   0.469   1.784  11.170 -0.2155 -0.1304 -0.2857
16887TIP3   OH272075   1.429   6.237   6.194  0.1235 -0.0247 -0.2481
16887TIP3    H172076   1.445   6.320   6.148  0.5140 -0.3126 -0.6463
16887TIP3    H272077   1.468   6.251   6.281  0.3456  0.1510 -0.3725
16888TIP3   OH272078   4.686   0.155   3.245 -0.2177  0.5474  0.4233
16888TIP3    H172079   4.760   0.188   3.296 -0.1887 -0.6313  1.1617
16888TIP3    H272080   4.615   0.216   3.265 -0.0609  0.4110  1.4573
16889TIP3   OH272081   0.969   1.442  13.546  0.1309  0.3839  0.0989
16889TIP3    H172082   0.994   1.355  13.516  1.5212  1.0078 -0.6699
16889TIP3    H272083   1.014   1.453  13.630  0.7999  0.7307 -0.2964
16890TIP3   OH272084   4.222   1.189  12.145 -0.1478 -0.1021  0.2754
16890TIP3    H172085   4.271   1.233  12.215 -0.0621 -0.0253  0.1685
16890TIP3    H272086   4.218   1.098  12.172  0.9291 -0.3097 -0.1942
16891TIP3   OH272087   1.052   0.007  16.873 -0.5449 -0.0184 -0.3629
16891TIP3    H172088   1.092   0.073  16.817 -0.1488 -0.4290 -0.5630
16891TIP3    H272089   1.087  -0.077  16.842  1.2174 -0.1435  1.6990
16892TIP3   OH272090   1.064   5.888  14.856  0.3608 -0.5840  0.2540
16892TIP3    H172091   1.156   5.897  14.832  0.4318 -2.1214 -0.1882
16892TIP3    H272092   1.065   5.833  14.934 -0.0577  1.8671  2.1107
16893TIP3   OH272093   1.031   6.238  13.154 -0.5110 -0.1303 -0.2101
16893TIP3    H172094   0.959   6.180  13.128 -0.0085 -1.9054  2.0824
16893TIP3    H272095   1.013   6.258  13.246  0.6051  1.4871 -0.3065
16894TIP3   OH272096   5.265   0.935   5.557 -0.2174 -0.0232  0.6644
16894TIP3    H172097   5.233   1.006   5.501  2.1498  1.6555  1.3217
16894TIP3    H272098   5.308   0.874   5.496 -0.0705  0.3751  0.3655
16895TIP3   OH272099   3.009   0.907   3.689 -0.0006  0.1833  0.5432
16895TIP3    H172100   2.985   0.986   3.641 -0.4385 -0.5586 -0.4988
16895TIP3    H272101   3.104   0.911   3.697  0.0874  0.2706 -0.4886
16896TIP3   OH272102   6.338   3.011  12.369 -0.3196 -0.2467  0.0020
16896TIP3    H172103   6.252   3.046  12.390  0.2859  0.9722  0.6017
16896TIP3    H272104   6.397   3.054  12.432  0.7635 -0.7915 -0.6076
16897TIP3   OH272105   2.160   1.094   3.376 -0.0751  0.3409  0.8256
16897TIP3    H172106   2.227   1.027   3.371  0.2578  0.5807  1.8554
16897TIP3    H272107   2.099   1.063   3.442  0.3893  1.3032  1.7353
16898TIP3   OH272108   5.327   1.820  13.015 -0.4762 -0.0202 -0.3305
16898TIP3    H172109   5.252   1.876  12.997  0.6664  1.0686 -1.9026
16898TIP3    H272110   5.392   1.878  13.054  0.2300 -0.5351 -0.7052
16899TIP3   OH272111   2.715   2.096   3.058  0.6559  0.5300 -0.2979
16899TIP3    H172112   2.795   2.052   3.087 -0.1753  0.8467  2.7821
16899TIP3    H272113   2.661   2.025   3.023 -0.5131 -1.1921  4.2471
16900TIP3   OH272114   1.316   6.204   3.015  0.5053 -0.1585 -0.2889
16900TIP3    H172115   1.326   6.271   3.083 -1.0987 -0.7421  0.5669
16900TIP3    H272116   1.399   6.156   3.017  1.2442  1.0744 -0.1364
16901TIP3   OH272117   0.246   2.462  15.933  0.1295 -0.5917  0.6572
16901TIP3    H172118   0.162   2.506  15.940 -0.3072 -1.4692  1.1250
16901TIP3    H272119   0.228   2.372  15.959  0.4979 -1.6785 -2.4553
16902TIP3   OH272120   6.060   0.504   0.153  0.5759  0.1062  0.2024
16902TIP3    H172121   6.040   0.425   0.103 -0.8918  1.2246 -1.0988
16902TIP3    H272122   6.078   0.570   0.086  0.3045  1.2362  1.2122
16903TIP3   OH272123   6.488   2.195   1.300 -0.7061 -0.0994  0.1662
16903TIP3    H172124   6.578   2.209   1.272 -1.1506  0.2492 -1.1524
16903TIP3    H272125   6.492   2.117   1.356  0.2025 -0.9714 -1.0574
16904TIP3   OH272126   4.160   1.667  11.550 -0.0434  0.1754  0.1786
16904TIP3    H172127   4.223   1.621  11.496  1.7488  2.0830  0.5470
16904TIP3    H272128   4.213   1.715  11.614 -1.9104  1.1343  1.0916
16905TIP3   OH272129   0.394   1.556  15.365 -0.3883 -0.1563 -0.1831
16905TIP3    H172130   0.438   1.527  15.285 -1.8379 -2.1931 -0.3163
16905TIP3    H272131   0.453   1.529  15.435  0.8624  1.5849 -0.4964
16906TIP3   OH272132   4.930   1.766  10.664 -0.0402  0.4908 -0.6369
16906TIP3    H172133   4.851   1.711  10.664 -0.6001  1.2734 -1.2516
16906TIP3    H272134   4.928   1.811  10.579  1.8429 -0.5586 -1.2918
16907TIP3   OH272135   4.115   4.322  14.906  0.6725 -0.7272 -0.5016
16907TIP3    H172136   4.086   4.258  14.971 -3.4019  1.6623  0.3702
16907TIP3    H272137   4.080   4.289  14.823  3.2601 -2.2053 -1.1248
16908TIP3   OH272138   2.747   2.568   2.396 -0.5977  0.1630  0.4682
16908TIP3    H172139   2.775   2.641   2.340 -1.5129  1.4490  1.6385
16908TIP3    H272140   2.673   2.603   2.445  0.2103 -0.8994  2.5362
16909TIP3   OH272141   1.076   0.719   4.834  0.0338 -0.2377 -0.2394
16909TIP3    H172142   1.155   0.763   4.804  0.6607 -0.1127  1.4823
16909TIP3    H272143   1.099   0.626   4.836 -0.8972 -0.5923 -2.6901
16910TIP3   OH272144   1.930   6.485  12.441 -0.8001  0.6016  0.3130
16910TIP3    H172145   1.995   6.537  12.488 -0.3641  1.3663 -1.0645
16910TIP3    H272146   1.963   6.395  12.445  0.9063  1.0980 -1.1606
16911TIP3   OH272147   2.568   2.803   1.327  0.1472  0.1024 -0.7367
16911TIP3    H172148   2.538   2.713   1.314  2.4614 -0.4694 -2.7476
16911TIP3    H272149   2.647   2.794   1.381  1.6406  0.6512 -2.7395
16912TIP3   OH272150   0.720   4.973  17.004 -0.2269  0.4305  0.0924
16912TIP3    H172151   0.718   4.905  16.937 -0.0799 -0.2431  0.7447
16912TIP3    H272152   0.630   5.003  17.011 -0.7201 -1.1282  1.1668
16913TIP3   OH272153   5.540   4.912   2.357  0.5314  0.4973 -0.1912
16913TIP3    H172154   5.490   4.980   2.402  1.2124  0.1402  1.1594
16913TIP3    H272155   5.601   4.960   2.301 -1.9553  0.9568 -2.7404
16914TIP3   OH272156   2.689   1.748   0.553  0.5083 -0.0575  0.2763
16914TIP3    H172157   2.708   1.681   0.618  2.3629 -1.9242 -1.9893
16914TIP3    H272158   2.774   1.786   0.532  0.2009 -0.4037 -1.8842
16915TIP3   OH272159   5.053   0.023   3.160  0.0615 -0.4950  0.3752
16915TIP3    H172160   4.986   0.011   3.227 -0.3336 -0.1405  0.0545
16915TIP3    H272161   5.067  -0.065   3.123 -0.7207 -0.4689 -0.0117
16916TIP3   OH272162   3.160   2.204  17.014  0.8032  0.3205  0.2745
16916TIP3    H172163   3.109   2.199  16.932  1.2491  3.0691 -0.2585
16916TIP3    H272164   3.247   2.173  16.990  0.4339 -0.7298  0.2297
16917TIP3   OH272165   0.413   2.414  15.441 -0.2017  0.4401  0.2931
16917TIP3    H172166   0.439   2.323  15.458  0.7561  0.8589  1.2110
16917TIP3    H272167   0.406   2.420  15.346 -0.8402 -0.7347  0.2501
16918TIP3   OH272168   3.626   2.329   5.658  0.4621  0.1446 -0.2849
16918TIP3    H172169   3.546   2.364   5.697  0.1318  1.7249 -2.1766
16918TIP3    H272170   3.665   2.274   5.726 -0.7109  1.6779  1.7350
16919TIP3   OH272171   2.589   2.396   2.219 -0.2694 -0.3503  0.4177
16919TIP3    H172172   2.600   2.325   2.282  0.0820 -0.8170 -0.1504
16919TIP3    H272173   2.647   2.465   2.250 -1.4181  0.1330  1.5719
16920TIP3   OH272174   5.926   3.323  16.726 -0.2288  0.3914  0.3370
16920TIP3    H172175   6.011   3.360  16.704 -0.4022  0.1832 -0.7497
16920TIP3    H272176   5.915   3.250  16.664 -1.9866  1.5396 -0.7837
16921TIP3   OH272177   4.998   6.777   2.201  0.1924 -0.5492 -0.7621
16921TIP3    H172178   4.961   6.733   2.277 -0.1072 -1.3477 -1.3529
16921TIP3    H272179   5.093   6.773   2.213  0.1330  0.2119  0.0445
16922TIP3   OH272180   0.862   4.123   0.033 -0.2752  0.4531  0.0072
16922TIP3    H172181   0.871   4.143   0.126  0.5723  1.7316 -0.3171
16922TIP3    H272182   0.926   4.181  -0.010 -0.4545 -0.3093 -1.3446
16923TIP3   OH272183   2.573   3.019   2.684 -0.2546 -0.2323 -0.0532
16923TIP3    H172184   2.554   3.106   2.649  0.2312 -0.6284 -1.4010
16923TIP3    H272185   2.520   2.960   2.631 -0.4426 -0.7690  0.7278
16924TIP3   OH272186   5.063   4.398  15.847  0.0321  0.1765 -0.3316
16924TIP3    H172187   5.033   4.346  15.772  1.7093 -1.6119  0.1365
16924TIP3    H272188   5.150   4.428  15.821  1.2944 -1.7415  1.3675
16925TIP3   OH272189   6.613   6.707   0.600  0.3384  0.1980  0.1887
16925TIP3    H172190   6.546   6.660   0.648  1.0858 -0.4872  0.5883
16925TIP3    H272191   6.582   6.708   0.510  0.3954 -1.2641  0.1252
16926TIP3   OH272192   0.027   3.172   0.852 -0.2743 -0.4960  0.0933
16926TIP3    H172193  -0.029   3.095   0.866 -1.1235 -0.0784 -0.8706
16926TIP3    H272194   0.017   3.192   0.759  0.9386  0.0302  0.0583
16927TIP3   OH272195   0.995   6.464   0.273 -0.7587 -0.4811 -0.0005
16927TIP3    H172196   0.970   6.490   0.361  2.0504  0.7946  0.5328
16927TIP3    H272197   1.085   6.432   0.282  1.2611  3.5434 -2.8612
16928TIP3   OH272198   3.263   5.251  10.301 -1.1660  0.1786 -0.0615
16928TIP3    H172199   3.295   5.164  10.274 -0.2108  0.4618  0.1209
16928TIP3    H272200   3.285   5.308  10.228  3.8441  1.5107  2.0448
16929TIP3   OH272201   1.220   5.847  13.143 -0.0355  0.0582  0.4425
16929TIP3    H172202   1.150   5.837  13.078 -0.4416  0.6591  0.7726
16929TIP3    H272203   1.277   5.771  13.129  0.0705  0.3424 -0.8343
16930TIP3   OH272204   1.093   2.327  10.992 -0.2953 -0.1443 -0.7584
16930TIP3    H172205   1.126   2.400  10.940 -0.9419  0.6031 -0.1635
16930TIP3    H272206   1.006   2.310  10.956  0.0992 -1.0628 -1.3102
16931TIP3   OH272207   0.661   3.503   3.472 -0.1863 -0.2128  0.0298
16931TIP3    H172208   0.714   3.486   3.395  1.5232 -1.8105  1.4708
16931TIP3    H272209   0.574   3.522   3.437  0.7454  0.0943 -2.3025
16932TIP3   OH272210   0.007   5.143   5.193 -0.1180  0.4372  0.0253
16932TIP3    H172211   0.084   5.086   5.191  1.1139  2.0427 -0.8855
16932TIP3    H272212  -0.064   5.087   5.224  0.8969 -1.7172 -1.3476
16933TIP3   OH272213   5.999   1.809  15.396 -0.1284  0.1768 -0.4397
16933TIP3    H172214   6.035   1.721  15.403 -1.1062 -0.2621 -0.8359
16933TIP3    H272215   6.037   1.856  15.470  0.1697 -0.6483 -0.0547
16934TIP3   OH272216   2.694   4.709  12.889  0.1416 -0.9300 -0.0610
16934TIP3    H172217   2.731   4.685  12.974 -1.0636 -1.7466  0.2529
16934TIP3    H272218   2.757   4.674  12.826 -0.2661 -2.7069  0.4621
16935TIP3   OH272219   6.610   3.110   4.473  0.1806  0.1530  0.1499
16935TIP3    H172220   6.531   3.145   4.513  0.5334  1.9671 -0.6365
16935TIP3    H272221   6.652   3.060   4.543 -0.7578  0.6499  1.1023
16936TIP3   OH272222   1.569   4.861   4.133 -0.5642 -0.0693  0.7025
16936TIP3    H172223   1.567   4.815   4.050 -1.3862 -0.2018  0.7872
16936TIP3    H272224   1.502   4.928   4.126  0.9571  1.4857  0.3951
16937TIP3   OH272225   3.167   1.805   3.075 -0.0622 -0.5499  0.8919
16937TIP3    H172226   3.181   1.719   3.035 -0.4959 -0.7565  1.1745
16937TIP3    H272227   3.250   1.825   3.118  0.7685  0.1397 -0.9558
16938TIP3   OH272228   6.554   3.180   5.436 -0.0641  0.2353 -0.5800
16938TIP3    H172229   6.639   3.187   5.480 -0.6169  1.9529  0.3331
16938TIP3    H272230   6.523   3.271   5.430 -1.5636 -0.2970 -1.4481
16939TIP3   OH272231   5.859   5.667  11.058 -0.0644 -0.0525  0.4341
16939TIP3    H172232   5.905   5.606  11.115  1.4007  1.1448  0.5874
16939TIP3    H272233   5.890   5.753  11.085 -2.5173  0.8522  0.6386
16940TIP3   OH272234   2.664   4.965   5.157 -0.2944 -0.0508 -0.0184
16940TIP3    H172235   2.628   4.890   5.204 -0.9292  1.3358  1.8043
16940TIP3    H272236   2.596   4.987   5.092  0.7612 -2.2172 -2.0130
16941TIP3   OH272237   2.375   6.037   3.098 -0.3742  0.2161 -0.0304
16941TIP3    H172238   2.367   5.965   3.159  0.9279  1.7703  2.1267
16941TIP3    H272239   2.285   6.064   3.080 -0.7870 -0.0735  1.4959
16942TIP3   OH272240   1.767   1.176  16.874  0.3775 -0.1766  0.7606
16942TIP3    H172241   1.764   1.096  16.821  0.9644 -0.2990  0.9042
16942TIP3    H272242   1.841   1.225  16.840  0.7466 -0.2427  1.4432
16943TIP3   OH272243   1.308   1.597  11.930  0.2794 -0.6026  0.0828
16943TIP3    H172244   1.379   1.600  11.867  0.2541 -4.5796 -0.3778
16943TIP3    H272245   1.350   1.572  12.013 -0.4208 -2.0181  0.0314
16944TIP3   OH272246   5.502   0.958  11.648  0.4342  0.1451 -0.2699
16944TIP3    H172247   5.450   0.908  11.584  3.4783 -3.0933 -0.5185
16944TIP3    H272248   5.519   0.896  11.718 -0.4486  2.7780  2.4674
16945TIP3   OH272249   4.124   5.202  11.540  0.0779 -0.2240 -0.5824
16945TIP3    H172250   4.213   5.176  11.566 -0.0761 -1.3930 -1.1399
16945TIP3    H272251   4.129   5.208  11.444  0.1223  1.9941 -0.4777
16946TIP3   OH272252   6.196   5.640   5.628 -0.0668  0.0105  0.1006
16946TIP3    H172253   6.207   5.556   5.672  1.5976  0.5495  0.8186
16946TIP3    H272254   6.118   5.679   5.667 -0.2164 -0.7319  0.5537
16947TIP3   OH272255   6.459   3.441   4.996  0.4271 -0.1502  0.4984
16947TIP3    H172256   6.494   3.523   5.029 -1.2093  0.1500  1.6086
16947TIP3    H272257   6.494   3.433   4.907  1.7058  1.0458  0.8752
16948TIP3   OH272258   2.607   0.585   4.558  0.1416 -0.3620  0.8108
16948TIP3    H172259   2.563   0.668   4.540  0.2731 -0.6127 -0.8800
16948TIP3    H272260   2.687   0.609   4.605  0.5852  0.5671 -0.3734
16949TIP3   OH272261   4.902   2.969   5.291 -0.4716 -0.0607  0.0112
16949TIP3    H172262   4.887   2.902   5.223 -0.6061 -0.1142  0.0929
16949TIP3    H272263   4.907   3.051   5.242 -3.1099  0.2494  0.1375
16950TIP3   OH272264   6.471   3.430   4.689 -0.5102  0.0742 -0.1779
16950TIP3    H172265   6.456   3.337   4.672 -1.2208  0.1583 -0.0496
16950TIP3    H272266   6.560   3.435   4.722 -0.4839 -0.5661 -0.1473
16951TIP3   OH272267   1.820   1.293   2.187  0.1985  0.2167  0.4630
16951TIP3    H172268   1.746   1.339   2.148  0.5604  0.0994 -0.3705
16951TIP3    H272269   1.802   1.201   2.171  1.2844  0.2476 -1.1740
16952TIP3   OH272270   6.623   0.192   2.920 -0.0976  0.9939  0.0585
16952TIP3    H172271   6.528   0.186   2.925 -0.0395  0.5836  0.8695
16952TIP3    H272272   6.647   0.253   2.989  0.3097  0.1269  0.7101
16953TIP3   OH272273   6.539   6.060   0.781 -0.3603 -0.6294  0.2731
16953TIP3    H172274   6.484   6.093   0.710 -2.1515 -0.1332  1.8140
16953TIP3    H272275   6.590   6.137   0.809  1.3896 -1.1411 -1.3023
16954TIP3   OH272276   5.163   6.292   2.017  0.4286 -0.0094  0.3282
16954TIP3    H172277   5.198   6.316   1.931 -1.0552  0.0336 -0.2975
16954TIP3    H272278   5.132   6.374   2.054 -0.7935 -0.2995  0.0044
16955TIP3   OH272279   2.373   1.921  15.273 -0.2468  0.2786 -0.1477
16955TIP3    H172280   2.381   1.920  15.368 -2.4200  0.4931  0.0966
16955TIP3    H272281   2.282   1.897  15.256 -0.2704  1.4784 -2.1200
16956TIP3   OH272282   6.620   1.551  14.766 -0.5449  0.5827 -0.0221
16956TIP3    H172283   6.666   1.484  14.817  1.1171  2.1484  0.6456
16956TIP3    H272284   6.543   1.506  14.732  0.6829 -1.7646  0.0897
16957TIP3   OH272285   2.617   1.081  15.984  0.0812  0.2528 -0.1742
16957TIP3    H172286   2.585   1.171  15.975 -0.9909 -0.1496 -0.5949
16957TIP3    H272287   2.541   1.027  15.961  0.4865 -0.7652  0.7913
16958TIP3   OH272288   4.075   6.361  14.359  0.2816 -0.2237  0.6259
16958TIP3    H172289   4.061   6.278  14.315  0.1540 -0.0178  0.2789
16958TIP3    H272290   4.000   6.415  14.335  0.9206  0.3746 -0.0605
16959TIP3   OH272291   6.804   5.097   2.550  0.0040 -0.0099  0.6669
16959TIP3    H172292   6.865   5.168   2.573  0.5868 -0.4613  0.5487
16959TIP3    H272293   6.719   5.140   2.541  0.6292  0.9827 -1.0233
16960TIP3   OH272294   1.100   2.240  12.635  0.5238  0.1615 -0.4973
16960TIP3    H172295   1.032   2.306  12.647  0.6741  0.4421 -1.1154
16960TIP3    H272296   1.166   2.283  12.580  0.2359 -0.7400 -1.6089
16961TIP3   OH272297   1.962   6.373   5.921 -0.3635  0.3566  0.3154
16961TIP3    H172298   1.873   6.389   5.951 -0.4532  1.4965 -0.4814
16961TIP3    H272299   2.018   6.397   5.995 -0.6537  1.3832  0.2181
16962TIP3   OH272300   3.628   0.235  14.895 -0.4258 -0.5279  0.6499
16962TIP3    H172301   3.605   0.149  14.860 -1.0434 -0.5055  0.9838
16962TIP3    H272302   3.696   0.267  14.837 -0.9784 -0.7703 -0.1464
16963TIP3   OH272303   4.800   0.588   6.019 -0.2945 -0.0294  0.5054
16963TIP3    H172304   4.807   0.681   5.998 -0.0026 -0.0854  0.3496
16963TIP3    H272305   4.844   0.579   6.104  0.1277 -0.1102  0.2802
16964TIP3   OH272306   5.187   0.282  16.672 -0.6045 -0.1117  0.5502
16964TIP3    H172307   5.217   0.369  16.648 -0.1047 -0.6014 -0.6399
16964TIP3    H272308   5.256   0.223  16.643  0.1382 -0.7707  3.3311
16965TIP3   OH272309   2.168   5.784   5.290  0.5815  0.1877  0.3086
16965TIP3    H172310   2.180   5.875   5.316  0.4584 -0.3513  2.3765
16965TIP3    H272311   2.249   5.741   5.315 -0.3697 -0.7819  1.9060
16966TIP3   OH272312   6.583   5.319  16.038 -1.0393  0.4894 -0.5019
16966TIP3    H172313   6.669   5.297  16.004  1.0352  0.9939  3.7389
16966TIP3    H272314   6.556   5.396  15.989 -0.1201 -0.8243 -3.2741
16967TIP3   OH272315   2.859   1.424   0.908 -0.1552 -0.2223 -0.1408
16967TIP3    H172316   2.824   1.345   0.949  0.3010 -0.5700 -0.4146
16967TIP3    H272317   2.943   1.397   0.872  0.0613  0.4248 -0.1261
16968TIP3   OH272318   3.669   1.720   1.787  0.1133  0.3121  0.1549
16968TIP3    H172319   3.629   1.674   1.713 -0.6447  0.4291  0.4742
16968TIP3    H272320   3.753   1.752   1.754 -0.9494  1.8534 -1.1825
16969TIP3   OH272321   6.648   1.050  13.161  0.0062  0.3915  0.5840
16969TIP3    H172322   6.728   1.089  13.196  1.3470 -0.2296 -1.5925
16969TIP3    H272323   6.601   1.017  13.238  3.4123 -2.1373  1.7950
16970TIP3   OH272324   3.311   0.906  13.626  0.1360 -0.2780 -0.5504
16970TIP3    H172325   3.265   0.988  13.606 -0.4946 -0.4097  0.3333
16970TIP3    H272326   3.252   0.837  13.597  1.6082 -0.4810 -3.4526
16971TIP3   OH272327   1.251   5.618  14.695  0.1501 -0.2684  0.1433
16971TIP3    H172328   1.272   5.606  14.788 -1.0362  1.2106  0.6363
16971TIP3    H272329   1.254   5.713  14.682 -0.1387 -0.4324 -1.2376
16972TIP3   OH272330   3.893   6.548  14.146  0.0470  0.5317  0.0065
16972TIP3    H172331   3.922   6.576  14.059 -2.6265 -1.3227 -1.6468
16972TIP3    H272332   3.957   6.586  14.206  2.7461  0.8827 -2.8359
16973TIP3   OH272333   0.793   6.641  14.806  0.0176  0.1370 -0.2561
16973TIP3    H172334   0.702   6.622  14.783  0.8745 -4.8525 -0.4489
16973TIP3    H272335   0.790   6.670  14.897 -1.7883  1.2338 -0.6173
16974TIP3   OH272336   5.627   6.496   3.359  0.6150 -0.2918 -0.0580
16974TIP3    H172337   5.621   6.557   3.432 -0.5147 -1.4398  0.8367
16974TIP3    H272338   5.628   6.553   3.281 -0.1161  0.8728  0.7444
16975TIP3   OH272339   5.759   6.250   0.129 -0.1785 -0.0579  0.1889
16975TIP3    H172340   5.773   6.184   0.197 -2.1910  0.3471  1.0654
16975TIP3    H272341   5.702   6.208   0.065 -0.9383  0.5762  0.4254
16976TIP3   OH272342   4.356   5.370   1.140 -0.1736 -0.6705 -0.0868
16976TIP3    H172343   4.370   5.411   1.225  0.2052 -1.6722  0.3570
16976TIP3    H272344   4.262   5.349   1.139 -0.3897  0.2623 -0.3598
16977TIP3   OH272345   5.730   1.753  14.020 -0.1158  0.0732 -0.2388
16977TIP3    H172346   5.809   1.800  14.046  0.3938 -0.5497 -0.6501
16977TIP3    H272347   5.747   1.662  14.046 -0.2380 -0.2689 -1.3236
16978TIP3   OH272348   2.514   3.162   3.635 -0.1413  0.3322 -0.3744
16978TIP3    H172349   2.588   3.156   3.695  0.4491 -0.4764 -1.1507
16978TIP3    H272350   2.542   3.223   3.567 -1.2818  2.2188  0.7851
16979TIP3   OH272351   2.767   6.777  14.986  0.6912 -0.5233  0.1095
16979TIP3    H172352   2.775   6.743  14.898  2.5011  0.9176 -0.3616
16979TIP3    H272353   2.836   6.733  15.036  0.9869  0.1174  0.2811
16980TIP3   OH272354   0.745   3.941  15.180 -0.1140  0.2810 -0.2967
16980TIP3    H172355   0.659   3.936  15.140  0.6544 -1.2492 -1.8212
16980TIP3    H272356   0.807   3.928  15.109  1.3670 -0.1080  0.9903
16981TIP3   OH272357   3.880   5.204   4.309  0.0232  0.0864 -0.2059
16981TIP3    H172358   3.876   5.110   4.291 -2.0245 -0.1829  1.2302
16981TIP3    H272359   3.927   5.211   4.392 -0.2435  0.2721 -0.0678
16982TIP3   OH272360   4.030   2.978   4.238  0.2739 -0.2365  0.4592
16982TIP3    H172361   4.061   3.015   4.320  0.7257  2.2407 -0.7359
16982TIP3    H272362   3.935   2.993   4.239 -0.0443 -2.0533  1.3510
16983TIP3   OH272363   5.247   4.839   5.526  0.4568  0.1038  0.3621
16983TIP3    H172364   5.248   4.774   5.456 -1.7450  1.6000 -1.2008
16983TIP3    H272365   5.220   4.789   5.603 -1.4279 -0.8859 -0.8444
16984TIP3   OH272366   3.211   4.564  16.586 -0.3663 -0.4560 -0.0870
16984TIP3    H172367   3.207   4.478  16.627 -1.0070  0.1746  1.2243
16984TIP3    H272368   3.146   4.560  16.515 -0.3086 -1.0794 -0.1082
16985TIP3   OH272369   4.085   6.377  11.252 -0.1201  0.0910 -0.3529
16985TIP3    H172370   4.177   6.356  11.236  0.1027  1.4481 -0.9952
16985TIP3    H272371   4.070   6.350  11.343  0.5652 -1.2040 -0.5909
16986TIP3   OH272372   4.237   6.386  15.366  0.3889  0.0370 -0.4017
16986TIP3    H172373   4.176   6.341  15.424 -0.4751  1.0486 -0.4829
16986TIP3    H272374   4.218   6.479  15.379  1.9274  0.3889 -0.4416
16987TIP3   OH272375   0.599   4.814   3.901 -0.4193 -0.2965  0.0514
16987TIP3    H172376   0.551   4.896   3.913 -0.9201 -0.6266  0.3403
16987TIP3    H272377   0.531   4.750   3.876 -0.3200 -1.0243  1.5169
16988TIP3   OH272378   3.331   6.397   1.375 -0.6292  0.3262  0.0264
16988TIP3    H172379   3.274   6.320   1.372 -2.7080  1.7793 -0.1520
16988TIP3    H272380   3.404   6.371   1.432  0.3403 -2.7193 -2.3069
16989TIP3   OH272381   2.954   6.723   3.089 -0.4198 -0.2730  0.2240
16989TIP3    H172382   2.871   6.677   3.079  0.3907 -1.8482  0.3416
16989TIP3    H272383   2.968   6.768   3.006 -0.9079 -0.8302 -0.1633
16990TIP3   OH272384   6.568   3.417  17.083 -0.2518  0.1788 -0.5931
16990TIP3    H172385   6.515   3.339  17.096  0.3071 -0.5431 -2.3891
16990TIP3    H272386   6.593   3.444  17.172 -0.2106 -1.8567  0.0612
16991TIP3   OH272387   3.093   4.385  15.468 -0.2266 -0.2241 -0.0020
16991TIP3    H172388   3.089   4.304  15.418 -2.7848 -0.5360  0.5809
16991TIP3    H272389   3.097   4.357  15.560 -1.4195  0.2476  0.2204
16992TIP3   OH272390   4.591   5.822  12.504  0.6888  0.0535  0.4050
16992TIP3    H172391   4.681   5.813  12.475  0.8462  0.9201  0.6231
16992TIP3    H272392   4.592   5.896  12.564 -0.5723  1.5591 -1.3158
16993TIP3   OH272393   1.585   3.339  12.319 -0.4710  0.7406  1.2650
16993TIP3    H172394   1.555   3.391  12.394 -1.0788  1.8471  0.2695
16993TIP3    H272395   1.581   3.398  12.244  0.3916 -0.2673  0.3790
16994TIP3   OH272396   5.566   2.470   1.928 -0.0746  0.2212 -0.0330
16994TIP3    H172397   5.651   2.475   1.883 -0.8720 -2.9954 -2.2734
16994TIP3    H272398   5.589   2.452   2.020  1.7139 -0.4945 -0.5683
16995TIP3   OH272399   4.634   4.019  12.196  0.3062  0.3601 -0.5815
16995TIP3    H172400   4.612   4.085  12.130 -0.5357  0.4898 -0.1885
16995TIP3    H272401   4.718   3.984  12.168  0.0829  0.5922 -1.5945
16996TIP3   OH272402   3.680   5.392   2.421 -0.4320  0.3371  0.1076
16996TIP3    H172403   3.705   5.477   2.458 -0.3198 -0.2353  1.3699
16996TIP3    H272404   3.739   5.329   2.462 -0.8735 -0.4277 -0.4133
16997TIP3   OH272405   1.395   4.121   3.592  0.7731 -0.4400 -0.4354
16997TIP3    H172406   1.341   4.125   3.672  0.3064 -1.5797 -0.6783
16997TIP3    H272407   1.386   4.208   3.553 -0.3435 -0.3894 -0.1054
16998TIP3   OH272408   3.786   3.603   4.660  0.3529  0.1583  0.4193
16998TIP3    H172409   3.766   3.576   4.570  0.0416  0.7271  0.3154
16998TIP3    H272410   3.840   3.532   4.695  1.1960  0.3321 -0.4921
16999TIP3   OH272411   1.395   0.005  13.703 -0.2804 -0.1069 -0.1289
16999TIP3    H172412   1.386  -0.073  13.758  1.5177  0.0156  0.3923
16999TIP3    H272413   1.326   0.064  13.734 -1.6000 -1.4200 -0.4627
17000TIP3   OH272414   1.710   0.830   0.657 -0.2668 -0.4047  0.9683
17000TIP3    H172415   1.629   0.852   0.611 -0.8048  0.4628  2.2718
17000TIP3    H272416   1.740   0.749   0.615 -0.6064  0.4169 -1.0042
17001TIP3   OH272417   6.793   4.916  13.316  0.1164 -0.4134  0.0370
17001TIP3    H172418   6.752   4.835  13.285 -1.2887  0.0251  0.6379
17001TIP3    H272419   6.855   4.940  13.247 -0.2190 -1.4451 -0.6441
17002TIP3   OH272420   0.804   2.374  16.922  0.2844  0.0025 -0.6149
17002TIP3    H172421   0.803   2.308  16.992 -1.8884  1.3595  0.7586
17002TIP3    H272422   0.779   2.455  16.966 -0.1639  1.1222 -2.8180
17003TIP3   OH272423   2.592   4.058   5.297  0.1607  0.3936 -0.1302
17003TIP3    H172424   2.671   4.096   5.258  0.4873 -1.4583 -1.4194
17003TIP3    H272425   2.566   3.989   5.236 -1.2622 -0.4299  1.3172
17004TIP3   OH272426   5.795   3.205   4.614 -0.1605  0.7847 -0.1110
17004TIP3    H172427   5.737   3.187   4.540  1.9164 -2.0015 -1.2627
17004TIP3    H272428   5.799   3.301   4.619 -3.2778  1.0714 -1.1415
17005TIP3   OH272429   5.209   4.937  13.856 -0.5987 -0.7718 -0.0126
17005TIP3    H172430   5.153   4.872  13.900 -0.3605  0.6177  2.5102
17005TIP3    H272431   5.148   4.989  13.804 -1.1018 -1.5816 -0.2597
17006TIP3   OH272432   0.015   4.448  15.584  0.7913 -0.0996  0.1378
17006TIP3    H172433   0.042   4.387  15.516  0.6090 -1.9882  1.6698
17006TIP3    H272434  -0.049   4.400  15.636 -0.9945  2.1803  0.1732
17007TIP3   OH272435   6.331   3.591   4.144 -0.9979 -0.2279  0.0355
17007TIP3    H172436   6.332   3.514   4.201 -1.0216  0.5486  1.1226
17007TIP3    H272437   6.249   3.584   4.096  0.1546 -2.2060 -1.8018
17008TIP3   OH272438   4.380   5.617  12.663  0.6325 -0.1241 -0.5779
17008TIP3    H172439   4.446   5.550  12.685  1.4548 -0.2490 -3.1466
17008TIP3    H272440   4.423   5.700  12.684  1.3144 -0.2451 -1.4191
17009TIP3   OH272441   1.158   5.068  14.060 -0.0370 -0.0016  0.6895
17009TIP3    H172442   1.252   5.083  14.071 -0.2454  1.1750  0.9672
17009TIP3    H272443   1.117   5.126  14.124 -0.9461 -0.8416  0.8876
17010TIP3   OH272444   2.869   3.609   2.858  0.2011 -0.0909  0.5746
17010TIP3    H172445   2.809   3.535   2.864 -0.0946  0.1033  0.0117
17010TIP3    H272446   2.923   3.602   2.937  0.9750 -1.5938 -0.0500
17011TIP3   OH272447   4.010   3.292   0.629 -0.1015 -0.1055  0.7510
17011TIP3    H172448   3.971   3.357   0.572 -0.0843 -1.9458 -1.4809
17011TIP3    H272449   3.951   3.217   0.625 -0.0350 -0.3716  3.1131
17012TIP3   OH272450   2.677   0.656  14.483 -0.1699  0.3731 -0.0387
17012TIP3    H172451   2.634   0.709  14.550 -0.0352 -1.7244  1.8544
17012TIP3    H272452   2.763   0.695  14.473 -1.6195  3.3661 -2.3478
17013TIP3   OH272453   6.801   6.174  15.126  0.7152  1.0125  0.4954
17013TIP3    H172454   6.730   6.195  15.065  0.0920  0.7017  1.1051
17013TIP3    H272455   6.866   6.128  15.072 -1.3339 -2.4063  0.6574
17014TIP3   OH272456   6.428   0.323  16.474  0.2286  0.3259  0.4143
17014TIP3    H172457   6.494   0.266  16.434 -0.5982 -0.7500  0.5554
17014TIP3    H272458   6.408   0.388  16.407  0.1663 -0.3805 -0.2606
17015TIP3   OH272459   0.023   1.026   4.041 -0.3830 -0.2690 -0.3763
17015TIP3    H172460  -0.057   0.993   4.001 -0.6565  0.9193 -0.8659
17015TIP3    H272461   0.087   0.956   4.029 -0.4636 -0.0010 -2.8917
17016TIP3   OH272462   0.773   4.643   5.601 -0.0502  0.4206  0.1948
17016TIP3    H172463   0.791   4.664   5.693  0.9733  0.4132  0.0097
17016TIP3    H272464   0.814   4.715   5.552  0.9955 -0.4871 -0.3186
17017TIP3   OH272465   0.824   6.390  12.698  0.1966  0.5961 -0.1467
17017TIP3    H172466   0.838   6.383  12.792 -0.4084 -1.1225 -0.1532
17017TIP3    H272467   0.824   6.484  12.681  1.9955  0.9235  1.2921
17018TIP3   OH272468   3.450   2.059   3.199 -0.0775 -0.5268 -0.1109
17018TIP3    H172469   3.469   1.965   3.191 -0.6389 -0.8035  1.5128
17018TIP3    H272470   3.481   2.082   3.286 -0.4508  0.6954 -0.2850
17019TIP3   OH272471   3.853   2.037  14.029 -0.4001  0.1522  0.1446
17019TIP3    H172472   3.765   2.000  14.035  0.4398 -1.8445  1.7378
17019TIP3    H272473   3.898   2.003  14.107  1.8100  1.0097 -0.6753
17020TIP3   OH272474   0.736   3.897  12.663 -0.2496 -0.2941  0.0311
17020TIP3    H172475   0.706   3.985  12.682  1.3462  0.3250 -0.1452
17020TIP3    H272476   0.732   3.889  12.568  3.2014  1.0777 -0.3989
17021TIP3   OH272477   5.032   6.398   1.167 -0.1285 -0.0712  0.5684
17021TIP3    H172478   4.943   6.431   1.169 -0.4947 -0.9878  2.4141
17021TIP3    H272479   5.050   6.374   1.258  2.0477  0.1887  0.2614
17022TIP3   OH272480   1.301   2.582  14.047  0.2406  0.3179 -0.0716
17022TIP3    H172481   1.305   2.545  14.135  0.3301  1.9093  0.6261
17022TIP3    H272482   1.287   2.676  14.061 -0.5543  0.4920 -1.7703
17023TIP3   OH272483   0.131   5.485   5.074  0.2193  0.0394 -0.8699
17023TIP3    H172484   0.188   5.541   5.022  0.9986  0.8805  0.8008
17023TIP3    H272485   0.044   5.498   5.037  0.6530  1.0928 -1.5670
17024TIP3   OH272486   1.657   2.192   1.381 -0.0274  0.4178 -0.3569
17024TIP3    H172487   1.586   2.127   1.386  0.5564 -0.2887 -1.0687
17024TIP3    H272488   1.678   2.210   1.473  1.3559 -2.1632 -0.0733
17025TIP3   OH272489   1.983   6.467   0.203 -0.2390  0.1641  0.1005
17025TIP3    H172490   2.044   6.394   0.198  0.5632  0.8418 -0.3329
17025TIP3    H272491   1.899   6.432   0.173 -0.4955 -1.2131  2.2143
17026TIP3   OH272492   5.612   4.997   4.250  0.2708  0.3019  0.2012
17026TIP3    H172493   5.660   5.024   4.328  1.9295 -0.5460 -0.4808
17026TIP3    H272494   5.583   4.908   4.270  0.9267 -0.0149 -0.2329
17027TIP3   OH272495   2.904   2.874   0.233  0.3664 -0.1817 -0.0623
17027TIP3    H172496   2.936   2.961   0.209 -0.1495  0.3005  0.9104
17027TIP3    H272497   2.810   2.887   0.248  0.5632 -0.5263  1.6648
17028TIP3   OH272498   0.388   3.860  16.837 -0.3820  0.5814  0.2154
17028TIP3    H172499   0.405   3.953  16.823 -0.4593  0.3882 -1.2760
17028TIP3    H272500   0.348   3.856  16.924  1.8536  1.6525  1.3722
17029TIP3   OH272501   3.218   4.808   4.117 -0.1043  0.1317  0.1866
17029TIP3    H172502   3.255   4.811   4.205 -0.9728  0.5463  0.5471
17029TIP3    H272503   3.162   4.886   4.111  1.1723  1.0116 -1.2959
17030TIP3   OH272504   3.897   6.509  13.669  0.0666  0.8641 -0.0314
17030TIP3    H172505   3.962   6.440  13.682 -1.6528 -0.5030  1.7938
17030TIP3    H272506   3.813   6.463  13.665 -0.9336  2.6766 -1.1598
17031TIP3   OH272507   3.823   6.358   1.010  0.4302  0.5422 -0.4491
17031TIP3    H172508   3.886   6.306   1.060 -1.2046 -0.1646  0.9769
17031TIP3    H272509   3.764   6.395   1.076 -0.1838  1.8591 -1.6643
17032TIP3   OH272510   4.202   1.255   4.841  0.1248 -0.6167 -0.4638
17032TIP3    H172511   4.149   1.329   4.870  1.2093  0.4150 -1.0248
17032TIP3    H272512   4.148   1.210   4.776 -0.0186  0.4926 -1.1325
17033TIP3   OH272513   3.803   2.249   1.406 -0.0307  0.4695 -0.1443
17033TIP3    H172514   3.825   2.165   1.446 -1.4036 -0.3937 -1.1288
17033TIP3    H272515   3.717   2.271   1.443  0.2831  1.4067  0.0409
17034TIP3   OH272516   4.519   4.502  10.069 -0.0334  0.1343  0.4606
17034TIP3    H172517   4.448   4.550  10.111 -0.9870  0.7765 -1.7819
17034TIP3    H272518   4.599   4.547  10.098 -0.5067 -0.3136  2.6370
17035TIP3   OH272519   5.738   3.130  16.805 -0.2504  0.2348 -0.1249
17035TIP3    H172520   5.734   3.077  16.884  0.2210  1.9751  1.1077
17035TIP3    H272521   5.813   3.188  16.817 -0.0297  0.4132 -1.9549
17036TIP3   OH272522   2.224   5.180  11.575 -0.4190  0.1222 -0.1785
17036TIP3    H172523   2.136   5.166  11.610  0.2976 -2.1651  0.8691
17036TIP3    H272524   2.215   5.165  11.480 -1.2658  0.6102 -0.1863
17037TIP3   OH272525   0.590   3.089  11.739 -0.4113  0.1297  0.0710
17037TIP3    H172526   0.538   3.051  11.669  0.0521 -2.3773  0.9607
17037TIP3    H272527   0.571   3.035  11.816  2.1172  0.2043  0.8643
17038TIP3   OH272528   0.770   6.016   2.176  0.3381  0.0253  0.0276
17038TIP3    H172529   0.839   5.952   2.158  0.2228 -0.6501  1.7665
17038TIP3    H272530   0.728   6.029   2.092  1.8367 -0.4329 -0.8430
17039TIP3   OH272531   5.145   3.820  12.016  0.8403 -0.1518  0.5139
17039TIP3    H172532   5.234   3.805  11.983 -0.1272  0.8587 -2.9624
17039TIP3    H272533   5.109   3.732  12.027  2.7259 -0.6545  3.7659
17040TIP3   OH272534   2.966   2.083   2.129 -0.3759 -0.3571 -0.2586
17040TIP3    H172535   3.016   2.164   2.140  0.0977 -0.6139 -0.5181
17040TIP3    H272536   3.002   2.024   2.195  0.8986 -1.1404 -1.6115
17041TIP3   OH272537   0.559   5.970   4.203  0.5358  0.5336 -0.4678
17041TIP3    H172538   0.579   5.876   4.204  1.0318  0.4645 -3.9633
17041TIP3    H272539   0.637   6.011   4.240 -0.6508 -0.3613  3.5245
17042TIP3   OH272540   6.299   0.577  10.625  0.3199  0.2637  0.7305
17042TIP3    H172541   6.275   0.493  10.662 -0.1475  0.3077  0.5314
17042TIP3    H272542   6.348   0.556  10.545 -1.5005  0.1626 -0.4199
17043TIP3   OH272543   5.782   6.295  10.439 -0.1839  0.2344 -0.2537
17043TIP3    H172544   5.749   6.309  10.528 -1.6546 -1.8996 -0.3967
17043TIP3    H272545   5.797   6.201  10.433 -0.9183  0.1925 -2.5060
17044TIP3   OH272546   0.087   4.430   3.880  0.0836 -0.0882  0.5161
17044TIP3    H172547   0.071   4.399   3.969  1.1406 -0.4781  0.5864
17044TIP3    H272548   0.043   4.365   3.824 -3.4669  1.8696  0.7265
17045TIP3   OH272549   2.456   1.061   0.977 -0.1337  0.4272  0.0945
17045TIP3    H172550   2.459   1.109   1.060 -0.0326 -0.9923  0.9254
17045TIP3    H272551   2.510   0.984   0.991 -1.0881 -0.4520 -0.9028
17046TIP3   OH272552   3.239   2.162   1.664 -0.3749  0.3040  0.3246
17046TIP3    H172553   3.326   2.126   1.647 -0.6464  0.1905 -0.9575
17046TIP3    H272554   3.179   2.090   1.642 -0.8034  0.5229  0.7613
17047TIP3   OH272555   0.705   0.468  11.659  0.2944 -0.0092  0.4354
17047TIP3    H172556   0.735   0.440  11.746 -1.0799  0.0466  0.9698
17047TIP3    H272557   0.739   0.557  11.650  2.4776 -0.8435 -0.1472
17048TIP3   OH272558   5.552   1.449   5.864  0.4955 -0.1605  0.2926
17048TIP3    H172559   5.487   1.453   5.934  0.3804 -1.4598  0.2795
17048TIP3    H272560   5.628   1.405   5.903 -0.5476 -3.4606 -1.0583
17049TIP3   OH272561   1.070   2.950  14.866 -0.5045  0.3911 -0.2385
17049TIP3    H172562   0.992   2.949  14.809 -0.4764 -0.4577 -0.2796
17049TIP3    H272563   1.144   2.943  14.805 -0.4558 -0.0666 -0.1318
17050TIP3   OH272564   0.463   2.527  16.091 -0.3372 -0.2514  0.4716
17050TIP3    H172565   0.385   2.491  16.050 -0.5621  1.8542 -1.1154
17050TIP3    H272566   0.441   2.618  16.109  1.7173  0.4154 -0.0520
17051TIP3   OH272567   3.097   2.032  14.742  0.2114 -0.0600 -0.2954
17051TIP3    H172568   3.157   2.045  14.816  0.0169 -0.1928 -0.1148
17051TIP3    H272569   3.070   1.941  14.748  0.0263 -0.0135 -0.4015
17052TIP3   OH272570   0.913   4.814  13.557 -0.0845 -0.1027  0.6469
17052TIP3    H172571   0.827   4.813  13.514 -0.7612  1.5622  1.8110
17052TIP3    H272572   0.976   4.795  13.488 -1.3265 -0.3438 -0.4521
17053TIP3   OH272573   5.794   3.262  15.813  0.3075  0.3265  0.0429
17053TIP3    H172574   5.862   3.328  15.823  1.0026 -0.3433 -0.1198
17053TIP3    H272575   5.718   3.299  15.856  0.5243  1.4511 -0.5136
17054TIP3   OH272576   2.998   4.762  14.575  0.0754  0.1665 -0.1136
17054TIP3    H172577   2.913   4.732  14.543  0.6258 -1.8136  0.1734
17054TIP3    H272578   3.057   4.689  14.560  1.5287  1.1439  0.5873
17055TIP3   OH272579   6.586   6.248   2.049  0.0645  0.2069  0.0793
17055TIP3    H172580   6.677   6.224   2.067  0.1683 -0.0100 -0.7213
17055TIP3    H272581   6.577   6.243   1.954 -0.9101 -0.2378  0.1795
17056TIP3   OH272582   4.020   4.868  15.661 -0.0094  0.3379 -0.7592
17056TIP3    H172583   4.021   4.796  15.724  1.2499  0.1996 -0.9086
17056TIP3    H272584   4.057   4.942  15.709  0.1111  0.4744 -1.0609
17057TIP3   OH272585   5.780   0.188  10.157  0.6083 -0.1706 -0.0637
17057TIP3    H172586   5.713   0.130  10.121 -0.9312 -0.4107  2.8826
17057TIP3    H272587   5.735   0.271  10.172  1.6372  0.4413 -0.2440
17058TIP3   OH272588   0.038   0.361  16.980  0.2805 -0.0173  0.0498
17058TIP3    H172589   0.039   0.348  16.885 -0.6402 -0.8178  0.1297
17058TIP3    H272590  -0.054   0.353  17.004  0.5479 -0.2346  1.0632
17059TIP3   OH272591   4.072   2.979  15.100 -0.0851 -0.1202  0.0547
17059TIP3    H172592   4.081   2.929  15.181 -0.2118  0.7705  0.6251
17059TIP3    H272593   4.146   3.040  15.100 -0.8872  0.8859  0.2300
17060TIP3   OH272594   1.502   2.470   6.132  0.2402  0.3237 -0.3547
17060TIP3    H172595   1.516   2.377   6.115 -0.2693 -0.0491  1.1056
17060TIP3    H272596   1.464   2.473   6.220 -2.3415  1.7010 -1.3825
17061TIP3   OH272597   6.581   6.382  15.455  0.1347 -0.7945  0.0486
17061TIP3    H172598   6.537   6.443  15.396 -0.3789  0.3972  1.5701
17061TIP3    H272599   6.528   6.303  15.452 -0.1833 -0.5611 -0.6622
17062TIP3   OH272600   3.196   1.810   4.707  0.1263  0.0925 -0.7385
17062TIP3    H172601   3.128   1.839   4.767  1.0040  3.6296 -1.2461
17062TIP3    H272602   3.245   1.744   4.756  0.3781  2.3141  2.2650
17063TIP3   OH272603   0.361   5.796  11.165 -0.0175  0.0528 -0.3032
17063TIP3    H172604   0.359   5.815  11.071  0.2128  1.9542  0.0423
17063TIP3    H272605   0.441   5.837  11.196  1.3984 -2.8862  0.3325
17064TIP3   OH272606   0.768   2.289   4.233 -0.1401  0.4370 -0.4323
17064TIP3    H172607   0.740   2.284   4.141  1.2799  0.9603 -0.9313
17064TIP3    H272608   0.737   2.208   4.272 -0.2725 -0.0672 -1.5437
17065TIP3   OH272609   5.910   2.106  14.111  0.4763  0.0344  0.2825
17065TIP3    H172610   5.923   2.037  14.045  0.1205 -2.5932  2.7454
17065TIP3    H272611   5.990   2.158  14.106  0.8460 -0.6268 -1.5908
17066TIP3   OH272612   1.181   6.790  14.643 -0.5399 -0.6047 -0.1720
17066TIP3    H172613   1.160   6.824  14.730  0.2436 -0.6251  0.0306
17066TIP3    H272614   1.192   6.696  14.656  3.1703 -0.2145  0.4758
17067TIP3   OH272615   6.352   4.941   2.930  0.2897 -0.2771 -0.3607
17067TIP3    H172616   6.366   4.890   3.010 -0.9715 -0.9346 -0.5261
17067TIP3    H272617   6.357   5.032   2.958  0.8777 -0.4995  0.2726
17068TIP3   OH272618   4.197   2.432  14.999  0.5477 -0.2978 -0.1771
17068TIP3    H172619   4.215   2.495  15.069  0.6777  0.9357 -1.3030
17068TIP3    H272620   4.227   2.348  15.035 -0.3079  0.1141  1.6327
17069TIP3   OH272621   4.993   2.927  12.315  0.0201 -0.8966 -0.1113
17069TIP3    H172622   5.022   2.960  12.400  2.2003 -1.1801 -0.6950
17069TIP3    H272623   4.989   3.005  12.260  2.7111 -1.1769 -0.8155
17070TIP3   OH272624   2.642   4.633  12.547 -0.5504  0.4198 -0.2755
17070TIP3    H172625   2.577   4.621  12.616  0.3125 -0.3171  0.4196
17070TIP3    H272626   2.726   4.619  12.589  0.1939  2.6874 -0.8590
17071TIP3   OH272627   5.898   5.640  14.469  0.7639  0.6386 -0.1419
17071TIP3    H172628   5.894   5.650  14.374 -0.0735  0.5629 -0.1219
17071TIP3    H272629   5.961   5.569  14.482 -0.6003 -0.7586 -0.7654
17072TIP3   OH272630   2.257   0.865  12.596 -0.0676  0.6491 -0.1455
17072TIP3    H172631   2.207   0.813  12.659  1.3055 -0.5808 -0.0111
17072TIP3    H272632   2.326   0.906  12.649  1.8262 -1.3410 -0.9510
17073TIP3   OH272633   4.541   2.753  10.970 -0.8310 -0.1632  0.2583
17073TIP3    H172634   4.579   2.714  10.891 -1.4352 -1.5615  0.6274
17073TIP3    H272635   4.617   2.771  11.026 -0.2899  1.8753 -1.0364
17074TIP3   OH272636   4.763   0.638   0.362 -0.4796  0.3725  0.0305
17074TIP3    H172637   4.717   0.722   0.360 -0.1582  0.5612  0.5889
17074TIP3    H272638   4.765   0.613   0.454 -0.2934 -0.0962 -0.0963
17075TIP3   OH272639   6.105   6.337  15.352  0.2381  0.1289 -0.4562
17075TIP3    H172640   6.095   6.258  15.299 -1.1939  0.5129 -0.8142
17075TIP3    H272641   6.074   6.408  15.295 -1.5429  0.5349  0.9315
17076TIP3   OH272642   1.247   6.375   0.342  0.0704  0.1987 -0.2110
17076TIP3    H172643   1.334   6.357   0.377  0.8769  0.6373 -1.8591
17076TIP3    H272644   1.231   6.302   0.281  1.1886  2.1736 -3.1153
17077TIP3   OH272645   4.803   1.022  11.073  0.1658  0.2609 -0.0708
17077TIP3    H172646   4.793   1.033  10.979 -0.4217  1.5088  0.1174
17077TIP3    H272647   4.715   1.004  11.105  0.6658 -2.3747  0.0190
17078TIP3   OH272648   1.943   4.007   2.641 -0.2631  0.1799  0.4526
17078TIP3    H172649   1.993   3.943   2.590 -0.3771  0.7706 -0.4058
17078TIP3    H272650   1.952   3.976   2.732 -2.6202 -2.6919 -0.1321
17079TIP3   OH272651   3.620   5.051   2.752  0.0240  0.1643  0.0914
17079TIP3    H172652   3.564   5.053   2.674  1.7920  3.4479 -1.3093
17079TIP3    H272653   3.560   5.063   2.825 -1.5720 -1.8511 -0.7877
17080TIP3   OH272654   5.935   1.990  13.413 -0.5187  0.2668  0.2445
17080TIP3    H172655   6.023   2.006  13.380 -0.6066 -0.6759 -0.4957
17080TIP3    H272656   5.947   1.924  13.482 -0.5171  1.0783  1.0464
17081TIP3   OH272657   1.856   3.232  11.465 -0.0499  0.2751 -0.5359
17081TIP3    H172658   1.833   3.325  11.465 -0.9851  0.1743 -3.8268
17081TIP3    H272659   1.952   3.231  11.457 -0.0330  0.9688 -0.4851
17082TIP3   OH272660   1.431   0.881  12.207  0.9355  0.4259 -0.7409
17082TIP3    H172661   1.417   0.969  12.174 -1.1754  0.7311  0.7783
17082TIP3    H272662   1.347   0.855  12.244  2.0206 -1.4765  0.5774
17083TIP3   OH272663   3.108   4.829   3.435  0.3805 -0.1010  0.0207
17083TIP3    H172664   3.197   4.859   3.417 -0.0112  1.9971  1.2623
17083TIP3    H272665   3.052   4.886   3.382 -0.3390  0.8015  1.6648
17084TIP3   OH272666   5.343   0.623   3.800  0.1931  0.8212 -0.2950
17084TIP3    H172667   5.335   0.707   3.755 -0.1550  0.9977  0.0885
17084TIP3    H272668   5.289   0.633   3.879 -1.0230 -0.2447 -0.9561
17085TIP3   OH272669   0.056   0.344   4.466  0.8796  0.3537 -0.2350
17085TIP3    H172670   0.140   0.303   4.487 -0.0793 -2.3908 -1.2773
17085TIP3    H272671  -0.009   0.285   4.502 -0.6593  2.2350  0.2221
17086TIP3   OH272672   0.875   6.743  13.159 -0.4627 -0.4516 -0.1596
17086TIP3    H172673   0.818   6.683  13.207 -0.4273 -2.2435 -2.1948
17086TIP3    H272674   0.963   6.708  13.172  0.0228  1.1972  1.3959
17087TIP3   OH272675   2.731   2.587   5.250 -0.2076 -0.0157 -0.6263
17087TIP3    H172676   2.751   2.496   5.272  1.3851  0.5200  0.3647
17087TIP3    H272677   2.673   2.582   5.174 -0.2846 -1.8453 -0.4900
17088TIP3   OH272678   0.303   5.257  14.101  0.2422 -0.1452 -0.0835
17088TIP3    H172679   0.341   5.301  14.025 -0.0942 -0.6815 -0.5721
17088TIP3    H272680   0.271   5.174  14.067  0.9063 -0.7947  0.8347
17089TIP3   OH272681   4.328   0.739  15.728 -0.3589  0.5489  0.7208
17089TIP3    H172682   4.304   0.832  15.725 -0.1186  0.6388  1.3172
17089TIP3    H272683   4.250   0.692  15.699  0.4236  1.0428 -2.6161
17090TIP3   OH272684   1.282   6.087   1.654  0.1896  0.4423 -0.1506
17090TIP3    H172685   1.208   6.034   1.683  0.3247 -0.9530 -2.1702
17090TIP3    H272686   1.344   6.083   1.728  0.0091 -1.8866 -0.0460
17091TIP3   OH272687   4.979   2.040   4.991 -0.5119 -0.1865 -0.2688
17091TIP3    H172688   4.944   2.097   4.923 -0.6301 -1.6526 -1.4997
17091TIP3    H272689   4.981   1.953   4.951 -0.3119 -1.0592  1.5144
17092TIP3   OH272690   6.324   6.440   0.427 -0.1801  0.1436 -0.0428
17092TIP3    H172691   6.338   6.387   0.348  2.6229  0.2561  0.2885
17092TIP3    H272692   6.232   6.467   0.421 -0.4869 -1.1229 -2.4552
17093TIP3   OH272693   0.205   2.509   5.083  0.3890 -0.7590 -0.0935
17093TIP3    H172694   0.133   2.509   5.020 -0.7572  0.1625  1.1523
17093TIP3    H272695   0.162   2.505   5.169  1.8699 -1.3208  0.6683
17094TIP3   OH272696   5.876   5.409  12.049 -0.1249  0.2653  0.2437
17094TIP3    H172697   5.792   5.362  12.051  0.4185 -0.7838  2.4226
17094TIP3    H272698   5.861   5.487  12.103 -0.6199  1.9766 -2.2184
17095TIP3   OH272699   2.864   4.582   5.489  0.2289  0.0763 -0.2096
17095TIP3    H172700   2.912   4.524   5.548  1.3807  1.9152  0.7718
17095TIP3    H272701   2.899   4.563   5.402 -0.0428 -1.2597 -0.0551
17096TIP3   OH272702   1.487   6.202   4.416 -0.2297 -0.5956  0.6975
17096TIP3    H172703   1.555   6.135   4.409  0.3331 -0.0547  0.8797
17096TIP3    H272704   1.530   6.283   4.389 -0.7575 -0.2110  0.9814
17097TIP3   OH272705   0.260   3.598   0.311 -0.2120  0.0856  0.0681
17097TIP3    H172706   0.338   3.610   0.257  0.1277  0.5956  0.6539
17097TIP3    H272707   0.283   3.529   0.373 -1.1769 -1.6918 -1.4675
17098TIP3   OH272708   3.705   2.563   0.351 -0.7158  0.1368 -0.4425
17098TIP3    H172709   3.770   2.578   0.419  0.5955 -0.7743 -1.4232
17098TIP3    H272710   3.628   2.531   0.397 -0.1384  0.3287  0.6816
17099TIP3   OH272711   2.788   3.863  10.938 -0.0052  0.3984  0.3179
17099TIP3    H172712   2.862   3.891  10.992  2.2100 -0.6204 -1.9697
17099TIP3    H272713   2.804   3.903  10.852 -0.5642 -1.9971 -1.0062
17100TIP3   OH272714   2.860   3.039  11.026  0.2943  0.1295 -0.1453
17100TIP3    H172715   2.805   2.965  11.052  1.3429 -1.0658 -1.1848
17100TIP3    H272716   2.927   3.044  11.095  0.8839 -0.6408 -0.6464
17101TIP3   OH272717   0.478   0.574   4.207  0.4879 -0.3923 -0.1585
17101TIP3    H172718   0.429   0.493   4.218  0.8538 -0.6210 -0.2038
17101TIP3    H272719   0.437   0.616   4.131 -0.2837 -0.1010  0.4083
17102TIP3   OH272720   2.793   5.237  10.506 -0.0021  0.0567  0.9447
17102TIP3    H172721   2.827   5.314  10.460  0.0562 -0.7797 -0.4469
17102TIP3    H272722   2.741   5.190  10.441 -1.2303 -0.3569  2.1716
17103TIP3   OH272723   3.638   1.924   1.541  0.5411 -0.0416 -0.2804
17103TIP3    H172724   3.725   1.926   1.501  0.8754 -1.2123  0.3558
17103TIP3    H272725   3.610   1.833   1.533 -0.8898  0.4265 -0.9855
17104TIP3   OH272726   3.198   6.272  14.327 -0.1273 -0.4404 -0.4484
17104TIP3    H172727   3.137   6.346  14.320 -0.1411 -0.4386 -0.3118
17104TIP3    H272728   3.142   6.197  14.345 -0.0925 -0.4440 -0.3538
17105TIP3   OH272729   1.448   0.315  11.946 -0.1744 -0.2723 -0.6062
17105TIP3    H172730   1.354   0.304  11.929 -0.4892  0.4987  0.5322
17105TIP3    H272731   1.478   0.375  11.877 -0.9343  0.9740  0.1093
17106TIP3   OH272732   3.316   2.370  12.412 -0.2336 -0.3712 -0.4392
17106TIP3    H172733   3.309   2.300  12.477  2.0005  0.4624  0.7984
17106TIP3    H272734   3.355   2.327  12.335 -2.2243 -1.2020 -1.0536
17107TIP3   OH272735   4.942   3.318  15.707  0.5471 -0.5499 -0.2662
17107TIP3    H172736   5.007   3.249  15.695 -0.2546 -1.3419 -0.2274
17107TIP3    H272737   4.901   3.297  15.791  0.0286 -0.2567 -0.4398
17108TIP3   OH272738   1.908   0.654   4.184  0.6757  0.0488  0.2389
17108TIP3    H172739   1.856   0.621   4.111  0.1129  0.7913  0.2827
17108TIP3    H272740   1.997   0.659   4.151  0.6777 -0.9550  0.0610
17109TIP3   OH272741   1.634   2.636   2.095  0.0009  0.3758  0.3025
17109TIP3    H172742   1.557   2.693   2.092  0.6268  1.3001  1.3526
17109TIP3    H272743   1.597   2.547   2.096 -1.1339  0.8166  1.9600
17110TIP3   OH272744   3.077   3.776  12.448  0.0781 -0.0725  0.2675
17110TIP3    H172745   3.127   3.749  12.525 -0.6278  1.7923  1.4612
17110TIP3    H272746   3.042   3.694  12.412  2.6639 -1.2762  0.2736
17111TIP3   OH272747   4.535   3.068  10.951  0.7024  1.0306 -0.4893
17111TIP3    H172748   4.509   2.976  10.960  0.4475  1.2549  1.5779
17111TIP3    H272749   4.620   3.065  10.908  1.2279 -0.2687  0.5778
17112TIP3   OH272750   6.650   5.301   4.175 -0.4108  0.1893 -0.4697
17112TIP3    H172751   6.743   5.323   4.173 -0.0327 -1.0255  1.3226
17112TIP3    H272752   6.606   5.381   4.203  0.2958  0.2647  0.4374
17113TIP3   OH272753   0.767   5.482  14.610  0.0738  0.0193  0.4529
17113TIP3    H172754   0.855   5.446  14.621  0.0215 -0.2417  0.0538
17113TIP3    H272755   0.714   5.436  14.675  0.3014  0.4433  0.9490
17114TIP3   OH272756   4.775   6.546   4.626  0.1455 -0.2702  0.6396
17114TIP3    H172757   4.687   6.555   4.589  0.6620 -0.6699 -0.7847
17114TIP3    H272758   4.832   6.582   4.558  1.1108 -0.5111  1.3102
17115TIP3   OH272759   4.777   4.641  16.458 -0.5232  0.4784  0.0815
17115TIP3    H172760   4.727   4.560  16.443  0.5650  0.3594 -4.2198
17115TIP3    H272761   4.822   4.626  16.541 -2.2218 -2.2755  0.6450
17116TIP3   OH272762   4.029   3.864   5.999 -0.2202 -0.2793 -0.0360
17116TIP3    H172763   4.050   3.832   5.911  0.3158 -0.0263 -0.0034
17116TIP3    H272764   4.044   3.958   5.995 -2.4544  0.1264 -0.3227
17117TIP3   OH272765   4.728   6.501  11.421  0.2395  0.3214 -0.0285
17117TIP3    H172766   4.636   6.496  11.448  0.2402  0.1167 -0.0602
17117TIP3    H272767   4.762   6.413  11.438  0.3425  0.3023 -0.3310
17118TIP3   OH272768   2.124   5.973   2.161 -1.0275 -0.0918 -0.0847
17118TIP3    H172769   2.119   5.985   2.066 -1.6435  1.0306  0.0731
17118TIP3    H272770   2.035   5.951   2.187 -0.6374 -1.5775  0.1138
17119TIP3   OH272771   1.310   6.590   1.053  0.1263  0.0321  0.1877
17119TIP3    H172772   1.360   6.535   1.114 -0.2127 -1.1126 -0.5408
17119TIP3    H272773   1.221   6.554   1.056  0.1111 -0.0568 -0.9944
17120TIP3   OH272774   6.148   4.470  16.522  0.1848  0.5014  0.2501
17120TIP3    H172775   6.185   4.419  16.449 -0.6788  2.2454 -1.5116
17120TIP3    H272776   6.218   4.475  16.586  0.7451 -1.6911 -0.1304
17121TIP3   OH272777   3.984   3.038  12.203 -0.1032 -0.3829  0.0983
17121TIP3    H172778   3.999   3.091  12.125 -0.4347  0.0350  0.3158
17121TIP3    H272779   3.888   3.034  12.211 -0.1128 -1.7832 -0.4398
17122TIP3   OH272780   1.221   3.512  11.674  0.4808 -0.0673 -0.3446
17122TIP3    H172781   1.217   3.478  11.763 -2.5141  1.6613  0.3448
17122TIP3    H272782   1.235   3.435  11.619 -0.0047 -1.5244  1.4706
17123TIP3   OH272783   5.915   1.723   4.131 -0.5524  0.0481  0.4300
17123TIP3    H172784   5.858   1.799   4.115 -1.7586 -0.5386  1.7669
17123TIP3    H272785   5.961   1.744   4.212 -1.3740 -0.8844  1.1682
17124TIP3   OH272786   5.176   1.215  11.684 -0.5279  0.4009 -0.0199
17124TIP3    H172787   5.157   1.300  11.645  0.6957  0.4990 -0.4584
17124TIP3    H272788   5.205   1.235  11.773  0.6116  0.5461 -0.4031
17125TIP3   OH272789   2.423   5.596  12.848  0.1699  0.1801 -0.2134
17125TIP3    H172790   2.436   5.617  12.755  0.0629  1.7838  0.1058
17125TIP3    H272791   2.492   5.645  12.893 -1.5635  1.8588  0.7767
17126TIP3   OH272792   6.099   6.174   2.049  0.7832  0.3585  0.0781
17126TIP3    H172793   6.060   6.209   2.129 -0.9440 -1.0602 -0.0675
17126TIP3    H272794   6.189   6.153   2.072  0.8176  1.5722  1.1318
17127TIP3   OH272795   4.209   2.097   5.397  0.3546 -0.7638  0.3987
17127TIP3    H172796   4.201   2.024   5.336  0.0975 -0.0132 -0.4926
17127TIP3    H272797   4.122   2.137   5.397  0.4884 -0.4696  0.8907
17128TIP3   OH272798   4.894   5.154  11.073 -0.2884  0.0200 -0.3677
17128TIP3    H172799   4.832   5.189  11.137 -0.6352 -0.2350 -0.5607
17128TIP3    H272800   4.980   5.185  11.102 -0.5603  0.7814 -0.3717
17129TIP3   OH272801   3.645   2.173   2.232  0.0022  0.3213  0.2541
17129TIP3    H172802   3.560   2.139   2.203 -0.1763  1.3456 -0.4761
17129TIP3    H272803   3.683   2.213   2.154  2.6984 -2.9739 -0.3387
17130TIP3   OH272804   3.442   1.642   4.385  0.5396  0.0095  0.2306
17130TIP3    H172805   3.439   1.698   4.463 -0.6201  0.9288 -0.4495
17130TIP3    H272806   3.351   1.618   4.369  0.9305 -1.5217  0.0762
17131TIP3   OH272807   1.446   5.070  14.102  0.5235 -0.0844 -0.6227
17131TIP3    H172808   1.461   5.164  14.095  0.2145  0.0076 -0.1197
17131TIP3    H272809   1.532   5.032  14.118  0.7651  0.0244 -1.5752
17132TIP3   OH272810   4.126   1.587  13.615  0.0123  0.2206 -0.6339
17132TIP3    H172811   4.153   1.669  13.656  0.1978  0.8420 -1.9352
17132TIP3    H272812   4.207   1.551  13.579 -0.3837  0.5213 -1.8556
17133TIP3   OH272813   1.724   3.976  13.755 -0.3012  0.4210  0.2341
17133TIP3    H172814   1.790   3.907  13.748 -0.9666 -0.1372 -0.7264
17133TIP3    H272815   1.757   4.033  13.825  0.0221 -1.1149  1.3898
17134TIP3   OH272816   5.627   5.707  14.555 -0.1818 -0.2114  0.1601
17134TIP3    H172817   5.715   5.684  14.524  0.0629  0.4954  0.3323
17134TIP3    H272818   5.589   5.759  14.484  0.6114  1.9494  1.2643
17135TIP3   OH272819   5.138   1.493  11.631  0.1527  0.5848 -0.2968
17135TIP3    H172820   5.208   1.544  11.590  0.4298  1.3040  1.0390
17135TIP3    H272821   5.078   1.559  11.666 -1.3193 -0.0122 -1.5713
17136TIP3   OH272822   2.021   5.794  16.430  0.1818  0.0593  0.3401
17136TIP3    H172823   1.965   5.751  16.495  1.6791 -0.1947  1.5286
17136TIP3    H272824   2.024   5.885  16.457  1.1249 -0.1225  0.9017
17137TIP3   OH272825   0.967   6.682  11.419 -0.2966 -0.0688  0.0760
17137TIP3    H172826   0.981   6.595  11.383  0.5319 -0.0833  0.4122
17137TIP3    H272827   1.035   6.736  11.378 -0.1158  0.1759  0.6795
17138TIP3   OH272828   1.024   0.677   4.113  0.3540 -0.0469 -0.0861
17138TIP3    H172829   1.091   0.622   4.072 -0.1072 -0.6656 -0.0253
17138TIP3    H272830   0.955   0.616   4.138  0.1964  0.4504  0.7331
17139TIP3   OH272831   6.024   2.958  16.809  0.2931 -0.3825  0.1126
17139TIP3    H172832   6.019   3.013  16.730 -0.7848  0.8262  0.9873
17139TIP3    H272833   6.042   3.019  16.880  1.9277 -1.5474  0.7457
17140TIP3   OH272834   1.194   4.781   0.142  0.0949  0.1911  0.6516
17140TIP3    H172835   1.189   4.871   0.112  0.4043 -0.1359 -0.4264
17140TIP3    H272836   1.139   4.778   0.220  0.3516  1.3811  0.8949
17141TIP3   OH272837   0.901   3.506   2.688 -0.3309 -0.2103 -0.8121
17141TIP3    H172838   0.839   3.567   2.646 -0.8326 -0.0782  0.1028
17141TIP3    H272839   0.987   3.542   2.666 -0.6060  0.4393 -0.8763
17142TIP3   OH272840   6.236   6.438  13.032 -0.0195  0.0835  0.2550
17142TIP3    H172841   6.171   6.446  13.101 -1.0563 -1.8610 -0.4067
17142TIP3    H272842   6.292   6.366  13.060  1.2546  1.0636  0.3215
17143TIP3   OH272843   4.518   4.425  12.819  0.2253  0.0992 -0.0744
17143TIP3    H172844   4.577   4.360  12.782 -0.7030  0.0102 -1.4858
17143TIP3    H272845   4.435   4.412  12.772  0.5894  3.7130 -2.1120
17144TIP3   OH272846   2.836   1.088  13.402 -0.1317 -0.3572 -0.6593
17144TIP3    H172847   2.860   1.022  13.467  0.3331 -0.3998 -0.8733
17144TIP3    H272848   2.759   1.131  13.440  1.6140  1.3745  1.1593
17145TIP3   OH272849   2.326   5.361   3.880 -0.0162 -0.5320 -0.6771
17145TIP3    H172850   2.265   5.314   3.823 -0.1322  0.3659 -1.3282
17145TIP3    H272851   2.284   5.362   3.966 -0.6346 -0.4530 -0.9772
17146TIP3   OH272852   2.291   4.465  12.576 -0.2061 -0.2004  0.1183
17146TIP3    H172853   2.347   4.506  12.510 -1.3145 -1.5318 -1.7682
17146TIP3    H272854   2.344   4.393  12.610  0.0476 -0.0827 -0.0223
17147TIP3   OH272855   0.896   3.328  13.259  0.0953  0.3348  0.9446
17147TIP3    H172856   0.906   3.354  13.167  0.6471 -4.3065 -0.5610
17147TIP3    H272857   0.986   3.318  13.291 -0.0083 -1.5970  0.7270
17148TIP3   OH272858   3.940   4.869  12.431 -0.0916 -0.2533  0.0674
17148TIP3    H172859   4.021   4.905  12.467 -0.1052 -0.1190 -0.0335
17148TIP3    H272860   3.967   4.792  12.382 -0.2475 -1.4233  1.7129
17149TIP3   OH272861   4.624   2.060  12.663  0.2177 -0.4860 -0.3575
17149TIP3    H172862   4.571   2.080  12.741  0.4615 -1.7513  0.1569
17149TIP3    H272863   4.693   2.127  12.664  1.8945 -2.0813  2.1539
17150TIP3   OH272864   2.416   2.932   5.281  0.3008  0.3918  0.2475
17150TIP3    H172865   2.337   2.924   5.334 -0.0953  0.5304 -0.3172
17150TIP3    H272866   2.456   2.845   5.284 -0.0043  0.2541  0.3378
17151TIP3   OH272867   2.820   3.997   5.884 -0.2797 -0.3478  0.0815
17151TIP3    H172868   2.726   4.011   5.894  0.1377  2.7122  0.6929
17151TIP3    H272869   2.851   4.076   5.839  1.9672 -1.4172 -0.3470
17152TIP3   OH272870   4.339   5.989   2.450 -0.6642 -0.5211 -0.8836
17152TIP3    H172871   4.420   5.942   2.430 -1.4955 -1.5492 -1.9527
17152TIP3    H272872   4.367   6.080   2.462  0.9078 -1.1574  0.7548
17153TIP3   OH272873   2.687   2.950   1.807  0.6816  0.0875  0.0041
17153TIP3    H172874   2.649   2.943   1.895  1.3822  0.7071  0.3800
17153TIP3    H272875   2.614   2.972   1.750  0.5151  1.6913  0.7760
17154TIP3   OH272876   0.595   6.571   0.046  0.2870 -0.3395  0.1338
17154TIP3    H172877   0.603   6.638  -0.022  0.7219 -0.6770 -0.1557
17154TIP3    H272878   0.579   6.620   0.127  2.2815  0.2422  0.2398
17155TIP3   OH272879   6.034   5.899   3.453 -0.0495 -0.1828  0.5537
17155TIP3    H172880   5.953   5.946   3.434  0.5689  0.5908 -0.1946
17155TIP3    H272881   6.044   5.907   3.548  0.3114  1.6663  0.3890
17156TIP3   OH272882   2.243   3.930   4.164 -0.0747  0.0692 -0.1386
17156TIP3    H172883   2.220   3.963   4.078  0.1883  3.1738  0.8618
17156TIP3    H272884   2.161   3.933   4.214  0.3626  1.2063  0.5398
17157TIP3   OH272885   2.630   5.959   2.977  0.7572  0.0931  0.3357
17157TIP3    H172886   2.604   5.922   2.893  0.7936 -3.6150  1.7515
17157TIP3    H272887   2.549   5.990   3.016  0.1534 -1.3019  0.2481
17158TIP3   OH272888   1.891   5.653   4.074  0.2309 -0.3879  0.2600
17158TIP3    H172889   1.874   5.708   4.150  2.5088  0.7411  0.0354
17158TIP3    H272890   1.900   5.715   4.001 -1.5472 -1.4171 -0.9067
17159TIP3   OH272891   1.933   4.830  11.123 -0.0444  0.5469  0.0534
17159TIP3    H172892   1.864   4.781  11.078  0.2426 -1.0285  1.2555
17159TIP3    H272893   2.011   4.814  11.070  0.1885 -0.9061  0.7787
17160TIP3   OH272894   0.818   0.974   1.201  0.6029 -0.3886  0.0737
17160TIP3    H172895   0.853   0.886   1.185  0.7453 -0.5787  1.3536
17160TIP3    H272896   0.775   0.967   1.286 -1.0607  0.2934 -0.6720
17161TIP3   OH272897   4.111   1.022  13.117  0.2424 -0.2305 -0.2731
17161TIP3    H172898   4.137   1.046  13.206  2.1627 -1.3171 -0.4698
17161TIP3    H272899   4.074   0.934  13.125  2.0159 -1.0741 -0.6913
17162TIP3   OH272900   2.487   3.457   1.549 -0.1557  0.1584  0.7151
17162TIP3    H172901   2.497   3.378   1.495  0.1078  1.5032 -1.3190
17162TIP3    H272902   2.414   3.438   1.607  0.1283 -1.6984  0.5200
17163TIP3   OH272903   2.552   0.166  14.533  0.9670 -0.2910 -0.4904
17163TIP3    H172904   2.608   0.091  14.514 -0.3726 -0.9336 -2.0893
17163TIP3    H272905   2.582   0.234  14.472  0.3234 -0.4899 -1.0382
17164TIP3   OH272906   2.272   1.056  10.144 -0.4788 -0.4209 -0.4555
17164TIP3    H172907   2.207   1.096  10.202 -1.2788 -0.7867 -1.0704
17164TIP3    H272908   2.240   0.967  10.132  0.6385 -0.8873 -0.0515
17165TIP3   OH272909   3.423   2.500   3.074 -0.0198 -0.0417 -0.0829
17165TIP3    H172910   3.365   2.516   3.149  0.6698  1.3805  0.1725
17165TIP3    H272911   3.503   2.466   3.113  0.1544  0.2087 -0.2208
17166TIP3   OH272912   3.138   3.540   0.437 -0.1785  0.1334 -0.3532
17166TIP3    H172913   3.069   3.524   0.501  0.2458 -2.2585 -0.4042
17166TIP3    H272914   3.146   3.458   0.389  2.0011  0.6817 -1.0480
17167TIP3   OH272915   2.138   4.576  14.787 -0.1924  0.7250  0.3979
17167TIP3    H172916   2.173   4.596  14.700  0.6358 -0.7515  0.3552
17167TIP3    H272917   2.048   4.548  14.770 -0.1886  0.8954  0.0779
17168TIP3   OH272918   4.938   1.969  12.486  0.3445 -0.1698  0.2829
17168TIP3    H172919   5.005   2.037  12.488  1.3849 -1.0213 -1.8532
17168TIP3    H272920   4.922   1.948  12.578 -0.0471  2.8988  1.0356
17169TIP3   OH272921   3.295   3.115  15.789  0.3141 -0.1416 -0.7942
17169TIP3    H172922   3.204   3.141  15.770  0.2913 -0.4192 -1.0682
17169TIP3    H272923   3.334   3.194  15.827 -0.8548 -0.8636  2.2099
17170TIP3   OH272924   4.128   3.788   4.792  0.3742 -0.0717  0.1020
17170TIP3    H172925   4.163   3.859   4.738  1.3418 -1.2843 -0.9244
17170TIP3    H272926   4.203   3.758   4.843  0.2991 -1.2081 -0.4373
17171TIP3   OH272927   6.654   5.845  12.978  0.0296  0.1359  0.0106
17171TIP3    H172928   6.660   5.826  12.885  0.2766  0.1304  0.0278
17171TIP3    H272929   6.638   5.760  13.019  2.3486 -0.2584  0.2044
17172TIP3   OH272930   2.696   0.165   0.577 -0.3417  0.0878  0.0178
17172TIP3    H172931   2.612   0.133   0.545  0.0590  0.0961 -1.1101
17172TIP3    H272932   2.754   0.088   0.572 -0.7208 -0.4425  2.6267
17173TIP3   OH272933   3.923   6.619   2.692  0.2951  0.4823 -0.2399
17173TIP3    H172934   3.940   6.584   2.605  1.4981  2.3527 -0.8159
17173TIP3    H272935   3.868   6.695   2.677  0.1967  0.6017  0.6676
17174TIP3   OH272936   2.123   3.124   5.474  1.1873 -0.5076 -0.2265
17174TIP3    H172937   2.146   3.036   5.444  1.9143  0.6042 -3.3137
17174TIP3    H272938   2.033   3.135   5.446  1.8666  0.5432 -2.1664
17175TIP3   OH272939   0.925   1.087  14.390 -0.0774 -0.0548  0.0023
17175TIP3    H172940   0.950   1.088  14.482 -0.2855  1.1308  0.0571
17175TIP3    H272941   0.989   1.144  14.347 -1.4068  1.3557 -0.1877
17176TIP3   OH272942   3.397   2.139  14.007 -0.0476  0.5404  0.4243
17176TIP3    H172943   3.381   2.127  14.100 -0.1133  0.9119  0.4629
17176TIP3    H272944   3.314   2.114  13.965  0.1431 -0.0995  0.4294
17177TIP3   OH272945   4.109   3.303   6.285 -0.4424 -0.3762 -0.3991
17177TIP3    H172946   4.113   3.387   6.331  0.1437 -1.5233  1.8148
17177TIP3    H272947   4.019   3.274   6.294 -0.3174 -0.6228  0.1464
17178TIP3   OH272948   1.056   0.550   0.162  0.2780 -0.1104  0.5751
17178TIP3    H172949   1.088   0.533   0.250  0.9192  0.0645  0.3770
17178TIP3    H272950   0.960   0.546   0.170  0.3170  0.5167  1.4031
17179TIP3   OH272951   1.301   6.247  16.550 -0.1009  0.4657 -0.2689
17179TIP3    H172952   1.206   6.259  16.558  0.0344  2.4064 -0.9815
17179TIP3    H272953   1.333   6.251  16.640 -0.5608  1.3784 -0.1310
17180TIP3   OH272954   5.231   6.733   4.721  0.3610 -0.2528 -0.0431
17180TIP3    H172955   5.322   6.721   4.695 -0.0104  0.1110 -1.6071
17180TIP3    H272956   5.181   6.678   4.660 -0.5801  0.9496 -0.3969
17181TIP3   OH272957   1.396   3.096   0.114 -0.6150 -0.4689 -0.6690
17181TIP3    H172958   1.420   3.144   0.193 -2.8306  2.8492 -1.7893
17181TIP3    H272959   1.309   3.060   0.133 -1.1649  0.3558 -1.5063
17182TIP3   OH272960   5.055   3.553  11.990 -0.2108 -0.1850 -0.1247
17182TIP3    H172961   5.000   3.506  12.052  0.1154  0.1577  0.4388
17182TIP3    H272962   5.139   3.507  11.993 -0.6211 -1.0688 -1.4184
17183TIP3   OH272963   6.115   0.914   3.696  0.0907 -0.5953 -0.0327
17183TIP3    H172964   6.091   0.832   3.651  0.3319 -1.6492  1.6591
17183TIP3    H272965   6.046   0.925   3.762  2.1056 -1.6478  2.4176
17184TIP3   OH272966   4.789   0.694  16.411  0.6341 -0.0009  0.3173
17184TIP3    H172967   4.714   0.651  16.452  0.5463  0.0021  0.1604
17184TIP3    H272968   4.800   0.649  16.327  0.5441  0.2756  0.1541
17185TIP3   OH272969   4.419   2.951   3.728 -0.1096 -0.8993 -0.0568
17185TIP3    H172970   4.408   3.004   3.649  0.0727 -3.6268 -2.0262
17185TIP3    H272971   4.505   2.977   3.762 -0.1427  0.2444 -0.7778
17186TIP3   OH272972   5.511   3.785  15.334 -0.1953  0.0044 -0.5385
17186TIP3    H172973   5.561   3.842  15.276  0.7723 -1.2603 -0.9864
17186TIP3    H272974   5.452   3.844  15.380  0.8514  1.3831 -0.8989
17187TIP3   OH272975   2.083   0.061   3.553 -0.3447 -0.1395  0.2005
17187TIP3    H172976   2.119   0.148   3.570  0.1042 -0.1662 -0.5760
17187TIP3    H272977   2.058   0.028   3.640  1.1598  0.0391  0.7279
17188TIP3   OH272978   4.674   3.951  11.186 -0.1319  0.5110 -0.0149
17188TIP3    H172979   4.587   3.951  11.226 -0.1798  3.6538  0.0989
17188TIP3    H272980   4.720   3.879  11.230 -2.0538 -0.0335  1.2576
17189TIP3   OH272981   0.512   1.529   3.314  0.7307  0.0726  0.6889
17189TIP3    H172982   0.505   1.532   3.219 -1.2219 -2.3701  0.6507
17189TIP3    H272983   0.591   1.478   3.331  1.1862  0.6724  0.4150
17190TIP3   OH272984   0.075   4.617  11.084 -0.1786  0.5479 -0.1145
17190TIP3    H172985   0.020   4.602  11.007 -1.1555  0.6503  0.5500
17190TIP3    H272986   0.163   4.628  11.048 -0.3620 -0.9145 -1.0941
17191TIP3   OH272987   2.951   4.253  10.124  0.0249 -0.1895  0.2307
17191TIP3    H172988   3.044   4.255  10.148 -0.1692  0.2592  0.9984
17191TIP3    H272989   2.949   4.212  10.038  0.9677  0.0892  0.0629
17192TIP3   OH272990   4.797   3.827  12.923  0.5483 -0.6446  0.1714
17192TIP3    H172991   4.718   3.828  12.977  0.8053 -0.8079  0.5554
17192TIP3    H272992   4.784   3.752  12.864  0.9494 -1.4257  1.0498
17193TIP3   OH272993   6.292   5.525   0.607  0.3333 -0.0335 -0.1162
17193TIP3    H172994   6.326   5.605   0.567  2.0078  0.0442  1.3532
17193TIP3    H272995   6.273   5.551   0.697  0.2260 -1.1270  0.1789
17194TIP3   OH272996   4.152   1.069  13.402  0.2829  0.3151 -0.3536
17194TIP3    H172997   4.214   1.141  13.394  0.5089  0.0104 -1.6014
17194TIP3    H272998   4.090   1.098  13.469  1.4678  0.8264  0.5519
17195TIP3   OH272999   2.563   6.548  16.021  0.7039 -0.0712 -0.3311
17195TIP3    H173000   2.567   6.643  16.015  1.1952 -0.0096  0.8075
17195TIP3    H273001   2.475   6.525  15.993  0.3231  0.7765  0.1685
17196TIP3   OH273002   3.398   1.953  14.666 -0.4578  0.3240 -0.2249
17196TIP3    H173003   3.362   2.039  14.644 -2.1720 -0.2116  0.3161
17196TIP3    H273004   3.366   1.936  14.755 -0.4768 -1.0224 -0.4661
17197TIP3   OH273005   5.630   5.389   4.119  0.4971  0.5241 -0.2557
17197TIP3    H173006   5.691   5.319   4.097 -1.9920 -2.0047  0.2383
17197TIP3    H273007   5.618   5.437   4.037  0.6021 -1.0893 -1.2680
17198TIP3   OH273008   4.094   4.746  12.776  0.3676  0.9426  0.4830
17198TIP3    H173009   4.158   4.715  12.711 -0.5143  1.4494 -0.6782
17198TIP3    H273010   4.065   4.667  12.821  0.4187  0.4626 -0.3082
17199TIP3   OH273011   0.059   6.766  16.458 -0.0398 -0.1349  0.0543
17199TIP3    H173012   0.138   6.802  16.498  0.6845  0.6818 -1.9720
17199TIP3    H273013   0.090   6.718  16.382 -1.4810  0.4095 -0.9382
17200TIP3   OH273014   2.700   5.432  12.113  0.1278  0.0922 -0.8324
17200TIP3    H173015   2.770   5.449  12.177 -0.8157 -0.2654  0.3333
17200TIP3    H273016   2.620   5.430  12.165 -0.9776  1.9109 -2.3089
17201TIP3   OH273017   0.264   2.996   3.372 -0.2162 -0.0614  0.2291
17201TIP3    H173018   0.234   3.019   3.284 -1.0467  0.1094  0.5466
17201TIP3    H273019   0.358   3.011   3.370 -0.3292  0.6270 -0.4255
17202TIP3   OH273020   6.193   5.629   3.352 -0.0424  0.5629 -0.3448
17202TIP3    H173021   6.142   5.690   3.406 -2.9720 -1.6773 -0.3175
17202TIP3    H273022   6.127   5.570   3.315  2.3060 -0.5739 -3.0151
17203TIP3   OH273023   2.397   4.284  11.231 -0.0187 -0.2116  0.1581
17203TIP3    H173024   2.330   4.220  11.209 -1.4578  1.7837 -1.7395
17203TIP3    H273025   2.372   4.317  11.317 -1.2803  0.2328 -0.3636
17204TIP3   OH273026   3.785   0.258   2.442  0.7009  0.1660 -0.3264
17204TIP3    H173027   3.832   0.234   2.522 -0.0207  1.9686  0.7008
17204TIP3    H273028   3.812   0.349   2.426  1.8755 -0.5563 -2.9396
17205TIP3   OH273029   6.562   2.199   5.057  0.2531 -0.5322 -0.1822
17205TIP3    H173030   6.545   2.293   5.051 -1.2284 -0.8403 -1.5783
17205TIP3    H273031   6.585   2.174   4.967  1.0099 -1.4473  0.2560
17206TIP3   OH273032   5.674   5.511   3.878  0.3969  0.1188  0.1305
17206TIP3    H173033   5.699   5.508   3.786 -2.1855 -0.1129 -0.6483
17206TIP3    H273034   5.589   5.556   3.878  0.9984  1.4627  2.5895
17207TIP3   OH273035   4.716   2.618   0.516  0.6181 -0.0549 -0.1025
17207TIP3    H173036   4.802   2.586   0.489  0.3258  0.5905 -1.9470
17207TIP3    H273037   4.655   2.552   0.484  0.3747 -0.1260  0.5104
17208TIP3   OH273038   6.691   0.677  16.636  0.0395 -0.0495  0.2760
17208TIP3    H173039   6.693   0.706  16.727 -1.1386 -0.5767  0.4858
17208TIP3    H273040   6.598   0.671  16.614  0.2838 -0.9857 -0.6156
17209TIP3   OH273041   4.515   1.572  16.437  0.0413 -0.5177 -0.1385
17209TIP3    H173042   4.477   1.620  16.510  1.5992  1.7942 -0.7354
17209TIP3    H273043   4.440   1.547  16.383 -0.9275  0.0298  0.9093
17210TIP3   OH273044   1.993   1.067  15.524  0.1790 -0.0647 -0.1527
17210TIP3    H173045   1.901   1.092  15.524  0.1175 -0.1111  2.2115
17210TIP3    H273046   1.992   0.972  15.525  0.2282 -0.0588  0.7698
17211TIP3   OH273047   3.231   4.543  12.874 -0.4287 -0.5232  0.0199
17211TIP3    H173048   3.288   4.513  12.803  0.0208 -0.6975  0.4505
17211TIP3    H273049   3.180   4.614  12.834 -0.4769 -0.8906 -0.5916
17212TIP3   OH273050   3.437   6.176  13.982  0.4721 -0.0277 -0.2745
17212TIP3    H173051   3.520   6.146  13.946 -0.0046  0.4418 -1.8650
17212TIP3    H273052   3.433   6.268  13.959  0.1601  0.3249  1.1036
17213TIP3   OH273053   0.839   0.530   4.551  0.2707  0.7347 -0.2612
17213TIP3    H173054   0.806   0.576   4.474 -0.0103 -2.8736 -2.5137
17213TIP3    H273055   0.760   0.507   4.600  0.4157  2.5378  0.9049
17214TIP3   OH273056   2.763   5.255   1.563 -0.1802  0.5727 -0.0527
17214TIP3    H173057   2.835   5.311   1.535  0.0474  1.6631  2.4027
17214TIP3    H273058   2.807   5.181   1.607 -0.5129 -1.0985 -2.3308
17215TIP3   OH273059   1.050   2.215   4.200 -0.0033 -0.2521 -0.3891
17215TIP3    H173060   1.006   2.269   4.135  0.6261 -0.0252 -0.6290
17215TIP3    H273061   1.009   2.239   4.283 -0.0159  0.2918 -0.5500
17216TIP3   OH273062   5.890   0.018   3.591  0.0714 -0.3224 -0.4551
17216TIP3    H173063   5.839  -0.029   3.657  2.8963 -0.1617  2.0806
17216TIP3    H273064   5.835   0.019   3.513 -3.1998 -1.1508  1.6774
17217TIP3   OH273065   4.292   3.402  10.837 -0.3741  0.0001 -0.3294
17217TIP3    H173066   4.298   3.429  10.745 -1.3266  2.4197  0.2271
17217TIP3    H273067   4.229   3.330  10.837 -0.5278  0.1105 -1.5382
17218TIP3   OH273068   4.450   3.642  11.559  0.3284  0.0994 -0.1602
17218TIP3    H173069   4.417   3.566  11.512  0.7279 -1.2210  1.5902
17218TIP3    H273070   4.372   3.685  11.594  0.2031 -0.7244  0.6004
17219TIP3   OH273071   2.179   2.297   2.310 -0.3897  0.6015 -0.0599
17219TIP3    H173072   2.117   2.228   2.333  0.1081  0.7104  1.7779
17219TIP3    H273073   2.219   2.322   2.394  0.2699  2.3224 -0.8409
17220TIP3   OH273074   3.345   5.881  15.395 -0.1297 -0.0210  0.2717
17220TIP3    H173075   3.419   5.856  15.340 -1.0169  0.1387 -1.0347
17220TIP3    H273076   3.359   5.973  15.416  0.1874 -0.0733  0.2947
17221TIP3   OH273077   4.033   2.635  12.549 -0.1651  0.0641 -0.2241
17221TIP3    H173078   4.117   2.680  12.551  0.4043 -0.7995  4.0543
17221TIP3    H273079   4.048   2.558  12.493  1.4210  0.6841 -0.6973
17222TIP3   OH273080   4.926   4.715   0.609 -0.3064  0.3486  0.1181
17222TIP3    H173081   4.966   4.642   0.656 -1.0614  0.3187  0.7306
17222TIP3    H273082   4.920   4.685   0.518 -1.3685 -0.6951  0.5077
17223TIP3   OH273083   0.228   4.442  12.292 -0.0543  0.3235 -0.2599
17223TIP3    H173084   0.291   4.512  12.277  0.4710  0.7671  3.1871
17223TIP3    H273085   0.276   4.362  12.271  0.9320  0.7827  0.1737
17224TIP3   OH273086   3.789   6.572   1.546 -1.3674  0.6279  0.1446
17224TIP3    H173087   3.767   6.620   1.467 -1.5242  1.2683  0.5719
17224TIP3    H273088   3.779   6.635   1.617  0.1969  0.4846  0.5360
17225TIP3   OH273089   5.283   1.538  10.864 -0.1918  0.3786 -0.2669
17225TIP3    H173090   5.292   1.572  10.775 -2.2644 -1.3175 -1.1974
17225TIP3    H273091   5.269   1.444  10.852 -1.7160  0.2973  1.7608
17226TIP3   OH273092   4.441   6.109   2.818  0.8746  0.2761 -0.5080
17226TIP3    H173093   4.416   6.193   2.780  0.5307  0.4315  0.0472
17226TIP3    H273094   4.503   6.071   2.755  1.0022  0.9257 -0.7787
17227TIP3   OH273095   4.462   4.939  15.237 -0.7848  0.2001  0.1566
17227TIP3    H173096   4.434   5.022  15.197  0.3057  0.8023  0.5942
17227TIP3    H273097   4.430   4.943  15.327 -1.5791 -0.3032 -0.0947
17228TIP3   OH273098   2.673   5.314  14.028  0.2861 -0.3755 -0.0774
17228TIP3    H173099   2.620   5.393  14.013  0.4697 -0.3077 -0.3858
17228TIP3    H273100   2.613   5.242  14.012  0.7247 -0.3325 -2.2921
17229TIP3   OH273101   0.765   5.386   4.201 -0.2296 -0.0572  0.3810
17229TIP3    H173102   0.742   5.340   4.282  0.3021  0.2750  0.7279
17229TIP3    H273103   0.745   5.324   4.132  1.1099 -1.0805  0.8728
17230TIP3   OH273104   5.114   0.880   0.461  0.5949  0.2760  0.2717
17230TIP3    H173105   5.074   0.884   0.548 -1.8313 -0.7960 -0.6831
17230TIP3    H273106   5.140   0.788   0.451 -0.0056  0.1634 -0.4256
17231TIP3   OH273107   4.495   5.974   1.108 -0.1070 -0.0640 -0.2245
17231TIP3    H173108   4.441   5.929   1.043  1.1761 -1.7801 -0.1682
17231TIP3    H273109   4.575   5.923   1.113  1.0613  1.7187  0.5737
17232TIP3   OH273110   3.947   1.201   3.636 -0.1434 -0.0552 -0.0650
17232TIP3    H173111   3.973   1.109   3.643  2.0078  0.4427 -0.8756
17232TIP3    H273112   3.906   1.207   3.550 -0.0990 -0.2049 -0.0980
17233TIP3   OH273113   4.944   3.707   4.665  0.1487 -0.4265  0.6567
17233TIP3    H173114   4.989   3.759   4.732 -1.1282  1.2210  0.3154
17233TIP3    H273115   4.873   3.663   4.712 -0.1009 -0.1022  0.5933
17234TIP3   OH273116   2.410   3.125  11.550 -0.2264  0.0940 -0.2474
17234TIP3    H173117   2.385   3.051  11.606  0.5193  0.1511  0.1748
17234TIP3    H273118   2.464   3.086  11.481 -0.5680  0.1205 -0.5295
17235TIP3   OH273119   0.537   1.108   0.400 -0.1962  0.4583 -0.2785
17235TIP3    H173120   0.558   1.196   0.369 -1.6733  0.0604 -2.6977
17235TIP3    H273121   0.443   1.110   0.418 -0.9405 -1.2758 -3.2789
17236TIP3   OH273122   1.038   6.158   0.470  0.0582 -0.4829 -1.2670
17236TIP3    H173123   0.974   6.087   0.474 -0.5798  0.1181  2.9066
17236TIP3    H273124   0.985   6.238   0.478  1.0928  0.1961 -1.0497
17237TIP3   OH273125   3.077   2.210  13.083  0.2837 -0.1800 -0.2262
17237TIP3    H173126   3.150   2.266  13.055 -0.3519 -0.1050 -1.8126
17237TIP3    H273127   3.037   2.258  13.155  2.0771 -0.4608  1.0444
17238TIP3   OH273128   5.919   4.073  12.078 -0.3401  0.1295  0.2557
17238TIP3    H173129   5.894   4.086  12.169 -1.6393  4.2059 -0.4697
17238TIP3    H273130   6.015   4.074  12.079 -0.3401  0.1509  1.5535
17239TIP3   OH273131   4.410   5.680  12.329  0.2149 -0.6379 -0.1589
17239TIP3    H173132   4.363   5.622  12.389  2.1461 -0.6524  1.4522
17239TIP3    H273133   4.407   5.766  12.372  1.1001 -0.5152 -0.3168
17240TIP3   OH273134   3.660   1.381   3.528  0.4146 -0.0062 -0.0046
17240TIP3    H173135   3.753   1.398   3.518  0.4737 -0.5988 -0.4474
17240TIP3    H273136   3.617   1.452   3.481  0.6581 -0.6384 -1.1964
17241TIP3   OH273137   3.918   3.232  13.193 -0.0134  0.3068 -0.0774
17241TIP3    H173138   3.854   3.180  13.240 -0.0630 -0.0226 -0.5012
17241TIP3    H273139   4.002   3.192  13.214 -0.0716 -0.0904 -0.5814
17242TIP3   OH273140   0.796   2.381   4.985 -0.0244  0.3674 -0.1003
17242TIP3    H173141   0.748   2.315   5.035  2.0718 -0.7268  0.5973
17242TIP3    H273142   0.746   2.462   4.998 -1.8778 -0.7597  0.1915
17243TIP3   OH273143   6.460   6.728   3.144  0.3766  0.0634 -0.2492
17243TIP3    H173144   6.392   6.695   3.085  2.5841  0.2950 -3.0981
17243TIP3    H273145   6.524   6.657   3.150  0.1698 -0.0094  2.0898
17244TIP3   OH273146   5.454   2.886   5.286 -0.0620  0.5167 -0.1863
17244TIP3    H173147   5.373   2.871   5.237 -0.4030  0.9477  0.2343
17244TIP3    H273148   5.440   2.841   5.369  0.5720 -0.3344 -0.5335
17245TIP3   OH273149   1.600   4.775   1.676 -0.0429 -0.3452  0.5155
17245TIP3    H173150   1.592   4.799   1.584  0.3845 -0.0810  0.5425
17245TIP3    H273151   1.690   4.798   1.699  0.0374 -0.9720  0.8415
17246TIP3   OH273152   5.646   0.350  16.415 -0.2478 -0.0694  0.0339
17246TIP3    H173153   5.712   0.282  16.432 -0.5298  0.1457  2.3034
17246TIP3    H273154   5.673   0.389  16.332  1.9983 -0.5748  0.4454
17247TIP3   OH273155   1.528   5.378  16.406 -0.2489  0.5710 -0.5655
17247TIP3    H173156   1.602   5.438  16.406 -0.9568  1.4656 -1.1404
17247TIP3    H273157   1.493   5.383  16.495  0.5971 -0.1508 -0.1780
17248TIP3   OH273158   2.941   1.743   5.097  0.2289 -0.6468  0.1990
17248TIP3    H173159   2.994   1.668   5.122  0.0952 -0.4874  1.0009
17248TIP3    H273160   2.939   1.741   5.002  0.8484 -1.2240  0.1921
17249TIP3   OH273161   3.677   5.494  14.961  0.0878  0.7690 -0.1761
17249TIP3    H173162   3.735   5.472  15.033 -1.2276  1.2456  1.0665
17249TIP3    H273163   3.625   5.567  14.993 -1.9421 -0.3245 -0.8111
17250TIP3   OH273164   3.575   0.919   3.606  0.2556  0.1529  0.1391
17250TIP3    H173165   3.626   0.986   3.561 -0.5904 -0.0401 -1.1576
17250TIP3    H273166   3.612   0.836   3.574 -0.1917  0.0118 -0.0124
17251TIP3   OH273167   5.535   4.013   1.777  0.3512 -0.0738  0.2704
17251TIP3    H173168   5.604   4.075   1.800  0.3011 -0.2749  0.9960
17251TIP3    H273169   5.567   3.929   1.809 -0.1876 -0.1842  0.5342
17252TIP3   OH273170   2.253   4.322  16.941 -0.2735 -0.4668 -0.1513
17252TIP3    H173171   2.297   4.302  17.023  1.2008  1.7427 -0.3050
17252TIP3    H273172   2.279   4.251  16.882  0.3934 -0.9520  0.6983
17253TIP3   OH273173   5.414   0.136  12.053  0.3410  0.4734  0.1271
17253TIP3    H173174   5.377   0.064  12.002  0.8453  0.6959 -0.5765
17253TIP3    H273175   5.430   0.100  12.140 -0.5803  0.0957  0.1468
17254TIP3   OH273176   6.097   2.741   4.656  0.3427  0.0899  0.5956
17254TIP3    H173177   6.145   2.720   4.736  0.7264  0.6125  0.5020
17254TIP3    H273178   6.165   2.764   4.592 -0.0451  1.3215  0.6012
17255TIP3   OH273179   2.385   3.543   3.415  0.4202  0.1198  0.0100
17255TIP3    H173180   2.437   3.488   3.356 -0.1032  0.3263 -0.6585
17255TIP3    H273181   2.359   3.617   3.361 -1.1720 -0.3358  0.1261
17256TIP3   OH273182   1.870   5.269   4.413 -0.0344 -0.3872  0.4522
17256TIP3    H173183   1.905   5.182   4.431 -1.3124 -1.1287 -0.4951
17256TIP3    H273184   1.888   5.283   4.320 -0.2420  0.1640  0.4918
17257TIP3   OH273185   5.154   1.762   3.602 -0.3769  0.2103 -0.0912
17257TIP3    H173186   5.172   1.668   3.592  0.7221  0.2772  0.9404
17257TIP3    H273187   5.103   1.785   3.525 -0.4325 -1.1806 -0.5048
17258TIP3   OH273188   4.755   4.315  16.163  0.4264  0.3319  0.1317
17258TIP3    H173189   4.737   4.316  16.257  2.5265 -3.9182  0.8581
17258TIP3    H273190   4.849   4.300  16.157  0.3910  0.6727 -2.6822
17259TIP3   OH273191   1.413   6.002  11.926 -0.0088  0.0799  0.0074
17259TIP3    H173192   1.494   6.044  11.954  0.2508  0.3011 -1.0237
17259TIP3    H273193   1.368   6.070  11.874  0.8659 -1.1397 -2.5226
17260TIP3   OH273194   1.523   1.120  13.177 -0.2013  0.3762 -0.0717
17260TIP3    H173195   1.473   1.069  13.240 -2.5797  0.3884 -1.7843
17260TIP3    H273196   1.559   1.055  13.116 -0.5530  0.5442 -0.4621
17261TIP3   OH273197   0.629   2.725   2.691 -0.1422 -0.3586 -0.2524
17261TIP3    H173198   0.626   2.802   2.748  1.6310 -0.1082 -0.4312
17261TIP3    H273199   0.635   2.761   2.603  1.6190 -0.6498 -0.2820
17262TIP3   OH273200   0.429   6.197   3.488 -0.7726  0.1358  0.1231
17262TIP3    H173201   0.511   6.227   3.526 -0.3999 -0.9558  0.2149
17262TIP3    H273202   0.396   6.272   3.438  0.0024  0.7535  0.5232
17263TIP3   OH273203   3.196   5.423  14.174  0.5066  0.7833  0.0211
17263TIP3    H173204   3.106   5.403  14.147  0.4322  1.6874 -0.4425
17263TIP3    H273205   3.201   5.519  14.171  1.7325  0.7214 -0.7942
17264TIP3   OH273206   0.453   5.441   3.192  0.4153 -0.1107 -0.4710
17264TIP3    H173207   0.508   5.449   3.114  0.3908  0.1454 -0.4632
17264TIP3    H273208   0.366   5.469   3.163  0.6710  1.1996 -0.0474
17265TIP3   OH273209   3.311   5.044   1.560  0.3587  0.0747 -0.3850
17265TIP3    H173210   3.356   5.084   1.486 -0.1034  1.5810  0.1089
17265TIP3    H273211   3.230   5.010   1.523  0.4238  0.2543 -0.6982
17266TIP3   OH273212   2.666   4.200   5.704 -0.8495  0.0791  0.4978
17266TIP3    H173213   2.757   4.169   5.710 -1.0588 -1.3317 -2.0455
17266TIP3    H273214   2.627   4.177   5.788  0.8043 -0.4787  1.1606
17267TIP3   OH273215   3.162   1.371   6.020 -0.0313  0.1691 -0.3965
17267TIP3    H173216   3.239   1.345   6.072 -0.0818  1.6195  0.4586
17267TIP3    H273217   3.167   1.316   5.942  1.6458 -0.0801 -0.1633
17268TIP3   OH273218   0.726   1.632  15.630  0.3405 -0.1323  0.6254
17268TIP3    H173219   0.643   1.585  15.618  0.2529  0.2286 -0.1988
17268TIP3    H273220   0.791   1.579  15.583  0.6392 -0.5552  1.4880
17269TIP3   OH273221   5.377   1.402  15.712 -0.3987  0.1098  0.9707
17269TIP3    H173222   5.353   1.309  15.709 -1.0785  0.2689  1.2658
17269TIP3    H273223   5.467   1.402  15.745 -0.2887 -0.4582  0.6888
17270TIP3   OH273224   1.257   0.364   1.701  0.1816  0.2362 -0.0093
17270TIP3    H173225   1.210   0.352   1.619  0.2778  2.1630 -0.4088
17270TIP3    H273226   1.191   0.351   1.769 -0.0830 -0.5755 -0.4036
17271TIP3   OH273227   2.437   4.074  12.423  0.2586 -0.2272  0.1412
17271TIP3    H173228   2.487   3.995  12.404  1.0120 -0.1604  1.6522
17271TIP3    H273229   2.409   4.107  12.338  0.9253 -1.4823 -0.5831
17272TIP3   OH273230   6.711   0.768  15.558 -0.6361  0.1568 -0.6210
17272TIP3    H173231   6.635   0.748  15.612 -0.2027  0.4584  0.1282
17272TIP3    H273232   6.740   0.854  15.588 -0.6311  0.5264 -1.6370
17273TIP3   OH273233   5.718   2.128   3.998  0.1384 -0.2579 -0.8047
17273TIP3    H173234   5.809   2.138   3.970  0.2504 -1.9885 -1.1945
17273TIP3    H273235   5.722   2.067   4.072 -0.4676  1.8131  1.0463
17274TIP3   OH273236   6.307   6.575   3.387  0.1269 -0.5454  0.4801
17274TIP3    H173237   6.341   6.638   3.323 -2.2452  0.6889  0.3108
17274TIP3    H273238   6.234   6.621   3.428 -1.5965 -3.1257  0.5099
17275TIP3   OH273239   6.712   5.017  10.808 -0.2034 -0.2924 -0.2425
17275TIP3    H173240   6.724   5.100  10.854  0.2141 -0.9353  0.8437
17275TIP3    H273241   6.777   5.020  10.738 -0.4708  0.4651 -0.4730
17276TIP3   OH273242   6.597   0.514  11.874 -0.0392  0.3415 -0.2730
17276TIP3    H173243   6.558   0.449  11.933 -1.3065  0.9581 -0.4013
17276TIP3    H273244   6.691   0.494  11.875 -0.3894 -1.4546 -0.2636
17277TIP3   OH273245   3.927   2.842  16.217 -0.1659  0.5316  0.1538
17277TIP3    H173246   3.895   2.922  16.258  0.9112  0.5643  0.9647
17277TIP3    H273247   4.019   2.860  16.196  0.4973 -0.9226  1.5721
17278TIP3   OH273248   1.130   4.946  11.653 -0.0744 -0.1829 -0.3066
17278TIP3    H173249   1.166   4.931  11.566 -0.0784  1.5644 -0.6498
17278TIP3    H273250   1.045   4.988  11.637  0.4889  1.3705  0.4916
17279TIP3   OH273251   6.303   1.423   4.327  0.3710 -0.3317  0.3017
17279TIP3    H173252   6.226   1.473   4.353  0.6998  0.2659  0.1474
17279TIP3    H273253   6.285   1.394   4.238  1.1290  1.4784 -0.4743
17280TIP3   OH273254   1.380   6.703  15.659 -0.0408  0.0415  0.2052
17280TIP3    H173255   1.356   6.634  15.597  0.0117  0.1340  0.0829
17280TIP3    H273256   1.413   6.774  15.605  1.9729 -0.6501  0.4347
17281TIP3   OH273257   1.092   3.208  15.279  0.1351 -0.0426  0.1446
17281TIP3    H173258   1.037   3.237  15.352  0.7828  1.2782  0.1311
17281TIP3    H273259   1.175   3.254  15.291  0.7054 -0.8219 -0.6967
17282TIP3   OH273260   1.554   0.575  12.375  1.0865 -0.8632  0.4568
17282TIP3    H173261   1.621   0.543  12.435  0.8163 -1.2030  0.5830
17282TIP3    H273262   1.487   0.506  12.374  0.1589 -0.0229  1.2658
17283TIP3   OH273263   2.497   5.658  12.012 -0.3934 -0.2415  0.2803
17283TIP3    H173264   2.524   5.592  11.949  1.4609  1.2492 -0.5871
17283TIP3    H273265   2.493   5.612  12.095 -0.8481 -1.7957 -0.5688
17284TIP3   OH273266   3.659   4.707   0.369 -0.3742 -0.2764 -0.1693
17284TIP3    H173267   3.603   4.636   0.403 -1.6014  0.3764 -0.7547
17284TIP3    H273268   3.695   4.748   0.447 -1.3679 -0.2097  0.2777
17285TIP3   OH273269   3.831   5.423  14.209  0.6253 -0.6828 -0.3240
17285TIP3    H173270   3.748   5.469  14.196  0.8484 -0.8559 -2.7175
17285TIP3    H273271   3.841   5.418  14.304 -1.6617  0.1186  0.0132
17286TIP3   OH273272   6.557   4.632   1.513  0.3224 -0.0152 -0.2964
17286TIP3    H173273   6.499   4.598   1.581 -0.6423  2.4464  0.2024
17286TIP3    H273274   6.638   4.653   1.559  0.3868 -0.2123 -0.3168
17287TIP3   OH273275   3.191   3.723  16.541  0.0063  0.1231 -0.0922
17287TIP3    H173276   3.246   3.800  16.556 -0.3047  0.1278  1.0776
17287TIP3    H273277   3.132   3.721  16.616 -0.2991 -0.9934 -0.3511
17288TIP3   OH273278   1.117   0.536  11.572 -0.2786  0.6368  0.3450
17288TIP3    H173279   1.121   0.630  11.553  0.2238 -0.1400 -4.4040
17288TIP3    H273280   1.203   0.502  11.545 -1.1875 -1.4868 -0.0856
17289TIP3   OH273281   5.258   6.058  12.234 -0.5180  0.0361  0.4344
17289TIP3    H173282   5.216   6.082  12.316  2.8400  3.1215  1.5222
17289TIP3    H273283   5.229   6.126  12.172  0.6014  0.5369  0.4383
17290TIP3   OH273284   4.116   4.507   3.048  0.5005 -0.1097 -0.4290
17290TIP3    H173285   4.050   4.483   3.114 -1.4233 -0.7177 -2.4424
17290TIP3    H273286   4.074   4.486   2.965  3.1603 -0.1671 -1.8438
17291TIP3   OH273287   6.486   6.182  12.731 -0.4106 -0.4856 -0.3303
17291TIP3    H173288   6.434   6.134  12.795 -0.1749 -0.7816 -0.3567
17291TIP3    H273289   6.426   6.199  12.659 -1.0954  1.1229  0.5584
17292TIP3   OH273290   5.295   5.644   0.426  0.2484  0.3654  0.4506
17292TIP3    H173291   5.243   5.685   0.495 -1.6547 -0.9184 -0.1277
17292TIP3    H273292   5.244   5.656   0.346  1.5900  0.3638 -0.4468
17293TIP3   OH273293   3.971   0.052   2.286 -0.2851  0.1550  0.1733
17293TIP3    H173294   3.948   0.084   2.198 -0.8086  0.4104  0.4029
17293TIP3    H273295   3.907   0.092   2.344 -2.0197 -2.6033  0.2983
17294TIP3   OH273296   5.329   2.280   5.872  0.0442 -0.3177  0.5289
17294TIP3    H173297   5.301   2.354   5.926 -1.6837  0.6891 -1.5919
17294TIP3    H273298   5.278   2.206   5.903  1.2305 -0.5161  2.1610
17295TIP3   OH273299   3.594   6.250  13.569 -0.5471  0.2969  0.1764
17295TIP3    H173300   3.548   6.260  13.486 -0.9499 -1.4387  0.1587
17295TIP3    H273301   3.571   6.328  13.618 -0.9981  0.9425 -1.0155
17296TIP3   OH273302   5.631   1.942  11.674  0.3352  0.1863  0.5147
17296TIP3    H173303   5.613   1.852  11.701 -0.9874  0.4258  0.5169
17296TIP3    H273304   5.693   1.934  11.602 -1.4556 -0.9178 -0.9991
17297TIP3   OH273305   2.365   4.400   1.053 -0.2331  0.3931 -0.4999
17297TIP3    H173306   2.365   4.310   1.088 -0.9991  0.8252  0.6839
17297TIP3    H273307   2.304   4.447   1.110  2.8256  2.5684  1.2345
17298TIP3   OH273308   5.082   1.383   6.177  0.4048 -0.9519  0.6121
17298TIP3    H173309   5.152   1.380   6.243  0.9721 -1.3567 -0.0027
17298TIP3    H273310   5.035   1.300   6.188  1.7996 -2.0000 -0.8733
17299TIP3   OH273311   2.317   1.760   5.749  0.4632  0.0531 -0.5307
17299TIP3    H173312   2.388   1.697   5.738 -0.7885 -1.2148 -1.7200
17299TIP3    H273313   2.237   1.708   5.740 -0.6384  1.4473  0.7020
17300TIP3   OH273314   5.228   0.998   0.822  0.1276 -0.1548 -0.6942
17300TIP3    H173315   5.195   0.939   0.889 -1.2137  1.0049 -0.2564
17300TIP3    H273316   5.198   1.085   0.850  3.7984  1.1094 -0.1859
17301TIP3   OH273317   4.267   4.341  12.723 -0.0417 -0.0815  0.2243
17301TIP3    H173318   4.293   4.254  12.751  0.4792  0.8568  2.8954
17301TIP3    H273319   4.176   4.350  12.753 -0.6133 -0.2000 -1.3680
17302TIP3   OH273320   5.573   2.293  13.857 -0.7278  0.1266  0.1748
17302TIP3    H173321   5.605   2.246  13.780 -0.8156 -0.5525  0.5391
17302TIP3    H273322   5.480   2.309  13.839 -0.7364  0.0152  0.1206
17303TIP3   OH273323   4.847   3.586  15.710 -0.0343  0.4054 -0.3284
17303TIP3    H173324   4.795   3.610  15.633  0.9169  0.2133 -1.0434
17303TIP3    H273325   4.873   3.495  15.693 -1.9715 -0.5648  1.4283
17304TIP3   OH273326   1.000   2.810  16.186  0.2312 -0.5810  0.4769
17304TIP3    H173327   1.016   2.724  16.147  2.6803  0.2701 -0.6216
17304TIP3    H273328   0.909   2.806  16.217  0.8600 -4.3028  2.5069
17305TIP3   OH273329   1.111   4.358   2.149 -0.1099  0.1729  0.0366
17305TIP3    H173330   1.018   4.347   2.166 -0.4037 -0.2569 -1.6986
17305TIP3    H273331   1.136   4.279   2.101  1.8044 -1.0728  2.7783
17306TIP3   OH273332   3.224   0.305   3.829  0.1633  0.2369  0.0754
17306TIP3    H173333   3.300   0.359   3.850  0.2070  0.3955 -0.4645
17306TIP3    H273334   3.232   0.228   3.885  0.0821  0.7998  0.8796
17307TIP3   OH273335   2.362   6.768   2.732 -0.3190 -0.2819 -0.8959
17307TIP3    H173336   2.337   6.729   2.648 -1.6522  0.0957 -0.7022
17307TIP3    H273337   2.297   6.837   2.746  1.6472  1.6841 -0.9737
17308TIP3   OH273338   5.348   6.684  12.474  0.3537  0.0496  0.5348
17308TIP3    H173339   5.268   6.644  12.439  0.0683  0.7583  0.3359
17308TIP3    H273340   5.412   6.614  12.476 -0.0977 -0.3821  0.0937
17309TIP3   OH273341   0.647   5.137  16.214  0.8138  0.0453 -0.5533
17309TIP3    H173342   0.741   5.158  16.215  1.0880 -1.1545 -0.0470
17309TIP3    H273343   0.624   5.138  16.121  1.1027  1.2237 -0.6357
17310TIP3   OH273344   4.533   3.419  14.443 -0.2434  0.8674  0.1473
17310TIP3    H173345   4.563   3.511  14.443  0.3828  0.6973  1.7174
17310TIP3    H273346   4.510   3.402  14.534  1.1693 -1.0050  0.2078
17311TIP3   OH273347   1.166   5.765  11.112  0.4969 -0.1005 -0.4286
17311TIP3    H173348   1.231   5.787  11.046  0.3192 -2.6378 -1.5846
17311TIP3    H273349   1.083   5.762  11.065  0.4534 -2.5703 -0.3609
17312TIP3   OH273350   2.722   6.272  13.471 -0.0645  0.0485  0.2977
17312TIP3    H173351   2.792   6.241  13.414  0.7330  0.0644  1.2577
17312TIP3    H273352   2.664   6.196  13.481 -0.1550  0.0106 -0.4221
17313TIP3   OH273353   1.710   4.595  13.783  0.7914 -0.0732 -0.3864
17313TIP3    H173354   1.625   4.637  13.795  1.5792  0.9813  2.0362
17313TIP3    H273355   1.767   4.666  13.751  1.2653 -0.2337  0.0939
17314TIP3   OH273356   3.591   2.882  15.617 -0.2682  0.1189  0.5378
17314TIP3    H173357   3.663   2.904  15.676  0.1267  1.4476 -0.4013
17314TIP3    H273358   3.518   2.862  15.676  0.0361  1.6818  1.4975
17315TIP3   OH273359   5.638   2.195   0.142 -0.3755  0.6998 -0.1425
17315TIP3    H173360   5.613   2.268   0.086 -0.5363  0.8069  0.0700
17315TIP3    H273361   5.699   2.233   0.205 -0.2099  0.5830 -0.2322
17316TIP3   OH273362   3.181   3.904   0.495  0.7072 -0.2660 -0.1246
17316TIP3    H173363   3.157   3.992   0.524  3.3167  1.0069 -1.5195
17316TIP3    H273364   3.107   3.875   0.441  0.0759  1.3269 -0.1467
17317TIP3   OH273365   3.782   2.726  13.599  0.3684 -0.3218 -0.6057
17317TIP3    H173366   3.792   2.715  13.693  0.5121  1.8887 -0.3010
17317TIP3    H273367   3.688   2.737  13.585  0.4663  0.9102 -0.4619
17318TIP3   OH273368   4.439   1.896  13.859 -0.3909  0.2307 -0.3827
17318TIP3    H173369   4.467   1.931  13.944  0.4186  1.6792 -1.2066
17318TIP3    H273370   4.503   1.828  13.839 -0.5468 -0.0755  0.1111
17319TIP3   OH273371   2.577   3.691  11.019  0.0804  0.2948  0.1270
17319TIP3    H173372   2.539   3.701  10.932  0.0038  0.3103  0.1622
17319TIP3    H273373   2.665   3.728  11.012  0.9317 -1.7214 -0.5448
17320TIP3   OH273374   2.743   1.369  16.352  0.0734  0.2391  0.7764
17320TIP3    H173375   2.810   1.438  16.356 -0.8254  1.3882 -1.8815
17320TIP3    H273376   2.788   1.295  16.311 -0.1035  0.8102 -0.4755
17321TIP3   OH273377   3.552   6.663   0.181 -0.6415  0.4650  0.0710
17321TIP3    H173378   3.566   6.740   0.126  0.9564 -0.5175 -0.9617
17321TIP3    H273379   3.618   6.670   0.250 -0.8868  0.3127  0.3261
17322TIP3   OH273380   1.308   1.555  11.034  0.0664 -0.8366 -0.2155
17322TIP3    H173381   1.379   1.526  11.092 -0.8831 -1.1117  0.8485
17322TIP3    H273382   1.325   1.511  10.951  0.3783 -1.9980  0.4444
17323TIP3   OH273383   2.154   2.732   5.098  0.2303 -0.0549  0.1871
17323TIP3    H173384   2.131   2.808   5.151 -0.3161  1.0526 -1.5613
17323TIP3    H273385   2.235   2.700   5.136  0.3978  1.3164  1.0510
17324TIP3   OH273386   2.141   0.432   3.011  0.5341 -0.2992  0.5314
17324TIP3    H173387   2.087   0.507   3.035 -0.4811 -0.7548 -0.2658
17324TIP3    H273388   2.116   0.364   3.074  1.8609  0.1697  1.6147
17325TIP3   OH273389   5.216   0.940   1.935 -0.2309 -0.2390 -0.3058
17325TIP3    H173390   5.199   0.850   1.907 -0.1114 -0.6667  0.9461
17325TIP3    H273391   5.215   0.991   1.854 -0.4060 -1.3483 -1.0183
17326TIP3   OH273392   1.095   1.948  13.059  0.1743  0.3470  0.1102
17326TIP3    H173393   1.058   1.862  13.075  1.5995 -0.3973 -0.4085
17326TIP3    H273394   1.182   1.931  13.023  0.2009  1.9921 -0.7230
17327TIP3   OH273395   2.857   0.659  14.757  0.0382 -0.2924  0.3499
17327TIP3    H173396   2.766   0.631  14.763  0.3684 -1.4690  0.1885
17327TIP3    H273397   2.870   0.682  14.665  0.0751 -0.7631  0.2350
17328TIP3   OH273398   3.050   5.549  16.383  0.3339  0.2385 -0.0985
17328TIP3    H173399   2.957   5.530  16.393  0.8024 -2.3645  0.1784
17328TIP3    H273400   3.068   5.618  16.446 -1.2513  0.1961  0.4523
17329TIP3   OH273401   2.124   2.867  15.469 -0.1078 -0.4291  0.4770
17329TIP3    H173402   2.063   2.836  15.537  1.9942 -2.4318  1.5905
17329TIP3    H273403   2.079   2.848  15.387 -0.3991 -3.5241  1.2103
17330TIP3   OH273404   0.825   3.077  13.090 -0.1656  0.7738 -0.3726
17330TIP3    H173405   0.892   3.103  13.154 -0.2475 -1.7787  0.8672
17330TIP3    H273406   0.874   3.059  13.010  0.3266  1.1885 -0.1682
17331TIP3   OH273407   0.239   5.550   0.023  0.5307 -0.7091 -0.1688
17331TIP3    H173408   0.273   5.478   0.076  0.3073 -0.6425  0.0657
17331TIP3    H273409   0.316   5.605   0.005  0.4047 -0.0323  1.1795
17332TIP3   OH273410   5.471   6.099  14.530 -0.4847 -0.2721  0.1686
17332TIP3    H173411   5.489   6.192  14.546 -0.6844 -0.5639  2.4485
17332TIP3    H273412   5.393   6.099  14.475  0.1179  0.9086 -0.7324
17333TIP3   OH273413   2.454   4.952  12.303  0.1481 -0.0609  0.0244
17333TIP3    H173414   2.527   4.933  12.245 -0.3014  0.7987 -0.8378
17333TIP3    H273415   2.448   4.874  12.359  0.9558 -0.6489 -0.6764
17334TIP3   OH273416   2.075   5.840  16.928 -0.8482  0.3405 -0.1650
17334TIP3    H173417   2.011   5.812  16.993 -0.8363 -0.0562 -0.3173
17334TIP3    H273418   2.087   5.763  16.872  2.4134 -0.9269  1.9635
17335TIP3   OH273419   5.848   5.717   4.727  0.0859  0.4033 -0.1719
17335TIP3    H173420   5.778   5.690   4.668 -0.2477  0.2352  0.3007
17335TIP3    H273421   5.928   5.705   4.675 -0.2314  0.6297 -0.7215
17336TIP3   OH273422   2.735   3.836   0.383 -0.0652  0.5451 -0.0076
17336TIP3    H173423   2.725   3.886   0.464  0.5271  1.0875 -0.2603
17336TIP3    H273424   2.674   3.876   0.322  0.7638  1.3141 -0.3629
17337TIP3   OH273425   1.983   4.558  13.198  0.3482  0.4872 -0.3693
17337TIP3    H173426   1.933   4.536  13.120 -1.9716  1.4362  0.7488
17337TIP3    H273427   2.061   4.502  13.194 -2.0248 -3.0492 -0.9040
17338TIP3   OH273428   2.892   1.030  14.000  0.4881  0.4623  0.3460
17338TIP3    H173429   2.908   0.938  14.021 -1.5967  0.2184  1.0630
17338TIP3    H273430   2.807   1.050  14.039  0.4576  2.4480 -0.5841
17339TIP3   OH273431   1.349   6.524   2.292 -0.5287 -0.3733 -0.1554
17339TIP3    H173432   1.257   6.542   2.313 -0.9761 -2.1291 -0.4029
17339TIP3    H273433   1.386   6.491   2.373 -0.3872 -0.6151 -0.3188
17340TIP3   OH273434   6.386   2.794   3.375 -0.1220 -0.1210  0.9647
17340TIP3    H173435   6.335   2.870   3.405 -2.1612 -1.4819  1.1606
17340TIP3    H273436   6.456   2.832   3.322 -1.1883  1.8951  0.8835
17341TIP3   OH273437   6.219   0.375  13.916  0.0077 -0.2273  0.6185
17341TIP3    H173438   6.205   0.287  13.952  2.1567 -1.4949 -1.3183
17341TIP3    H273439   6.311   0.376  13.891 -0.3917  1.9462 -1.0911
17342TIP3   OH273440   5.092   4.498   0.648  0.2633 -0.8670  0.1784
17342TIP3    H173441   5.099   4.439   0.573  0.3889 -0.9676  0.2694
17342TIP3    H273442   5.182   4.511   0.677  0.3259  0.0880 -0.3955
17343TIP3   OH273443   2.449   0.030   2.275 -0.1452  0.2809  0.4919
17343TIP3    H173444   2.367   0.076   2.292 -0.8121 -1.2158  1.4812
17343TIP3    H273445   2.474  -0.007   2.360  0.4086 -1.0786 -0.2326
17344TIP3   OH273446   3.509   2.397  11.232  0.7318 -0.4932 -0.2615
17344TIP3    H173447   3.421   2.395  11.270  0.5801 -1.7123 -0.6601
17344TIP3    H273448   3.535   2.489  11.239 -1.1965  0.2154 -1.5600
17345TIP3   OH273449   2.978   1.252   3.786  0.0233 -0.2266  0.3839
17345TIP3    H173450   2.971   1.269   3.692 -0.4069 -2.3228  0.0019
17345TIP3    H273451   3.055   1.301   3.813  0.3307  0.1749 -1.1195
17346TIP3   OH273452   2.662   0.571   2.865  0.0158  0.3634  0.2321
17346TIP3    H173453   2.582   0.519   2.872  0.5593 -0.4287  0.5863
17346TIP3    H273454   2.630   0.661   2.852 -0.9269 -0.0961 -0.8237
17347TIP3   OH273455   4.465   4.419  13.942 -0.1456 -0.1468 -0.3518
17347TIP3    H173456   4.521   4.475  13.995 -1.3879  1.2887 -0.4847
17347TIP3    H273457   4.523   4.384  13.874  0.5716  1.4045 -0.5759
17348TIP3   OH273458   3.375   6.777   5.532 -0.2882  0.2630  0.1515
17348TIP3    H173459   3.367   6.813   5.620  1.9799  0.4238  0.3751
17348TIP3    H273460   3.385   6.854   5.476  1.5333  0.1332  0.2311
17349TIP3   OH273461   1.005   2.560   6.421 -0.3197 -0.2264  0.2642
17349TIP3    H173462   0.944   2.596   6.487 -1.3685 -0.9297 -0.2958
17349TIP3    H273463   0.948   2.513   6.360  0.5248  1.1344 -1.6525
17350TIP3   OH273464   1.261   0.496   4.042  0.0667  0.5515  0.2834
17350TIP3    H173465   1.338   0.498   4.099  0.5948  1.1490 -0.4317
17350TIP3    H273466   1.274   0.420   3.986 -0.1155  0.3642  0.4911
17351TIP3   OH273467   0.257   6.735  14.934  0.1421  0.3012 -0.0524
17351TIP3    H173468   0.174   6.780  14.921 -0.2748 -0.7823 -1.4153
17351TIP3    H273469   0.235   6.658  14.986  0.3993  0.3054  0.0648
17352TIP3   OH273470   5.439   3.531  13.924  0.3331  0.5533 -0.1649
17352TIP3    H173471   5.344   3.528  13.912  0.2390  1.8195  0.1586
17352TIP3    H273472   5.475   3.493  13.843 -0.4219  1.4150 -0.9227
17353TIP3   OH273473   2.243   3.207   1.424 -0.2000 -0.3832 -0.0369
17353TIP3    H173474   2.309   3.246   1.367  1.8709  0.0416  2.4455
17353TIP3    H273475   2.208   3.281   1.474 -1.2510 -0.8627 -0.0448
17354TIP3   OH273476   6.059   3.809   3.635 -0.0474 -0.0090 -0.3499
17354TIP3    H173477   5.965   3.792   3.627  0.1177 -1.0309 -0.1431
17354TIP3    H273478   6.065   3.873   3.706 -0.4874 -1.0540  0.6536
17355TIP3   OH273479   1.585   5.615   6.112 -0.5782 -0.6837  0.0394
17355TIP3    H173480   1.506   5.602   6.166 -1.8012  0.2850 -1.4418
17355TIP3    H273481   1.656   5.577   6.165 -1.9404 -1.1563  1.6369
17356TIP3   OH273482   4.193   3.334   9.622  0.1363 -0.2132  0.4209
17356TIP3    H173483   4.188   3.301   9.712  1.9202 -2.7435 -0.3076
17356TIP3    H273484   4.249   3.411   9.628 -0.0488 -0.1426  1.5181
17357TIP3   OH273485   1.141   0.217   2.794  0.1107  0.0229  0.0283
17357TIP3    H173486   1.161   0.304   2.829 -1.5984 -0.4789  2.4675
17357TIP3    H273487   1.063   0.231   2.740  0.7099  0.2098 -0.8150
17358TIP3   OH273488   2.264   3.927  15.362  0.3030  0.4746  0.8448
17358TIP3    H173489   2.234   3.849  15.408 -0.6003  0.5213  0.3565
17358TIP3    H273490   2.351   3.905  15.330  0.5931  0.1365  1.8210
17359TIP3   OH273491   3.842   3.257  16.744 -0.3350 -0.2075  0.2185
17359TIP3    H173492   3.857   3.182  16.801  0.5219  0.4789  0.9415
17359TIP3    H273493   3.757   3.291  16.771  0.0339  0.0752  1.0763
17360TIP3   OH273494   4.024   4.673  15.230 -0.2819  0.5665  0.0345
17360TIP3    H173495   3.984   4.759  15.243  0.8767  1.0795  0.3034
17360TIP3    H273496   4.092   4.667  15.297 -1.6858 -1.4425  1.4131
17361TIP3   OH273497   5.551   2.061   5.111  0.4622  0.0931  0.0139
17361TIP3    H173498   5.646   2.063   5.110  0.4908 -0.1804  1.0155
17361TIP3    H273499   5.528   2.031   5.200 -0.5233 -1.4066 -0.6981
17362TIP3   OH273500   0.925   2.501  12.058 -0.3727  0.5346  0.3689
17362TIP3    H173501   0.994   2.565  12.073 -0.7503  0.8542  0.7761
17362TIP3    H273502   0.966   2.417  12.078 -0.1149  0.7234  0.6454
17363TIP3   OH273503   4.897   1.727   0.859  1.0385 -0.4855 -0.5221
17363TIP3    H173504   4.985   1.762   0.874  0.7565 -0.2820  0.7488
17363TIP3    H273505   4.876   1.679   0.939 -0.0057 -0.5490 -0.8144
17364TIP3   OH273506   1.136   4.012  12.099  0.5640  0.3044  0.4031
17364TIP3    H173507   1.116   4.079  12.164 -2.4506 -1.2679  1.2713
17364TIP3    H273508   1.179   3.943  12.150 -0.6013 -0.3642  0.5083
17365TIP3   OH273509   3.947   0.038  12.650 -0.5922  0.1270  0.6566
17365TIP3    H173510   3.941   0.020  12.557  0.3584  1.0002  0.4150
17365TIP3    H273511   3.888   0.112  12.665  1.1274  1.6673  0.2419
17366TIP3   OH273512   1.634   4.857   0.125 -0.5344  0.0344  0.1063
17366TIP3    H173513   1.684   4.925   0.080 -0.1279 -1.0743 -1.1743
17366TIP3    H273514   1.549   4.857   0.080 -1.2451  0.9559  1.3609
17367TIP3   OH273515   0.704   1.985   0.840  0.2312 -0.1481  0.0129
17367TIP3    H173516   0.629   1.998   0.783  0.0966 -0.5026  0.1080
17367TIP3    H273517   0.688   2.041   0.915  0.5486  0.5433 -0.4263
17368TIP3   OH273518   1.172   6.484  14.380  0.4782  0.0848 -0.3392
17368TIP3    H173519   1.216   6.517  14.458 -0.1306  1.1791 -0.4365
17368TIP3    H273520   1.092   6.536  14.374  0.7392  0.3451 -1.9664
17369TIP3   OH273521   0.954   4.424  12.794 -0.3231  0.1164 -0.0789
17369TIP3    H173522   0.974   4.490  12.727  0.0395 -0.4350 -0.5230
17369TIP3    H273523   1.038   4.406  12.836 -0.1379 -1.1366 -0.9591
17370TIP3   OH273524   4.822   4.884   1.607  0.4604  0.3711 -0.4081
17370TIP3    H173525   4.831   4.849   1.696  0.9025  1.3216 -0.0534
17370TIP3    H273526   4.833   4.809   1.550  1.2131 -0.0943  0.3201
17371TIP3   OH273527   3.326   0.243  14.509  0.1008 -0.3007 -0.0076
17371TIP3    H173528   3.301   0.280  14.424  1.2884 -1.4724 -0.9327
17371TIP3    H273529   3.382   0.310  14.549  0.2512 -0.0870 -0.5603
17372TIP3   OH273530   6.122   6.386  16.913 -0.3589 -0.0964  0.6970
17372TIP3    H173531   6.085   6.317  16.858  0.9911  0.1106 -0.5137
17372TIP3    H273532   6.209   6.354  16.936 -0.4900  0.3089  1.8532
17373TIP3   OH273533   1.148   4.892  17.025 -0.0701  0.0172  0.0799
17373TIP3    H173534   1.129   4.911  17.117 -0.3779  0.0804  0.0036
17373TIP3    H273535   1.194   4.970  16.994 -2.9414  1.5349 -0.7202
17374TIP3   OH273536   1.538   6.343  10.731  0.1649 -0.0280  0.1643
17374TIP3    H173537   1.563   6.376  10.817 -0.2314  1.7969 -0.3740
17374TIP3    H273538   1.558   6.415  10.671 -1.9575 -0.2641 -0.9149
17375TIP3   OH273539   4.720   3.374  13.404 -0.5078  0.3213 -0.3691
17375TIP3    H173540   4.656   3.386  13.474 -0.7469 -2.4461 -0.0179
17375TIP3    H273541   4.804   3.366  13.449 -0.4215  0.1946 -0.5515
17376TIP3   OH273542   3.822   1.553   2.604  0.4678 -0.0190 -0.4861
17376TIP3    H173543   3.814   1.604   2.684 -0.4262 -0.0260 -0.5667
17376TIP3    H273544   3.904   1.583   2.564  3.1211 -2.7746  2.3692
17377TIP3   OH273545   4.710   0.800   0.933  0.3081 -0.3355 -0.1182
17377TIP3    H173546   4.672   0.830   1.016 -2.1973  0.1773 -1.3374
17377TIP3    H273547   4.804   0.792   0.951  0.1186  1.4971  2.2473
17378TIP3   OH273548   1.900   1.753   3.340  0.0089 -0.0084 -0.0900
17378TIP3    H173549   1.812   1.779   3.367 -0.3387 -1.0135 -0.2180
17378TIP3    H273550   1.955   1.769   3.417 -0.8169 -2.0513  1.0073
17379TIP3   OH273551   3.829   3.736   4.316 -0.0678 -0.1083  0.3407
17379TIP3    H173552   3.873   3.817   4.291  2.2914 -0.4840  2.8346
17379TIP3    H273553   3.838   3.679   4.239  0.7027  1.0259 -0.4397
17380TIP3   OH273554   2.112   4.217   2.343 -0.5125 -0.9751 -0.4060
17380TIP3    H173555   2.021   4.223   2.312 -1.0982 -2.1623  0.9309
17380TIP3    H273556   2.124   4.294   2.398 -1.0517 -1.2738  0.1544
17381TIP3   OH273557   2.842   3.520  10.829  0.2674 -0.0729 -0.5449
17381TIP3    H173558   2.905   3.590  10.811 -0.4856  0.3998 -1.4668
17381TIP3    H273559   2.762   3.566  10.855  0.2717 -0.6621  0.5674
17382TIP3   OH273560   6.483   4.821   0.207 -0.2655 -0.0836  1.2618
17382TIP3    H173561   6.477   4.914   0.189 -0.2010 -0.0121  1.5996
17382TIP3    H273562   6.395   4.787   0.189 -0.6648  0.2759  2.3950
17383TIP3   OH273563   3.822   4.933  15.905  0.0784 -0.2087 -0.2613
17383TIP3    H173564   3.752   4.937  15.970  0.4218  1.1458  0.0518
17383TIP3    H273565   3.857   4.844  15.912 -0.5954 -0.4102  0.6446
17384TIP3   OH273566   5.686   1.892  16.897  0.0370  0.1483  0.2613
17384TIP3    H173567   5.647   1.937  16.972  1.4646 -0.2252  1.2514
17384TIP3    H273568   5.751   1.834  16.934  0.7341 -0.1052 -1.2712
17385TIP3   OH273569   6.750   4.262  15.792  0.0861 -0.1597 -0.0350
17385TIP3    H173570   6.736   4.199  15.863  0.4753  0.2364  0.3943
17385TIP3    H273571   6.755   4.347  15.835 -1.9972  0.3884 -0.7487
17386TIP3   OH273572   0.787   2.768   4.181 -0.2254  0.0767  0.0953
17386TIP3    H173573   0.797   2.839   4.117 -1.1053  0.7485  0.6779
17386TIP3    H273574   0.856   2.705   4.158 -1.7741 -0.7175 -2.8158
17387TIP3   OH273575   3.145   3.234  11.716 -0.1075 -0.4346  0.0886
17387TIP3    H173576   3.144   3.213  11.810 -0.5460 -1.0803 -0.0533
17387TIP3    H273577   3.091   3.313  11.709 -0.5154 -0.6867  0.3195
17388TIP3   OH273578   5.079   0.828  10.643  0.1713  0.3618 -0.6241
17388TIP3    H173579   5.102   0.912  10.684  0.4644 -0.1056  0.1939
17388TIP3    H273580   4.992   0.808  10.676  0.2456  0.1740 -0.5411
17389TIP3   OH273581   0.112   0.263   0.690  0.0187  0.1730  0.0266
17389TIP3    H173582   0.044   0.292   0.628 -1.2250  0.1020  1.2897
17389TIP3    H273583   0.112   0.168   0.682 -0.7390  0.1020  0.6920
17390TIP3   OH273584   0.188   6.103   0.495  0.1845 -0.0923  0.6039
17390TIP3    H173585   0.232   6.117   0.411 -0.5363  0.5211  0.3179
17390TIP3    H273586   0.150   6.189   0.517 -0.5043 -0.5016  1.0511
17391TIP3   OH273587   2.416   3.961   4.498 -0.1560 -0.2781  0.9961
17391TIP3    H173588   2.422   3.983   4.405  0.1344 -1.6883  0.6717
17391TIP3    H273589   2.330   3.919   4.508 -0.0227 -0.4872  1.2936
17392TIP3   OH273590   5.509   5.624  10.338  0.3471  0.4644 -0.5676
17392TIP3    H173591   5.545   5.623  10.250  0.0246  2.2907 -0.7648
17392TIP3    H273592   5.495   5.717  10.357 -0.7390  0.0353  0.9294
17393TIP3   OH273593   1.182   0.163  13.865 -0.0598  0.2015  0.0538
17393TIP3    H173594   1.139   0.090  13.910 -0.8485  1.4956  1.4910
17393TIP3    H273595   1.235   0.204  13.933  0.8519  0.6227 -0.8947
17394TIP3   OH273596   3.680   6.446   2.836  0.1088  0.4953 -0.9796
17394TIP3    H173597   3.761   6.496   2.831  1.3132 -1.2670 -0.1951
17394TIP3    H273598   3.686   6.383   2.764 -0.2984  0.0091 -0.5998
17395TIP3   OH273599   5.565   0.811  13.678  0.3096 -0.2954  0.5770
17395TIP3    H173600   5.586   0.833  13.768  0.9481  0.5092  0.2484
17395TIP3    H273601   5.481   0.765  13.682  0.2804 -0.1583  1.5582
17396TIP3   OH273602   5.218   1.106  11.012 -0.0333 -0.1901  0.2376
17396TIP3    H173603   5.199   1.180  10.954  1.4037  0.6236  0.7627
17396TIP3    H273604   5.263   1.145  11.087  0.4513 -1.5460  0.6815
17397TIP3   OH273605   3.110   2.532  16.724 -0.3518  0.0020  0.6156
17397TIP3    H173606   3.169   2.562  16.655 -0.5770  0.2239  0.5168
17397TIP3    H273607   3.025   2.570  16.701 -0.9491 -1.7020 -0.2076
17398TIP3   OH273608   1.993   1.805   0.622 -0.1840 -0.7148  0.2437
17398TIP3    H173609   2.084   1.780   0.638  0.0984 -0.4529 -0.8464
17398TIP3    H273610   1.945   1.722   0.620  0.2687 -0.9665 -0.5179
17399TIP3   OH273611   1.702   1.945  12.909 -0.4721  0.4348 -0.0509
17399TIP3    H173612   1.660   1.954  12.995 -1.1366 -0.8880 -0.2070
17399TIP3    H273613   1.716   1.850  12.899 -1.0321  0.4989 -1.6848
17400TIP3   OH273614   0.063   3.220   0.588 -0.0283 -0.6501  0.0563
17400TIP3    H173615   0.130   3.190   0.527 -2.4620  0.4560 -3.5437
17400TIP3    H273616  -0.013   3.165   0.569 -2.0410  2.1843 -0.8177
17401TIP3   OH273617   2.277   4.616   4.636 -0.4883  0.5454 -0.2438
17401TIP3    H173618   2.192   4.578   4.612  0.0245 -0.5082 -0.4609
17401TIP3    H273619   2.259   4.709   4.648 -2.1603  0.0179  2.0130
17402TIP3   OH273620   2.698   3.655   0.804  0.3458  0.4965  0.3325
17402TIP3    H173621   2.763   3.647   0.874 -0.1682 -0.6939  0.7073
17402TIP3    H273622   2.618   3.680   0.850  0.0273 -0.2136  0.1833
17403TIP3   OH273623   0.421   2.279   5.458  0.0135 -0.5088 -0.4135
17403TIP3    H173624   0.398   2.202   5.406  4.6715 -2.4989  0.0351
17403TIP3    H273625   0.434   2.348   5.393  0.1744 -1.3728 -1.3285
17404TIP3   OH273626   0.873   2.685   3.831 -0.4326 -0.0141  0.4734
17404TIP3    H173627   0.859   2.591   3.815  0.9361 -0.2236  0.4350
17404TIP3    H273628   0.793   2.713   3.875 -1.7394 -0.7533 -1.2762
17405TIP3   OH273629   4.850   1.999  13.640  0.2592 -0.4031 -0.0323
17405TIP3    H173630   4.854   1.959  13.727  1.1801 -0.9742 -0.3231
17405TIP3    H273631   4.921   2.064  13.640  0.3382 -0.4852 -0.3961
17406TIP3   OH273632   5.857   0.325   3.466 -0.5606  0.3020  0.6228
17406TIP3    H173633   5.880   0.321   3.559  0.3009 -2.2035  0.3788
17406TIP3    H273634   5.767   0.293   3.463 -2.1183  4.0867  0.8885
17407TIP3   OH273635   4.644   0.131  14.799 -0.2146 -0.0032 -0.0282
17407TIP3    H173636   4.571   0.105  14.856  0.7781 -0.4373  1.0988
17407TIP3    H273637   4.632   0.225  14.786 -0.2789  0.1882  1.2274
17408TIP3   OH273638   0.158   5.384   1.250 -0.5344  0.0722  0.4978
17408TIP3    H173639   0.144   5.334   1.331 -0.8561  0.3588  0.6234
17408TIP3    H273640   0.172   5.474   1.280 -2.6108  0.5672  0.1624
17409TIP3   OH273641   6.092   5.355  16.574  0.6562  0.8302 -0.2543
17409TIP3    H173642   6.117   5.338  16.482  0.4876  2.0261 -0.5271
17409TIP3    H273643   5.997   5.351  16.574  0.5948  2.0290 -0.3860
17410TIP3   OH273644   6.562   3.504  16.614 -0.1925 -0.5107  0.0617
17410TIP3    H173645   6.533   3.595  16.615  0.0383 -0.4305  1.0215
17410TIP3    H273646   6.610   3.494  16.696  0.6123 -1.2351 -0.4750
17411TIP3   OH273647   3.347   1.080  16.046 -0.0682 -0.1894  0.7717
17411TIP3    H173648   3.370   1.094  15.955 -1.9875 -0.5437  0.1813
17411TIP3    H273649   3.251   1.088  16.048 -0.1524 -1.0958  2.5687
17412TIP3   OH273650   4.709   3.764  14.252 -0.2856  0.1148  0.1723
17412TIP3    H173651   4.732   3.828  14.319 -0.8957  1.2920 -0.6792
17412TIP3    H273652   4.791   3.748  14.205  0.2452 -1.0666  1.4419
17413TIP3   OH273653   3.994   5.573   0.067  0.1349 -0.0594 -0.1196
17413TIP3    H173654   3.971   5.522  -0.010 -0.3997  0.0252 -0.0195
17413TIP3    H273655   4.080   5.540   0.093 -0.1833 -0.8717 -0.0816
17414TIP3   OH273656   2.304   6.088   1.778 -0.3539 -0.0313  0.1706
17414TIP3    H173657   2.387   6.044   1.758 -0.4608  0.8150 -2.3925
17414TIP3    H273658   2.324   6.143   1.854  1.1411 -0.6492  0.2546
17415TIP3   OH273659   5.103   5.330   4.672  0.2594  0.2826  0.1354
17415TIP3    H173660   5.046   5.277   4.616 -2.2715  2.2552  0.6455
17415TIP3    H273661   5.144   5.392   4.613 -0.7588  0.9951  0.1531
17416TIP3   OH273662   5.259   1.810   4.709  0.6971  0.2516 -0.0874
17416TIP3    H173663   5.321   1.831   4.780  2.2227 -0.6595 -1.0857
17416TIP3    H273664   5.213   1.732   4.741 -0.2176  1.1350  0.8108
17417TIP3   OH273665   2.254   3.805   2.053  0.6500 -0.4617 -0.0901
17417TIP3    H173666   2.284   3.872   2.115  0.9907 -0.0727 -0.6710
17417TIP3    H273667   2.160   3.821   2.045  0.7734  0.1169 -0.4253
17418TIP3   OH273668   2.576   5.295   4.056 -0.0065 -0.4826 -0.2543
17418TIP3    H173669   2.560   5.208   4.021  0.5440 -0.8127  0.2920
17418TIP3    H273670   2.515   5.352   4.009  1.0979 -0.8003 -2.1737
17419TIP3   OH273671   4.297   4.865   3.675  0.2262  0.3728  0.1957
17419TIP3    H173672   4.329   4.785   3.716  2.1765  0.7968 -0.3670
17419TIP3    H273673   4.278   4.924   3.748  0.5539  0.0318  0.5613
17420TIP3   OH273674   1.298   1.203  14.954  0.0635 -0.4149 -0.1734
17420TIP3    H173675   1.243   1.253  14.894 -1.4329  0.0763  1.4912
17420TIP3    H273676   1.243   1.132  14.985  1.9771 -2.8723 -2.0407
17421TIP3   OH273677   0.160   6.244  13.683  0.0652 -0.0068 -0.3666
17421TIP3    H173678   0.083   6.229  13.628 -0.4930 -0.1348  0.4283
17421TIP3    H273679   0.131   6.220  13.771  0.6230  1.1400  0.1499
17422TIP3   OH273680   4.545   2.337   4.379  0.5230 -0.2415 -0.2136
17422TIP3    H173681   4.587   2.323   4.294  1.5018 -0.8017  0.3461
17422TIP3    H273682   4.583   2.418   4.411 -0.3069  0.3026 -0.5673
17423TIP3   OH273683   3.438   2.274  12.163 -0.2349 -0.5158 -0.0412
17423TIP3    H173684   3.521   2.225  12.164  0.5562  0.7597  2.0963
17423TIP3    H273685   3.429   2.303  12.072  1.9952 -0.2050 -0.2239
17424TIP3   OH273686   1.667   4.316  13.692 -0.0577  0.3782 -0.5705
17424TIP3    H173687   1.722   4.310  13.614  0.2439  0.3039 -0.3548
17424TIP3    H273688   1.676   4.407  13.721 -0.2629  0.4369 -0.6866
17425TIP3   OH273689   1.875   5.535  15.726  0.5819  0.2074  0.4606
17425TIP3    H173690   1.784   5.522  15.751  0.9377 -0.3160  1.5605
17425TIP3    H273691   1.873   5.607  15.663 -0.5567  0.3487  0.6358
17426TIP3   OH273692   1.786   4.190  13.923  0.5381 -0.0551  0.5101
17426TIP3    H173693   1.720   4.171  13.989 -0.1916 -0.4278 -0.3087
17426TIP3    H273694   1.737   4.222  13.848  1.4945  2.2450  0.7701
17427TIP3   OH273695   1.223   5.208   1.739 -0.3366 -0.7649 -0.0763
17427TIP3    H173696   1.148   5.151   1.756  0.8580 -1.8485  1.8878
17427TIP3    H273697   1.298   5.161   1.776  1.1960  0.7006 -1.1592
17428TIP3   OH273698   5.288   4.316   4.055  0.4220  0.2436 -0.7296
17428TIP3    H173699   5.211   4.286   4.007 -0.3805  2.1724 -0.7396
17428TIP3    H273700   5.258   4.322   4.146  0.7829  0.2842 -0.6133
17429TIP3   OH273701   4.477   1.385   1.127  0.5605 -0.2095 -0.2092
17429TIP3    H173702   4.504   1.475   1.114 -3.1785  0.8147 -2.2608
17429TIP3    H273703   4.480   1.346   1.039  0.1229 -1.4272  0.2956
17430TIP3   OH273704   2.076   6.322  12.893 -0.0050  0.6100  0.0570
17430TIP3    H173705   2.005   6.382  12.872  1.2973  1.9984 -0.4822
17430TIP3    H273706   2.059   6.245  12.838 -0.5062  1.3528 -0.8622
17431TIP3   OH273707   5.464   1.881   4.021 -0.0016 -0.5823  0.0203
17431TIP3    H173708   5.539   1.851   4.073  2.0101  3.1843 -0.3459
17431TIP3    H273709   5.416   1.941   4.080 -1.0757 -0.7324 -0.6718
17432TIP3   OH273710   5.343   4.190  10.725  0.7740 -0.2553  0.1018
17432TIP3    H173711   5.373   4.160  10.811 -0.4355  0.8914  0.9643
17432TIP3    H273712   5.251   4.212  10.738 -0.0774 -2.1592 -2.0659
17433TIP3   OH273713   3.554   4.971   2.122  0.2947  0.1241  0.0001
17433TIP3    H173714   3.560   5.063   2.149  1.5140  0.7190 -2.0592
17433TIP3    H273715   3.490   4.971   2.051  1.3191 -0.3122 -0.9747
17434TIP3   OH273716   1.819   5.884   2.312  0.0081  0.2831 -0.3221
17434TIP3    H173717   1.760   5.958   2.300 -1.2562 -0.7190 -0.4477
17434TIP3    H273718   1.782   5.834   2.385  0.2056 -0.8013 -0.9330
17435TIP3   OH273719   3.712   0.833   2.839  0.0447 -0.7581  0.5286
17435TIP3    H173720   3.713   0.758   2.897  0.3949 -0.0353  1.4840
17435TIP3    H273721   3.801   0.869   2.844 -0.4818  0.4990  1.1438
17436TIP3   OH273722   6.091   3.992   4.044 -0.5946  0.5445 -0.8556
17436TIP3    H173723   6.095   4.088   4.045  1.5089  0.5021 -0.4797
17436TIP3    H273724   6.162   3.966   3.985  1.9392 -0.7735  2.4149
17437TIP3   OH273725   3.777   4.550  13.251 -0.1008  0.3065  0.2260
17437TIP3    H173726   3.864   4.546  13.291  0.8405 -1.1400 -1.7985
17437TIP3    H273727   3.721   4.501  13.311  1.0980 -1.1348  0.2407
17438TIP3   OH273728   2.368   5.340   4.410  0.1897 -0.0430  0.3145
17438TIP3    H173729   2.349   5.250   4.434  0.0887 -0.2757 -0.6136
17438TIP3    H273730   2.300   5.392   4.453 -1.0793 -0.6217 -0.9027
17439TIP3   OH273731   3.403   0.074   4.892  0.1632  0.6245  0.5280
17439TIP3    H173732   3.466   0.063   4.820 -0.1071  2.6950 -0.0721
17439TIP3    H273733   3.368  -0.014   4.906 -1.0737  0.3694 -3.1107
17440TIP3   OH273734   4.711   1.325   6.152  0.1580 -0.3832  0.9660
17440TIP3    H173735   4.636   1.267   6.146 -1.2550  1.2267  2.0304
17440TIP3    H273736   4.786   1.266   6.160 -0.9553 -2.0410 -0.1226
17441TIP3   OH273737   6.142   0.592  12.208  0.0769 -0.0444 -0.7653
17441TIP3    H173738   6.214   0.647  12.178  0.7104 -0.8985 -0.8781
17441TIP3    H273739   6.163   0.505  12.173 -0.1900 -0.6395  0.4786
17442TIP3   OH273740   0.975   3.155   3.019  0.1896 -0.3377  0.2298
17442TIP3    H173741   0.971   3.197   3.105  0.2963 -0.9178  0.5171
17442TIP3    H273742   1.051   3.097   3.024  0.3868 -0.1387 -0.3625
17443TIP3   OH273743   4.292   1.608  15.319 -0.3716 -0.6785 -0.3853
17443TIP3    H173744   4.323   1.580  15.406  0.4621  0.1839 -0.3905
17443TIP3    H273745   4.205   1.645  15.336  0.3512  0.7740  0.3349
17444TIP3   OH273746   4.551   4.970   2.012 -0.1785 -0.2797  0.5954
17444TIP3    H173747   4.457   4.981   1.999 -0.3270 -2.3882 -0.6547
17444TIP3    H273748   4.562   4.876   2.026  1.7628 -0.1018  0.4903
17445TIP3   OH273749   2.249   3.743   0.015  0.2544 -0.6080  0.3345
17445TIP3    H173750   2.309   3.710  -0.052  1.8145  2.6405 -0.0577
17445TIP3    H273751   2.162   3.732  -0.023  0.8084 -2.3009 -0.5375
17446TIP3   OH273752   4.403   5.944   3.167 -0.2829  0.1740  0.1306
17446TIP3    H173753   4.432   5.969   3.255 -0.2928 -0.0944  0.2110
17446TIP3    H273754   4.307   5.944   3.172 -0.3386 -2.7012  0.9693
17447TIP3   OH273755   0.230   6.520  11.656  0.1937  0.8189  0.3423
17447TIP3    H173756   0.217   6.535  11.749  0.7194 -0.1508  0.5844
17447TIP3    H273757   0.322   6.541  11.641 -0.1302  1.9830 -0.1873
17448TIP3   OH273758   2.676   1.178   1.492  0.2901 -0.2038 -0.2852
17448TIP3    H173759   2.702   1.264   1.526 -1.1784  0.3529 -0.5108
17448TIP3    H273760   2.606   1.149   1.549 -0.3148 -0.5216 -1.1674
17449TIP3   OH273761   3.300   0.132  13.691 -0.2384  0.0972  0.4256
17449TIP3    H173762   3.275   0.058  13.637 -1.3954 -0.4291  1.6383
17449TIP3    H273763   3.384   0.162  13.654 -1.6851  0.7546 -2.6157
17450TIP3   OH273764   0.684   4.258   1.626  0.5673  0.4486  0.2684
17450TIP3    H173765   0.730   4.334   1.589  1.5875  1.1545  2.7331
17450TIP3    H273766   0.716   4.183   1.576  3.0381  1.1578  0.6290
17451TIP3   OH273767   5.772   4.160  13.667  0.2068  0.3273  0.0853
17451TIP3    H173768   5.865   4.178  13.659  0.0940  0.8225 -0.1210
17451TIP3    H273769   5.753   4.102  13.593  0.7048 -1.2565  1.1341
17452TIP3   OH273770   1.201   4.613  11.457  0.2231 -0.5593 -0.2198
17452TIP3    H173771   1.106   4.618  11.457  0.2328 -0.3240 -0.4250
17452TIP3    H273772   1.221   4.521  11.440  0.0348 -0.3763 -1.5237
17453TIP3   OH273773   0.467   1.214   5.506  0.2475 -0.0066 -0.7854
17453TIP3    H173774   0.487   1.282   5.441  2.3759 -1.1194 -1.3787
17453TIP3    H273775   0.474   1.259   5.590  0.8891  0.6729 -1.1886
17454TIP3   OH273776   0.715   1.297  14.055 -0.0606 -0.2010 -0.4218
17454TIP3    H173777   0.646   1.234  14.076 -0.2099  0.6171  1.8132
17454TIP3    H273778   0.686   1.379  14.096  2.1677  0.1778  0.5542
17455TIP3   OH273779   5.697   4.608   3.596 -0.4435  0.5110 -0.4048
17455TIP3    H173780   5.659   4.520   3.589 -1.6281  1.0547 -1.1695
17455TIP3    H273781   5.705   4.638   3.505  2.9963 -0.0073 -0.4003
17456TIP3   OH273782   3.118   6.636  11.995  0.7554 -0.5238 -0.9239
17456TIP3    H173783   3.196   6.688  12.018  0.4093 -0.4929  0.2095
17456TIP3    H273784   3.071   6.626  12.077 -1.3147  0.8842 -1.8661
17457TIP3   OH273785   2.958   6.399  12.852 -0.2235 -0.2493 -0.3537
17457TIP3    H173786   2.891   6.402  12.783  0.5575 -1.0283 -1.1759
17457TIP3    H273787   3.004   6.483  12.846 -0.3480 -0.1984 -0.5836
17458TIP3   OH273788   1.397   4.181   3.916 -0.1210  0.4534 -0.1005
17458TIP3    H173789   1.400   4.235   3.995 -0.1532  1.3424 -0.6926
17458TIP3    H273790   1.489   4.170   3.892 -0.0010 -1.1656  0.9288
17459TIP3   OH273791   0.189   4.590  12.542  0.3698  0.3991 -0.4105
17459TIP3    H173792   0.192   4.529  12.468  1.4501  0.0229 -0.0784
17459TIP3    H273793   0.135   4.663  12.511 -1.1761 -0.8131 -0.7292
17460TIP3   OH273794   2.491   5.856   2.756 -0.7751 -0.0448 -0.0494
17460TIP3    H173795   2.543   5.783   2.722 -2.2631 -0.5362 -1.3908
17460TIP3    H273796   2.402   5.839   2.725 -1.7449  0.8361  2.0462
17461TIP3   OH273797   1.244   5.278   1.459 -0.0885 -0.2180 -0.1370
17461TIP3    H173798   1.248   5.251   1.551  0.5548  0.7244  0.1246
17461TIP3    H273799   1.325   5.247   1.420 -0.2553 -0.4131 -0.3326
17462TIP3   OH273800   6.138   4.182  14.537 -0.1197 -0.8531  0.1380
17462TIP3    H173801   6.053   4.142  14.555 -0.7126 -0.9869 -2.4980
17462TIP3    H273802   6.193   4.109  14.507 -0.2449 -0.2647 -1.6631
17463TIP3   OH273803   1.193   5.659  16.851  0.2173 -0.1764  0.6023
17463TIP3    H173804   1.260   5.665  16.919 -2.1013 -0.6226  3.1056
17463TIP3    H273805   1.112   5.641  16.899 -1.6604 -0.0305 -2.2801
17464TIP3   OH273806   4.405   1.353   1.393 -0.0648 -0.1559 -0.3303
17464TIP3    H173807   4.492   1.386   1.417 -0.3837  0.7317 -0.3800
17464TIP3    H273808   4.409   1.342   1.298 -1.0723  3.2538 -0.9022
17465TIP3   OH273809   5.067   1.091  15.113  0.2329 -0.0002 -0.9109
17465TIP3    H173810   5.130   1.019  15.113 -0.0141 -0.2287 -1.6394
17465TIP3    H273811   5.009   1.073  15.038 -0.6042  0.2840 -0.3558
17466TIP3   OH273812   2.833   4.681  14.216  0.2449  0.1804  0.8876
17466TIP3    H173813   2.863   4.658  14.128  0.8965 -1.2444  1.4615
17466TIP3    H273814   2.912   4.710  14.261  0.2238 -0.6399  1.4763
17467TIP3   OH273815   1.113   0.245  13.536 -0.2950  0.1082 -0.8578
17467TIP3    H173816   1.101   0.203  13.621 -2.0520  1.8676 -0.1570
17467TIP3    H273817   1.067   0.188  13.474  0.2310 -0.7206 -0.4984
17468TIP3   OH273818   4.655   5.939  15.044 -0.7131 -0.0647 -0.1981
17468TIP3    H173819   4.680   5.857  15.087 -0.2014  0.5487  0.6944
17468TIP3    H273820   4.575   5.917  14.996  0.4110 -1.5674 -1.4993
17469TIP3   OH273821   0.023   3.207   1.945 -0.1714 -0.3588  0.1829
17469TIP3    H173822   0.055   3.297   1.933 -0.5342 -0.1291  0.8855
17469TIP3    H273823   0.098   3.152   1.925 -0.1481  0.0586 -1.0152
17470TIP3   OH273824   1.417   3.148   0.387  0.5126  0.2692  0.8623
17470TIP3    H173825   1.475   3.145   0.463 -0.3075  1.2227  1.5496
17470TIP3    H273826   1.329   3.139   0.424  0.1639 -0.3220 -0.0831
17471TIP3   OH273827   5.831   0.877   0.114 -0.2199 -0.2305  0.6947
17471TIP3    H173828   5.853   0.794   0.072 -0.8662 -0.5690  1.0186
17471TIP3    H273829   5.904   0.935   0.091 -0.9537 -0.1178 -1.6588
17472TIP3   OH273830   1.789   2.697  15.892 -0.3438 -0.1731  0.0346
17472TIP3    H173831   1.776   2.722  15.983 -0.7614 -1.9064  0.4974
17472TIP3    H273832   1.716   2.738  15.845  0.3367  1.4139  0.3061
17473TIP3   OH273833   1.820   4.911   1.928  0.2877 -0.0160 -0.2783
17473TIP3    H173834   1.855   4.838   1.877 -0.8305 -0.7233 -0.0674
17473TIP3    H273835   1.897   4.948   1.972  0.7732 -1.6528  0.3349
17474TIP3   OH273836   6.676   3.556   0.375 -0.9055  0.4491 -0.4185
17474TIP3    H173837   6.644   3.564   0.285  1.2667 -1.5851 -1.4524
17474TIP3    H273838   6.760   3.602   0.375 -0.1116 -0.9444  0.0916
17475TIP3   OH273839   6.151   2.380  16.293 -0.1285 -0.3110  0.0449
17475TIP3    H173840   6.121   2.471  16.293 -1.4191 -0.5571 -3.5063
17475TIP3    H273841   6.244   2.386  16.312 -0.5067  1.5036  1.7601
17476TIP3   OH273842   6.580   0.171   3.485  0.8511 -0.4380 -0.6444
17476TIP3    H173843   6.639   0.146   3.556 -0.1324 -1.6970 -0.2438
17476TIP3    H273844   6.617   0.128   3.408  1.1838 -0.1513 -0.6474
17477TIP3   OH273845   1.440   6.280  10.409 -0.6746 -0.6202  0.3799
17477TIP3    H173846   1.368   6.223  10.434 -0.4297 -2.1291 -2.0494
17477TIP3    H273847   1.410   6.368  10.435 -2.5657 -1.4136  1.1027
17478TIP3   OH273848   3.559   6.522   5.086 -0.5444 -0.0800  0.0349
17478TIP3    H173849   3.619   6.540   5.159 -0.8566  0.3150  0.2019
17478TIP3    H273850   3.474   6.554   5.117 -0.5488  0.7155 -0.7645
17479TIP3   OH273851   5.412   2.331   5.133  0.0517 -0.8947  0.5132
17479TIP3    H173852   5.320   2.310   5.149  0.2421 -1.6709  0.6062
17479TIP3    H273853   5.451   2.248   5.106  0.6927 -0.5339  0.3236
17480TIP3   OH273854   2.613   0.656   2.545 -0.3755 -0.3360 -0.0780
17480TIP3    H173855   2.577   0.643   2.632  0.3175 -0.0663  0.2543
17480TIP3    H273856   2.552   0.716   2.502 -1.5355 -1.6189 -0.3151
17481TIP3   OH273857   3.205   2.794   4.531  0.0511  0.6019  0.3327
17481TIP3    H173858   3.176   2.706   4.554  2.2905 -0.2422  0.1609
17481TIP3    H273859   3.124   2.845   4.527 -1.4075 -1.5872 -0.3025
17482TIP3   OH273860   4.981   3.639  11.733  0.0931 -0.1170  0.4722
17482TIP3    H173861   5.003   3.609  11.821  1.3968 -2.5770 -0.6018
17482TIP3    H273862   5.001   3.733  11.734 -0.9799  0.1767  3.0518
17483TIP3   OH273863   6.524   1.454   5.493  0.0049 -0.1937  0.3396
17483TIP3    H173864   6.484   1.411   5.569 -2.8989  0.3798 -0.7157
17483TIP3    H273865   6.560   1.382   5.440 -1.4077 -1.0027  0.4257
17484TIP3   OH273866   4.644   4.863  14.252 -0.1615  0.6686 -0.0949
17484TIP3    H173867   4.556   4.896  14.233 -0.5726 -0.5269 -0.3638
17484TIP3    H273868   4.691   4.939  14.285 -1.7679  0.9730  1.6685
17485TIP3   OH273869   5.673   1.019  16.889 -0.2773  0.7221 -0.1660
17485TIP3    H173870   5.753   1.063  16.920  0.4146  0.5557 -1.5947
17485TIP3    H273871   5.603   1.080  16.909  0.3970  1.5008 -0.1123
17486TIP3   OH273872   4.056   6.399  16.660  0.6006  0.1735  0.0462
17486TIP3    H173873   4.114   6.371  16.731  0.4860  0.1034  0.1132
17486TIP3    H273874   3.995   6.326  16.650  0.6826  0.1390 -0.1973
17487TIP3   OH273875   6.575   5.005  13.618 -0.6300 -0.1316 -0.6844
17487TIP3    H173876   6.515   4.936  13.588 -0.1162 -0.6316 -0.5925
17487TIP3    H273877   6.523   5.058  13.678 -0.7577 -1.0533  0.0529
17488TIP3   OH273878   4.857   1.947   2.128  0.2811 -0.1062  0.2749
17488TIP3    H173879   4.877   1.972   2.218  0.1576 -0.2770  0.3510
17488TIP3    H273880   4.919   1.877   2.109 -0.0677 -0.4605  0.4233
17489TIP3   OH273881   4.283   5.164  16.243  0.0154 -0.0512  0.1955
17489TIP3    H173882   4.246   5.231  16.301 -0.1003 -0.1257  0.2098
17489TIP3    H273883   4.308   5.093  16.302  0.6638  0.2090  0.2427
17490TIP3   OH273884   6.331   5.199   4.789  0.3375  0.2853 -0.1809
17490TIP3    H173885   6.249   5.158   4.761  0.5703  1.0786 -2.2011
17490TIP3    H273886   6.363   5.245   4.711  0.9310  2.9256  1.4658
17491TIP3   OH273887   5.046   2.467  12.171 -0.4168  0.1523 -0.2463
17491TIP3    H173888   5.079   2.405  12.106 -1.8614  0.3689 -1.2579
17491TIP3    H273889   4.967   2.426  12.205 -0.4779  0.7034  0.2861
17492TIP3   OH273890   2.647   4.937  11.075 -0.5007  0.4290 -0.3407
17492TIP3    H173891   2.559   4.926  11.038 -1.3361 -0.6949  1.8146
17492TIP3    H273892   2.632   4.971  11.163  1.2515  0.6248 -0.0919
17493TIP3   OH273893   1.476   3.573   5.455 -0.3912 -0.2625 -0.1383
17493TIP3    H173894   1.567   3.558   5.479 -0.5351  0.1836  0.7444
17493TIP3    H273895   1.427   3.505   5.502 -0.5059 -0.6322 -0.7730
17494TIP3   OH273896   4.619   6.030  14.151  0.2341 -0.5912 -0.3650
17494TIP3    H173897   4.530   6.001  14.170 -0.0728 -1.7888 -3.2311
17494TIP3    H273898   4.675   5.970  14.200 -0.4116  0.5275  1.9390
17495TIP3   OH273899   4.895   3.171   5.882 -0.3397 -0.2484  0.4722
17495TIP3    H173900   4.927   3.246   5.832 -0.9026  0.6326  1.4066
17495TIP3    H273901   4.919   3.095   5.828  2.2255  0.4128  0.5755
17496TIP3   OH273902   6.804   3.814   5.714 -0.1473  0.4219 -0.0810
17496TIP3    H173903   6.736   3.751   5.734  0.3544  0.1870  0.9499
17496TIP3    H273904   6.844   3.783   5.633  0.3123 -0.7722  0.5905
17497TIP3   OH273905   5.742   3.076  10.876  0.0646 -0.4549 -0.5559
17497TIP3    H173906   5.723   3.071  10.970  2.3371  2.1338  0.1649
17497TIP3    H273907   5.699   3.156  10.846  1.4979  0.1782 -1.0538
17498TIP3   OH273908   4.563   2.885   5.287 -0.3178  0.5907 -0.7000
17498TIP3    H173909   4.471   2.870   5.264 -0.2539  2.0028 -2.0269
17498TIP3    H273910   4.564   2.881   5.383 -0.9159 -3.8432 -0.6523
17499TIP3   OH273911   6.664   4.907  14.527 -0.1109 -0.0632  0.1571
17499TIP3    H173912   6.734   4.858  14.485  1.0518  1.4943  0.1785
17499TIP3    H273913   6.676   4.997  14.496 -2.0519  0.2810  0.2484
17500TIP3   OH273914   1.814   4.057  15.014 -0.1152 -0.1630  0.1804
17500TIP3    H173915   1.846   4.054  14.924 -0.5579 -1.7095  0.0519
17500TIP3    H273916   1.731   4.103  15.008  0.1165  0.2269 -0.1131
17501TIP3   OH273917   6.076   2.793   0.767 -0.6566  0.1646  0.0475
17501TIP3    H173918   6.019   2.808   0.692 -1.4659  1.3546  0.8661
17501TIP3    H273919   6.107   2.880   0.792 -0.5596 -0.1849  1.2070
17502TIP3   OH273920   6.610   0.730   1.286  0.3847  0.0441 -0.4054
17502TIP3    H173921   6.517   0.735   1.260  0.2632 -1.0438 -0.2121
17502TIP3    H273922   6.619   0.797   1.354 -0.8683 -1.4010  1.2937
17503TIP3   OH273923   2.189   0.492  11.790  0.4205 -0.6696  0.1143
17503TIP3    H173924   2.113   0.476  11.733  1.0417  0.7149 -1.1550
17503TIP3    H273925   2.196   0.412  11.842 -2.9422 -0.2186  1.5582
17504TIP3   OH273926   2.047   0.418  14.859 -0.7243  0.4313 -0.0935
17504TIP3    H173927   2.090   0.465  14.787 -1.9681  0.4428 -0.8756
17504TIP3    H273928   2.005   0.487  14.910  0.8317  0.5012  1.1656
17505TIP3   OH273929   6.778   1.197   1.500 -0.6635  0.0242 -0.2420
17505TIP3    H173930   6.691   1.230   1.523 -0.4618  0.1458  0.3582
17505TIP3    H273931   6.839   1.263   1.534 -0.3595  0.2759 -1.2537
17506TIP3   OH273932   2.950   4.715  10.641  0.3080 -0.4664 -0.2050
17506TIP3    H173933   2.937   4.720  10.546  0.2505 -0.5785 -0.2037
17506TIP3    H273934   2.994   4.631  10.655 -0.7503 -1.0147 -0.0233
17507TIP3   OH273935   3.380   1.054   1.075  0.1937  0.1979 -0.2158
17507TIP3    H173936   3.396   0.961   1.094 -0.5955 -0.0538 -0.7542
17507TIP3    H273937   3.383   1.060   0.980 -2.2089  0.2448 -0.3378
17508TIP3   OH273938   5.694   2.837   2.915 -0.2462  0.3596  0.0809
17508TIP3    H173939   5.788   2.822   2.928 -0.4854 -0.7329  0.7392
17508TIP3    H273940   5.680   2.825   2.822  0.3223  0.8892 -0.0783
17509TIP3   OH273941   2.933   2.826   1.828 -0.5143  0.7490 -0.3594
17509TIP3    H173942   2.846   2.861   1.811 -0.7803 -0.4572 -1.6452
17509TIP3    H273943   2.954   2.773   1.751  0.0383 -1.5130  1.2474
17510TIP3   OH273944   5.406   3.798  15.972  0.1142  0.0275 -0.3427
17510TIP3    H173945   5.322   3.809  15.929  0.0094  0.4171 -0.0408
17510TIP3    H273946   5.467   3.773  15.902  0.1506  1.5371 -0.8817
17511TIP3   OH273947   1.231   4.877   5.070 -0.3353  0.1736 -0.5221
17511TIP3    H173948   1.230   4.943   5.000 -0.3183  1.9347  1.0361
17511TIP3    H273949   1.279   4.920   5.141 -0.6127 -1.4343  0.6723
17512TIP3   OH273950   2.851   3.317   0.791  0.5883  0.3363  0.5958
17512TIP3    H173951   2.771   3.265   0.783  0.2613  0.7392  1.2073
17512TIP3    H273952   2.922   3.256   0.766 -0.0469  0.5612 -2.0568
17513TIP3   OH273953   1.522   3.189  13.728  0.0325 -0.4023 -0.0644
17513TIP3    H173954   1.515   3.281  13.754  0.4183 -0.5875  0.7504
17513TIP3    H273955   1.533   3.191  13.633  1.9164  0.5129  0.1272
17514TIP3   OH273956   5.302   3.204  15.466  0.3124 -0.2232  0.3244
17514TIP3    H173957   5.377   3.171  15.417 -1.1426 -1.8230 -0.9949
17514TIP3    H273958   5.228   3.192  15.406 -0.6198  4.4597  0.2223
17515TIP3   OH273959   2.439   3.874  14.489  0.0539  0.2961 -0.7398
17515TIP3    H173960   2.394   3.862  14.572  0.8267 -0.3384 -0.4010
17515TIP3    H273961   2.477   3.962  14.494  1.2768 -0.2512  0.1772
17516TIP3   OH273962   0.043   4.168   4.456 -0.0077  0.3478  0.1303
17516TIP3    H173963  -0.027   4.227   4.426 -0.5554 -0.3213  0.0675
17516TIP3    H273964  -0.003   4.089   4.483  0.6778  0.1552  0.7391
17517TIP3   OH273965   5.147   5.638   5.610  0.7709  0.1343 -0.6854
17517TIP3    H173966   5.226   5.585   5.624 -0.0985 -1.3749 -1.2590
17517TIP3    H273967   5.138   5.643   5.515 -1.3530 -2.2329 -0.7372
17518TIP3   OH273968   4.626   6.331   1.952 -0.6848 -0.3685  0.7402
17518TIP3    H173969   4.593   6.407   1.904 -0.4189  0.3216  1.6357
17518TIP3    H273970   4.575   6.257   1.917  0.8843 -0.2420 -2.0587
17519TIP3   OH273971   5.218   1.386   2.778  0.4122  0.3051  0.3256
17519TIP3    H173972   5.309   1.363   2.793  0.1920 -1.3319 -0.6138
17519TIP3    H273973   5.168   1.318   2.823 -0.3646  1.2511  0.9356
17520TIP3   OH273974   5.631   2.389   0.501  0.4127  0.6334 -0.0040
17520TIP3    H173975   5.646   2.461   0.562 -2.3338  1.0407  0.2812
17520TIP3    H273976   5.603   2.431   0.420  1.1517 -0.0416 -0.6243
17521TIP3   OH273977   6.647   0.083   0.253  0.0989  0.3035  0.0697
17521TIP3    H173978   6.623   0.151   0.190 -0.1854 -0.2667 -0.4475
17521TIP3    H273979   6.567   0.032   0.266  0.2633  0.1660  0.5796
17522TIP3   OH273980   4.817   1.375   2.140 -0.2034  0.3821 -0.3324
17522TIP3    H173981   4.880   1.448   2.144  0.7063 -0.3348 -1.1948
17522TIP3    H273982   4.809   1.346   2.231  0.5687  0.6130 -0.1796
17523TIP3   OH273983   5.698   5.307   1.810 -0.4269 -0.8639  0.0836
17523TIP3    H173984   5.726   5.247   1.741  2.5755 -1.4873  1.7004
17523TIP3    H273985   5.717   5.262   1.892 -2.1463  0.6042  1.3910
17524TIP3   OH273986   2.562   3.837  12.676 -0.1307 -0.4858 -0.3089
17524TIP3    H173987   2.625   3.908  12.690 -1.6118  1.0452 -1.0152
17524TIP3    H273988   2.585   3.772  12.742  1.8789  0.2108 -0.2408
17525TIP3   OH273989   4.523   3.597   3.162 -0.5734 -0.3952  0.1883
17525TIP3    H173990   4.482   3.532   3.218  1.1154 -2.6033 -0.9380
17525TIP3    H273991   4.453   3.627   3.104 -1.3394 -1.4404  0.5530
17526TIP3   OH273992   3.483   0.558   1.590 -0.6733 -0.0620 -0.8196
17526TIP3    H173993   3.394   0.534   1.615 -0.3877 -0.2757  0.0234
17526TIP3    H273994   3.513   0.485   1.536 -0.7573 -0.3085 -0.5298
17527TIP3   OH273995   2.610   3.735  11.923  0.2327 -0.1149  0.2714
17527TIP3    H173996   2.621   3.818  11.876 -0.5991 -0.8031 -1.2073
17527TIP3    H273997   2.583   3.673  11.856  0.3607 -1.4859  1.4400
17528TIP3   OH273998   0.613   4.884   3.547  0.0816 -0.1001  0.1112
17528TIP3    H173999   0.575   4.910   3.463  1.2067 -0.0402 -0.4066
17528TIP3    H274000   0.652   4.798   3.530  0.8567  0.1843  0.3867
17529TIP3   OH274001   3.093   5.838   4.149  0.6127 -1.1295  1.1527
17529TIP3    H174002   3.084   5.889   4.068  0.7706 -1.7075  0.7640
17529TIP3    H274003   3.170   5.783   4.134  0.6484 -1.2331  1.7026
17530TIP3   OH274004   0.113   5.485  13.873 -0.5642  0.4124  0.0412
17530TIP3    H174005   0.126   5.505  13.780  0.5066 -0.7747 -0.0982
17530TIP3    H274006   0.083   5.394  13.874 -1.5617  0.7328  0.8243
17531TIP3   OH274007   2.279   4.280   0.810 -0.1450  0.4136 -0.1260
17531TIP3    H174008   2.189   4.312   0.808 -1.4000 -2.2966  2.9972
17531TIP3    H274009   2.323   4.334   0.876 -0.1273  0.3893 -0.1177
17532TIP3   OH274010   1.731   5.773  12.418  0.6111  0.2737 -0.4866
17532TIP3    H174011   1.817   5.745  12.451  0.6542  0.2172 -0.6442
17532TIP3    H274012   1.668   5.717  12.464  0.7170 -0.3188 -1.0477
17533TIP3   OH274013   5.055   4.088   2.294 -0.7585 -0.0420 -0.5908
17533TIP3    H174014   5.052   3.999   2.329 -0.4466  0.0371 -0.3606
17533TIP3    H274015   5.119   4.134   2.349 -0.3852  0.1278 -1.1570
17534TIP3   OH274016   4.498   5.222   5.351 -0.4031 -0.3151  0.4891
17534TIP3    H174017   4.477   5.134   5.382 -2.1712 -0.4885 -1.0402
17534TIP3    H274018   4.565   5.254   5.413 -0.9784 -2.0462  2.1022
17535TIP3   OH274019   0.359   4.222  12.217 -0.1455  0.3761 -0.3752
17535TIP3    H174020   0.397   4.206  12.304  1.3975 -0.4758 -1.1691
17535TIP3    H274021   0.421   4.281  12.174 -0.2096 -0.2432 -1.3505
17536TIP3   OH274022   6.322   2.074  17.131  0.0434  0.4944  0.5631
17536TIP3    H174023   6.375   2.144  17.093  1.4186 -1.7167 -1.9197
17536TIP3    H274024   6.368   2.049  17.211  0.9610  0.7741  0.1376
17537TIP3   OH274025   6.000   4.397  15.725  0.2309  0.1933  0.1127
17537TIP3    H174026   6.053   4.365  15.652  0.0232 -0.1982  0.1295
17537TIP3    H274027   6.057   4.385  15.802 -0.2082 -1.1023  0.2606
17538TIP3   OH274028   5.116   1.875  11.436  0.0304  0.1550 -0.0548
17538TIP3    H174029   5.130   1.946  11.373 -1.6625 -0.9246 -1.7599
17538TIP3    H274030   5.106   1.796  11.381 -1.1144 -0.9007  1.5920
17539TIP3   OH274031   1.888   3.512   3.547 -0.8025  0.2911  0.1191
17539TIP3    H174032   1.929   3.510   3.461  1.5386 -2.3042  1.1448
17539TIP3    H274033   1.794   3.511   3.529 -0.4286 -2.2536 -2.4834
17540TIP3   OH274034   2.654   1.468  13.948 -0.5123  0.7593  0.2089
17540TIP3    H174035   2.682   1.553  13.984 -1.3796  0.4456  1.6497
17540TIP3    H274036   2.576   1.489  13.896 -0.3272  0.9361 -0.0025
17541TIP3   OH274037   4.029   6.742   1.548  0.5161 -0.2263  0.0684
17541TIP3    H174038   4.111   6.705   1.580 -0.3317 -3.2396 -0.8884
17541TIP3    H274039   3.965   6.672   1.560 -0.9276  0.2766 -3.3770
17542TIP3   OH274040   6.236   4.971   4.061 -0.0097 -0.6709 -0.0990
17542TIP3    H174041   6.180   5.040   4.025  2.0642  0.7554 -0.7253
17542TIP3    H274042   6.217   4.894   4.007 -0.8324 -0.0233 -0.7614
17543TIP3   OH274043   1.857   3.729   0.666 -0.0746 -0.5996 -0.0880
17543TIP3    H174044   1.806   3.649   0.675  0.1317 -0.6633  0.5461
17543TIP3    H274045   1.797   3.791   0.624 -0.4450 -0.8829  0.0172
17544TIP3   OH274046   6.345   5.418  13.938  0.3523 -0.0800 -0.2498
17544TIP3    H174047   6.283   5.402  14.010  1.6965  1.0712  1.2269
17544TIP3    H274048   6.318   5.503  13.903  0.5233 -0.0131 -0.2167
17545TIP3   OH274049   0.259   0.770   4.802  0.0826 -0.0110  0.2164
17545TIP3    H174050   0.263   0.865   4.811  0.0099 -0.1412  1.8644
17545TIP3    H274051   0.320   0.750   4.731  0.2650  1.2354  0.0007
17546TIP3   OH274052   3.527   4.900   6.060  0.1327  0.4737 -0.5848
17546TIP3    H174053   3.474   4.850   6.123  0.0046  2.1154  0.6873
17546TIP3    H274054   3.477   4.980   6.046  1.8054  1.6640 -0.0760
17547TIP3   OH274055   5.633   0.767   2.992 -0.1162 -0.4183  0.0185
17547TIP3    H174056   5.715   0.730   3.022  0.9945  0.9825 -1.1235
17547TIP3    H274057   5.648   0.788   2.900 -1.3360  0.9576  0.0878
17548TIP3   OH274058   3.300   3.185  11.500  0.2245  0.1235  0.2115
17548TIP3    H174059   3.263   3.265  11.463 -0.6600 -1.2996 -2.1972
17548TIP3    H274060   3.262   3.180  11.588 -0.6207  1.7531 -0.0254
17549TIP3   OH274061   0.350   4.710  14.224  0.2395 -0.1780  0.7622
17549TIP3    H174062   0.437   4.670  14.224  0.2354 -0.1906  0.0980
17549TIP3    H274063   0.294   4.643  14.264  0.4432 -0.3737  0.7240
17550TIP3   OH274064   1.699   4.925   0.514 -0.0939 -0.0469  0.2094
17550TIP3    H174065   1.740   4.841   0.533 -0.3417 -0.3047 -0.3743
17550TIP3    H274066   1.754   4.990   0.558  0.0789 -0.5147  0.6878
17551TIP3   OH274067   0.895   4.487  13.942  0.1874  0.0759  0.0354
17551TIP3    H174068   0.903   4.557  13.878 -1.0066  0.1725 -0.0318
17551TIP3    H274069   0.905   4.530  14.026  2.4435 -0.1531 -0.0633
17552TIP3   OH274070   6.232   2.881  14.591  0.3121  0.1362  0.0186
17552TIP3    H174071   6.157   2.864  14.533  0.8340 -1.1051 -0.3276
17552TIP3    H274072   6.296   2.814  14.567  1.3259  0.8425  0.6867
17553TIP3   OH274073   0.571   5.740   5.591 -0.2742 -0.4222  0.3896
17553TIP3    H174074   0.652   5.689   5.589  0.9750  1.3784 -2.5753
17553TIP3    H274075   0.542   5.738   5.682  1.3850 -3.6853  0.9672
17554TIP3   OH274076   5.378   0.767   5.351  0.3810 -0.2950 -0.3342
17554TIP3    H174077   5.427   0.831   5.301  0.1666 -0.9802 -1.4407
17554TIP3    H274078   5.327   0.719   5.286 -1.1417 -0.1406  0.6943
17555TIP3   OH274079   2.291   2.511   1.664 -0.2496 -0.0481 -0.3670
17555TIP3    H174080   2.273   2.598   1.700 -1.0173 -0.2923 -0.1427
17555TIP3    H274081   2.386   2.506   1.659 -0.1618  0.4041  0.6072
17556TIP3   OH274082   1.402   4.370  16.196 -0.0159  0.4599  0.0377
17556TIP3    H174083   1.369   4.445  16.244  1.7289  1.2803  0.0089
17556TIP3    H274084   1.450   4.318  16.261  0.3941  0.3672 -0.3347
17557TIP3   OH274085   5.418   4.456   4.765  0.1062 -0.0921 -0.3614
17557TIP3    H174086   5.493   4.512   4.781  0.7026 -0.6663 -1.0861
17557TIP3    H274087   5.342   4.510   4.787  0.7587 -0.1150  2.2709
17558TIP3   OH274088   2.136   0.572   5.090 -0.8183  0.5362 -0.2414
17558TIP3    H174089   2.221   0.541   5.121 -0.5555  0.4495 -1.0056
17558TIP3    H274090   2.145   0.667   5.087 -0.8754  0.5507  0.0258
17559TIP3   OH274091   5.085   1.690  13.878 -0.4708  0.1153  0.3705
17559TIP3    H174092   5.167   1.675  13.831 -0.1145  1.2294  0.5920
17559TIP3    H274093   5.107   1.674  13.970 -0.6884 -0.2659  0.3581
17560TIP3   OH274094   0.515   0.730   1.457 -0.0485  0.1891  0.2248
17560TIP3    H174095   0.428   0.735   1.496 -1.1776  1.3168 -2.1952
17560TIP3    H274096   0.550   0.646   1.485 -1.7227 -0.0978  1.6093
17561TIP3   OH274097   2.853   1.840   6.005 -0.1554 -0.3288  0.2096
17561TIP3    H174098   2.900   1.802   6.079  0.9526  2.3697  1.0526
17561TIP3    H274099   2.815   1.921   6.040 -1.0720  0.1495 -1.7469
17562TIP3   OH274100   1.727   1.401  14.628 -0.5267 -0.7966  0.2861
17562TIP3    H174101   1.642   1.387  14.670 -0.5934 -0.3922  0.2890
17562TIP3    H274102   1.706   1.413  14.535 -0.3603 -1.9013  0.0948
17563TIP3   OH274103   6.801   0.959  14.394  0.3535 -0.1438 -0.0636
17563TIP3    H174104   6.727   0.943  14.335 -0.1938  0.4326  0.4377
17563TIP3    H274105   6.776   1.039  14.442  0.5367 -0.8728  1.2959
17564TIP3   OH274106   4.447   6.634   2.626 -0.1222 -0.2868  0.3043
17564TIP3    H174107   4.367   6.617   2.675 -0.5830  1.6991  0.3129
17564TIP3    H274108   4.417   6.661   2.539  0.2316  4.0401  1.3196
17565TIP3   OH274109   0.200   5.673  14.351  0.4344 -0.3261 -0.6448
17565TIP3    H174110   0.208   5.608  14.281  1.8066 -0.3197 -0.5210
17565TIP3    H274111   0.154   5.628  14.421  0.5833 -0.8829 -0.9026
17566TIP3   OH274112   0.132   1.777   3.683  0.7117  0.3655 -0.7915
17566TIP3    H174113   0.179   1.707   3.638 -1.0717 -0.8102 -0.9311
17566TIP3    H274114   0.065   1.805   3.620 -0.4002  0.2051  0.2790
17567TIP3   OH274115   6.622   4.788  15.827 -0.0338 -0.0246  0.2045
17567TIP3    H174116   6.591   4.804  15.916 -0.6423 -1.2318  0.2281
17567TIP3    H274117   6.644   4.875  15.793  2.9848  0.2577  2.4950
17568TIP3   OH274118   0.408   5.903  10.905  0.3686  0.1034  0.0156
17568TIP3    H174119   0.346   5.968  10.872 -0.8641  0.1760  2.3048
17568TIP3    H274120   0.376   5.820  10.869 -0.2473  0.3145  0.0618
17569TIP3   OH274121   4.433   5.730   4.636 -0.7607 -0.6127  0.5917
17569TIP3    H174122   4.484   5.753   4.714  0.5340 -2.2308  0.2553
17569TIP3    H274123   4.489   5.672   4.586 -1.6103  0.3099 -1.5479
17570TIP3   OH274124   0.728   6.724  15.062 -0.3434 -1.0963  0.3211
17570TIP3    H174125   0.637   6.728  15.033 -0.5573  0.3818  1.0646
17570TIP3    H274126   0.751   6.816  15.080  0.7456 -1.6077  1.7636
17571TIP3   OH274127   6.416   4.030  14.699  0.6190  0.2415 -0.2190
17571TIP3    H174128   6.463   4.013  14.781  0.5225  0.4193 -0.1265
17571TIP3    H274129   6.485   4.032  14.632  0.6322 -0.5508 -0.2420
17572TIP3   OH274130   3.570   1.661   1.518  0.2298  0.5604 -0.0734
17572TIP3    H174131   3.495   1.657   1.458  0.7735  1.8671 -0.8690
17572TIP3    H274132   3.646   1.641   1.464  0.4897 -0.7871  0.7381
17573TIP3   OH274133   6.451   6.732  13.870 -0.3056  0.0690 -0.5305
17573TIP3    H174134   6.532   6.756  13.825 -0.1829 -1.3301 -1.0971
17573TIP3    H274135   6.389   6.715  13.799 -0.7234 -0.1308 -0.1191
17574TIP3   OH274136   3.690   6.148  10.292 -0.6686  0.5390 -0.4685
17574TIP3    H174137   3.693   6.215  10.360 -0.0561 -1.4596  1.6162
17574TIP3    H274138   3.782   6.126  10.276 -0.8656  0.0994 -1.0333
17575TIP3   OH274139   1.078   6.265   0.998 -0.3455 -0.5937 -0.1065
17575TIP3    H174140   1.169   6.293   0.989 -0.6568  0.7671  0.6202
17575TIP3    H274141   1.083   6.182   1.045  0.5374 -0.7765 -0.5008
17576TIP3   OH274142   4.521   4.222   2.542  0.1119  0.2027 -0.3567
17576TIP3    H174143   4.572   4.301   2.524  0.8260 -0.6534 -2.3626
17576TIP3    H274144   4.586   4.152   2.546 -0.3948 -0.2158  2.4361
17577TIP3   OH274145   4.983   0.461   0.352  0.2216  0.2860  0.5132
17577TIP3    H174146   4.912   0.524   0.342 -0.9130 -1.1444 -0.8912
17577TIP3    H274147   4.949   0.396   0.414  0.5984 -0.0254  0.3996
17578TIP3   OH274148   0.305   2.517   4.691 -0.4430 -0.1093 -0.1039
17578TIP3    H174149   0.316   2.596   4.744  0.9071 -0.2757 -0.1149
17578TIP3    H274150   0.281   2.549   4.604  0.6768  0.3249 -0.2616
17579TIP3   OH274151   3.445   4.875  14.475  0.1898 -0.0687 -0.0357
17579TIP3    H174152   3.359   4.912  14.492  0.4370  1.0496 -1.0530
17579TIP3    H274153   3.466   4.825  14.554 -0.7183  0.9387  0.8766
17580TIP3   OH274154   0.636   6.517   0.659 -0.2016  0.1982  0.2481
17580TIP3    H174155   0.602   6.488   0.744  0.7009 -0.5476  0.3806
17580TIP3    H274156   0.663   6.607   0.674  0.4508 -0.0960  0.9241
17581TIP3   OH274157   5.534   1.557  17.039  0.1592  0.3932  0.5820
17581TIP3    H174158   5.612   1.505  17.025  1.0303  1.9459 -0.7103
17581TIP3    H274159   5.552   1.605  17.120 -0.6239 -1.1821  1.7450
17582TIP3   OH274160   2.144   4.235  11.782 -0.0374 -0.8057 -0.2409
17582TIP3    H174161   2.162   4.327  11.762  0.1872 -0.7348  0.2715
17582TIP3    H274162   2.074   4.211  11.721  0.1661 -0.4057 -0.6389
17583TIP3   OH274163   1.343   4.820   1.057 -0.4751 -0.4549  0.2820
17583TIP3    H174164   1.356   4.914   1.070 -1.8778 -0.3235  0.9398
17583TIP3    H274165   1.425   4.780   1.086  0.5637  0.6063 -1.0216
17584TIP3   OH274166   0.675   6.418  14.206  0.2856  0.1111  0.5658
17584TIP3    H174167   0.703   6.459  14.288 -2.1343  0.2203  1.4393
17584TIP3    H274168   0.690   6.325  14.219  2.9233  0.3416 -0.2177
17585TIP3   OH274169   2.006   3.595  14.521 -0.2052  0.1755  0.1758
17585TIP3    H174170   2.084   3.547  14.495 -0.6095  0.3222 -1.4221
17585TIP3    H274171   1.991   3.568  14.612  2.1751  0.8222  0.8357
17586TIP3   OH274172   1.310   3.435  16.881  0.3442  0.9950  0.3751
17586TIP3    H174173   1.327   3.347  16.848  0.0738  1.1137 -0.0858
17586TIP3    H274174   1.359   3.493  16.823 -0.3366  1.2209  0.0096
17587TIP3   OH274175   5.336   6.374  13.862  0.1392 -0.2637  0.7824
17587TIP3    H174176   5.384   6.315  13.803 -0.4320  0.3237 -0.3119
17587TIP3    H274177   5.244   6.361  13.840 -0.0247  0.6966  0.8340
17588TIP3   OH274178   5.478   4.130  12.391 -0.5217 -0.2583 -0.1989
17588TIP3    H174179   5.447   4.050  12.433 -0.9388  0.3039  0.5971
17588TIP3    H274180   5.566   4.144  12.428 -1.7602  1.4889  2.3888
17589TIP3   OH274181   4.896   5.435  16.993  0.1537 -0.1408 -0.2778
17589TIP3    H174182   4.967   5.394  17.041  0.3353  0.4856 -0.0080
17589TIP3    H274183   4.831   5.365  16.981  0.2197 -0.3668  0.6409
17590TIP3   OH274184   5.073   3.413   1.156 -0.4404 -0.8161  0.0418
17590TIP3    H174185   5.049   3.371   1.238  0.9677  1.0950  1.5290
17590TIP3    H274186   5.169   3.411   1.156 -0.3104 -3.3678 -3.0362
17591TIP3   OH274187   6.132   4.172   1.247  0.4760 -0.6161 -0.3085
17591TIP3    H174188   6.210   4.149   1.297 -0.0481 -1.0270  0.3314
17591TIP3    H274189   6.104   4.256   1.284  0.1044 -0.9061  0.0743
17592TIP3   OH274190   2.475   4.179  16.538  0.3065  0.5523  0.5046
17592TIP3    H174191   2.499   4.247  16.601  1.7309 -0.6068  1.2637
17592TIP3    H274192   2.547   4.177  16.475 -0.6473  1.0397 -0.6449
17593TIP3   OH274193   6.664   2.021   1.050 -0.2954 -0.2339 -1.2932
17593TIP3    H174194   6.615   1.939   1.060 -0.4949 -0.0777 -0.9745
17593TIP3    H274195   6.702   2.037   1.137 -1.2872  0.6647 -1.0085
17594TIP3   OH274196   0.600   0.524   1.627 -0.2420  0.4746 -0.3540
17594TIP3    H174197   0.557   0.489   1.705 -0.9196  1.7898 -0.1113
17594TIP3    H274198   0.666   0.583   1.661 -0.2242  0.6988 -0.7764
17595TIP3   OH274199   3.792   5.144  12.626  0.0621 -0.4300 -0.0980
17595TIP3    H174200   3.730   5.183  12.688 -0.5319 -1.5583  0.0526
17595TIP3    H274201   3.757   5.056  12.609  1.6647 -1.1349  0.0564
17596TIP3   OH274202   3.902   4.471  15.043  0.5280 -0.0885  0.0453
17596TIP3    H174203   3.936   4.538  15.102 -1.8501  0.3639  1.0347
17596TIP3    H274204   3.979   4.422  15.015  2.2269  2.3652  0.1134
17597TIP3   OH274205   4.298   4.401  13.337  0.3303  0.3505 -0.1036
17597TIP3    H174206   4.203   4.414  13.344  0.5062  2.9853 -1.4307
17597TIP3    H274207   4.332   4.486  13.309  2.8260 -1.1314 -2.0027
17598TIP3   OH274208   1.652   6.396   4.289  0.0835 -0.2110 -0.3493
17598TIP3    H174209   1.606   6.466   4.243  0.6609  0.5383  0.2044
17598TIP3    H274210   1.715   6.440   4.345  1.6036 -1.2249 -1.1796
17599TIP3   OH274211   0.137   0.343   5.121 -0.0662  0.1978  0.0045
17599TIP3    H174212   0.126   0.419   5.064  3.3229  0.6076 -0.3104
17599TIP3    H274213   0.172   0.378   5.203 -0.1825 -0.8405  0.5226
17600TIP3   OH274214   1.481   4.595  10.681  0.1024  0.0834 -0.3052
17600TIP3    H174215   1.468   4.680  10.722 -0.7055  0.2655 -0.9044
17600TIP3    H274216   1.537   4.613  10.605 -1.0605  0.3065 -1.1370
17601TIP3   OH274217   1.717   3.416   1.298 -0.0696  0.1546  0.2675
17601TIP3    H174218   1.757   3.385   1.379  0.3093 -0.8972 -0.3030
17601TIP3    H274219   1.652   3.480   1.326  1.2225  1.0666  1.3001
17602TIP3   OH274220   5.483   3.579   4.813  0.0576  0.4427  0.1251
17602TIP3    H174221   5.449   3.618   4.732  0.6197  0.9508  0.1248
17602TIP3    H274222   5.484   3.650   4.876 -2.9572 -0.5326  1.4570
17603TIP3   OH274223   1.775   2.911   2.654  0.2697 -0.0077 -0.2915
17603TIP3    H174224   1.707   2.892   2.589  0.1979  0.1660 -0.2692
17603TIP3    H274225   1.751   2.997   2.689 -0.8831 -0.9565  1.4396
17604TIP3   OH274226   1.587   4.519  14.046 -0.2261  0.3306  0.3939
17604TIP3    H174227   1.651   4.541  14.115 -0.7378  0.9908  0.6617
17604TIP3    H274228   1.639   4.515  13.966  0.5384 -1.3051  0.9267
17605TIP3   OH274229   5.826   2.086   3.383  0.2607 -0.2004  0.0281
17605TIP3    H174230   5.826   2.058   3.475  0.4423 -1.2615 -0.2820
17605TIP3    H274231   5.793   2.011   3.335 -0.7635  0.6789 -0.6957
17606TIP3   OH274232   5.249   0.698  12.109  0.8636 -0.6312 -0.6689
17606TIP3    H174233   5.205   0.759  12.169 -0.5099  0.6784 -2.8657
17606TIP3    H274234   5.333   0.679  12.151 -0.0499  0.1482  1.6699
17607TIP3   OH274235   1.475   1.342  11.746  0.1207  0.2047  0.4085
17607TIP3    H174236   1.457   1.435  11.738  0.4832  0.2866  0.5272
17607TIP3    H274237   1.397   1.299  11.711  1.4660  0.4987 -3.5289
17608TIP3   OH274238   1.393   1.676  15.903  0.4778 -0.2443  0.2183
17608TIP3    H174239   1.305   1.697  15.935 -0.1194 -0.7537 -1.0089
17608TIP3    H274240   1.378   1.626  15.823  1.8971 -0.6405  0.1699
17609TIP3   OH274241   0.889   1.753   1.782 -0.2758 -0.0623 -0.1716
17609TIP3    H174242   0.956   1.821   1.771  0.0403 -0.5251 -1.2731
17609TIP3    H274243   0.848   1.745   1.695 -0.6860 -0.8815  0.0826
17610TIP3   OH274244   2.836   0.750   5.798  0.2361  0.2243 -0.2989
17610TIP3    H174245   2.883   0.718   5.875 -1.0782  0.5230  0.6625
17610TIP3    H274246   2.791   0.829   5.829 -1.4918 -0.4668 -0.9764
17611TIP3   OH274247   0.274   5.384  15.662  0.0786 -0.3137 -0.2147
17611TIP3    H174248   0.309   5.298  15.636  2.0954  1.0003 -2.2251
17611TIP3    H274249   0.349   5.432  15.694 -1.0353  0.7445  0.9171
17612TIP3   OH274250   3.844   6.744  12.086 -0.3245 -0.0305 -0.1067
17612TIP3    H174251   3.799   6.673  12.039 -1.1700  1.7774 -2.2391
17612TIP3    H274252   3.873   6.803  12.017  0.9174  1.3927  1.5577
17613TIP3   OH274253   5.149   2.584  13.672 -0.0115  0.2464 -0.2760
17613TIP3    H174254   5.230   2.633  13.664 -0.1374  0.8403  1.5563
17613TIP3    H274255   5.173   2.505  13.721 -1.0117  2.0964  3.6284
17614TIP3   OH274256   3.739   3.656  16.089  0.2004 -0.1968 -0.6278
17614TIP3    H174257   3.795   3.694  16.021  1.5298  0.1662  0.6307
17614TIP3    H274258   3.658   3.706  16.085  1.1066  1.3340 -0.4539
17615TIP3   OH274259   6.041   5.828   0.292  0.3542 -0.5920 -0.1053
17615TIP3    H174260   6.029   5.759   0.357 -2.1928  0.1418  0.3138
17615TIP3    H274261   6.123   5.871   0.318  0.0874 -1.1480  1.8339
17616TIP3   OH274262   2.423   6.683   3.969  0.2262  1.0005  0.3184
17616TIP3    H174263   2.513   6.665   3.996  0.8203  2.2980 -0.6833
17616TIP3    H274264   2.420   6.778   3.958 -1.4489  1.0355  0.9323
17617TIP3   OH274265   1.224   4.925  10.390 -0.3007  0.5235 -0.5954
17617TIP3    H174266   1.188   4.927  10.301  1.3607 -1.1023 -1.3872
17617TIP3    H274267   1.267   4.840  10.396  0.8406  1.1684  1.2762
17618TIP3   OH274268   5.088   3.117  14.432 -0.1196 -0.0246  0.3348
17618TIP3    H174269   5.007   3.086  14.473 -0.3278  1.5846  1.2238
17618TIP3    H274270   5.059   3.157  14.349 -0.0231 -0.8529 -0.1106
17619TIP3   OH274271   1.294   5.604  15.946 -0.1321 -0.0637  0.1727
17619TIP3    H174272   1.336   5.686  15.972 -1.0123  0.2208  0.7270
17619TIP3    H274273   1.303   5.602  15.851  1.4374 -0.1903  0.3063
17620TIP3   OH274274   4.692   6.644   4.324 -1.1539 -0.3294  0.0195
17620TIP3    H174275   4.686   6.694   4.243 -1.1523 -1.4420 -0.6679
17620TIP3    H274276   4.633   6.690   4.384  0.1142  1.5192 -0.0450
17621TIP3   OH274277   1.846   3.750   4.195 -0.0515  0.7565  0.1716
17621TIP3    H174278   1.908   3.684   4.165  1.8168  2.2316  0.6070
17621TIP3    H274279   1.808   3.785   4.114  0.3953  0.5082 -0.1485
17622TIP3   OH274280   5.949   0.095  11.002 -0.0431  0.3135 -0.5788
17622TIP3    H174281   5.978   0.074  10.913  0.2032 -0.1405 -0.3904
17622TIP3    H274282   6.000   0.172  11.027 -1.9134  2.0772 -1.7909
17623TIP3   OH274283   3.131   2.489   6.324 -0.1306 -0.0418 -0.0923
17623TIP3    H174284   3.224   2.515   6.324 -0.1590  0.1019 -1.3456
17623TIP3    H274285   3.092   2.543   6.393 -0.2772  3.7184 -2.8328
17624TIP3   OH274286   4.214   2.865  13.941  0.2636  0.7448  0.7585
17624TIP3    H174287   4.282   2.926  13.969  0.4251  0.4733  0.9668
17624TIP3    H274288   4.155   2.917  13.886  2.2440  0.3552 -1.9599
17625TIP3   OH274289   5.015   2.669   5.337  0.4793  0.0500  0.3797
17625TIP3    H174290   5.069   2.626   5.404 -1.1653  0.2362  1.8750
17625TIP3    H274291   4.943   2.709   5.385  0.4733  2.2123 -1.2545
17626TIP3   OH274292   1.220   4.350  16.855  0.1015 -0.4751  0.3417
17626TIP3    H174293   1.237   4.440  16.827 -1.1578 -0.4524 -0.3822
17626TIP3    H274294   1.304   4.321  16.892  0.3129  1.2474  1.3315
17627TIP3   OH274295   5.850   5.732  13.153 -0.1397 -0.1056 -0.8349
17627TIP3    H174296   5.762   5.694  13.152 -0.1792 -0.0361 -0.3835
17627TIP3    H274297   5.892   5.698  13.074 -0.9608  0.8148 -1.6867
17628TIP3   OH274298   3.906   3.399  13.420  0.2115 -0.3971 -0.0772
17628TIP3    H174299   3.994   3.362  13.422  0.3838  0.0011 -0.1491
17628TIP3    H274300   3.892   3.423  13.328 -0.0308 -0.6009 -0.0951
17629TIP3   OH274301   5.304   4.091  14.282  0.1689  0.2770 -0.6523
17629TIP3    H174302   5.333   4.004  14.254 -0.9770 -0.2006 -0.3958
17629TIP3    H274303   5.375   4.149  14.254  1.2900 -0.8195 -0.1818
17630TIP3   OH274304   5.466   3.041   3.969 -0.3721 -0.5014  0.3717
17630TIP3    H174305   5.383   3.089   3.974 -0.1100 -0.1709  1.9497
17630TIP3    H274306   5.508   3.075   3.890 -0.6017  1.2339  0.9363
17631TIP3   OH274307   1.497   1.203  13.910 -0.6742  0.0145 -0.4799
17631TIP3    H174308   1.462   1.128  13.959 -1.3459  1.5005  1.4362
17631TIP3    H274309   1.591   1.199  13.925 -0.5885 -0.9442 -1.1700
17632TIP3   OH274310   4.271   3.856  14.902 -0.0252 -0.0759 -1.1193
17632TIP3    H174311   4.317   3.821  14.826 -1.3031 -0.9413 -1.5200
17632TIP3    H274312   4.178   3.845  14.882 -0.4790  2.2832 -0.6498
17633TIP3   OH274313   3.045   4.603  12.461  0.0132  0.2107  0.1224
17633TIP3    H174314   3.100   4.674  12.494  1.1363 -0.2054 -0.7990
17633TIP3    H274315   2.970   4.648  12.422  1.5649  1.0731 -2.0924
17634TIP3   OH274316   1.900   0.428   4.636 -0.0975  0.9012  0.1689
17634TIP3    H174317   1.822   0.382   4.667 -0.2958  1.4705  0.5159
17634TIP3    H274318   1.922   0.490   4.706  0.5625  0.8725 -0.0011
17635TIP3   OH274319   1.635   6.301  16.755  0.0136  0.1212  0.0745
17635TIP3    H174320   1.698   6.334  16.691  0.4357  1.1445  1.0011
17635TIP3    H274321   1.613   6.213  16.722  1.6642 -0.1429 -0.4529
17636TIP3   OH274322   6.683   1.631  12.241 -0.1636  0.0794 -0.4000
17636TIP3    H174323   6.692   1.655  12.149  3.5592  2.1123  0.2751
17636TIP3    H274324   6.734   1.550  12.249 -2.1094 -1.2103 -0.3714
17637TIP3   OH274325   3.205   2.981   6.266 -0.5551 -0.5811  0.1575
17637TIP3    H174326   3.196   2.981   6.170  0.2753  0.7956  0.0559
17637TIP3    H274327   3.294   2.952   6.282 -0.6576 -0.6995  0.5190
17638TIP3   OH274328   5.865   0.157  16.490  0.1198 -0.3801  0.0531
17638TIP3    H174329   5.928   0.159  16.561 -1.0639  0.1190  1.1195
17638TIP3    H274330   5.826   0.069  16.494  0.4830 -0.5660 -0.3807
17639TIP3   OH274331   1.694   1.137  15.947  0.4821  0.0265  0.3780
17639TIP3    H174332   1.766   1.186  15.987 -0.1794  0.2797  1.2975
17639TIP3    H274333   1.729   1.049  15.934  1.3441  0.4535 -0.3243
17640TIP3   OH274334   1.336   6.059   1.167 -0.0035 -0.2295  0.6672
17640TIP3    H174335   1.245   6.033   1.157  0.3558 -1.7535  1.0613
17640TIP3    H274336   1.341   6.095   1.256 -0.5943  1.6733 -0.0320
17641TIP3   OH274337   3.102   2.133  16.323  0.0190  0.1199  0.2240
17641TIP3    H174338   3.039   2.177  16.381 -0.4900 -0.5348  0.1774
17641TIP3    H274339   3.053   2.062  16.283  1.2089 -1.5315  1.5296
17642TIP3   OH274340   6.483   2.270  13.099 -0.2958  0.0618  0.4495
17642TIP3    H174341   6.493   2.252  13.193 -0.5830 -0.5434  0.3720
17642TIP3    H274342   6.544   2.211  13.056  0.0287  0.5264  0.2605
17643TIP3   OH274343   6.134   5.164   0.754 -0.0705  0.2471  0.2802
17643TIP3    H174344   6.139   5.259   0.757 -0.3671  0.2992 -0.5960
17643TIP3    H274345   6.068   5.145   0.688  1.9628 -0.5728 -1.6714
17644TIP3   OH274346   5.539   5.124   5.737 -0.9603 -0.0610  0.1181
17644TIP3    H174347   5.495   5.151   5.817 -2.4249 -0.1945 -0.6087
17644TIP3    H274348   5.579   5.204   5.703 -0.8905  0.1257  0.6390
17645TIP3   OH274349   6.394   0.558   5.464 -0.3979 -0.4132  0.2015
17645TIP3    H174350   6.359   0.645   5.444  0.7741 -0.0705 -0.4916
17645TIP3    H274351   6.432   0.568   5.552  0.6051  0.0732 -0.2719
17646TIP3   OH274352   2.183   6.043  16.755  0.6188  0.2622 -0.3679
17646TIP3    H174353   2.274   6.042  16.785  0.4982  0.5687  0.0179
17646TIP3    H274354   2.134   6.001  16.826  0.2352  1.6342  0.2203
17647TIP3   OH274355   3.293   6.227   3.532 -0.0645 -0.2531 -0.3925
17647TIP3    H174356   3.282   6.300   3.471  0.3819 -0.1666 -0.3693
17647TIP3    H274357   3.209   6.181   3.530 -0.5451  0.5809  0.0049
17648TIP3   OH274358   1.490   0.014   1.023 -0.0599 -0.1260 -0.1326
17648TIP3    H174359   1.441   0.074   1.079  0.9948  0.3731  0.2889
17648TIP3    H274360   1.428  -0.055   1.001 -0.7981  0.2233  0.7910
17649TIP3   OH274361   5.200   3.004  16.784  0.2633  0.0658  0.5957
17649TIP3    H174362   5.190   3.070  16.853  1.7000 -1.1452  2.0658
17649TIP3    H274363   5.113   2.994  16.747 -0.0908  2.4237  0.6255
17650TIP3   OH274364   2.779   4.396   6.230  0.4239  0.4394  0.1142
17650TIP3    H174365   2.861   4.446   6.225  2.1443 -2.2721 -1.1452
17650TIP3    H274366   2.780   4.356   6.317 -0.2605  1.4056  0.5883
17651TIP3   OH274367   5.517   5.476   5.373  0.2562 -0.1357  0.7969
17651TIP3    H174368   5.612   5.488   5.374  0.2533 -0.1189  1.8014
17651TIP3    H274369   5.504   5.394   5.326  0.4897  1.8546 -3.1094
17652TIP3   OH274370   6.092   5.706  16.249 -0.6870 -0.0196 -0.0027
17652TIP3    H174371   6.186   5.692  16.238 -0.7563 -0.8707  0.4060
17652TIP3    H274372   6.085   5.789  16.295 -0.0973 -0.2956  0.5997
17653TIP3   OH274373   3.131   3.106  12.746 -0.3827 -0.2123 -0.1506
17653TIP3    H174374   3.179   3.094  12.664  1.1784  0.8966  0.5381
17653TIP3    H274375   3.089   3.192  12.737 -0.3320 -0.1535  0.1542
17654TIP3   OH274376   0.317   2.667  17.022  0.6089 -0.0901 -0.3595
17654TIP3    H174377   0.261   2.590  17.010  1.6538 -0.7587 -1.1969
17654TIP3    H274378   0.358   2.654  17.107 -1.2731  0.9488  0.7678
17655TIP3   OH274379   5.451   3.482   0.026 -0.2640 -0.0952  0.1927
17655TIP3    H174380   5.504   3.414   0.068 -1.0941 -1.0135 -0.2230
17655TIP3    H274381   5.397   3.517   0.097  0.7886  0.7653  0.5953
17656TIP3   OH274382   2.211   4.568  14.519  0.5179  0.1606 -0.3171
17656TIP3    H174383   2.254   4.543  14.437 -0.4312  0.3804 -0.8921
17656TIP3    H274384   2.181   4.485  14.556 -0.6222  0.1982 -1.0965
17657TIP3   OH274385   3.725   3.512   4.408  0.2304  0.6575  0.4595
17657TIP3    H174386   3.785   3.582   4.383  0.0295  0.7792  0.3098
17657TIP3    H274387   3.638   3.550   4.396  0.1261  0.5628  0.9120
17658TIP3   OH274388   3.169   5.987   3.911  0.0262 -0.1573 -0.2151
17658TIP3    H174389   3.256   5.986   3.872  0.3341 -0.2323  0.4538
17658TIP3    H274390   3.121   6.052   3.860  0.4243 -0.2295 -0.6919
17659TIP3   OH274391   1.649   6.636  10.828  0.3948 -0.2213  0.1861
17659TIP3    H174392   1.723   6.583  10.856  0.0721 -0.8605 -0.1246
17659TIP3    H274393   1.620   6.594  10.746  0.3600  0.6634 -0.2640
17660TIP3   OH274394   0.851   0.222   5.416  0.2392  0.0869 -0.4113
17660TIP3    H174395   0.864   0.286   5.346 -0.6335  0.8586  0.0874
17660TIP3    H274396   0.852   0.137   5.373  0.5528  0.4962 -1.2252
17661TIP3   OH274397   2.263   4.947   5.817 -0.6077  0.2957 -0.4319
17661TIP3    H174398   2.267   4.988   5.903  1.1789 -4.1140  1.9165
17661TIP3    H274399   2.354   4.950   5.786 -0.6433 -0.8446 -0.6723
17662TIP3   OH274400   6.166   6.718  10.761  0.2369 -0.3468 -0.0987
17662TIP3    H174401   6.125   6.698  10.844  2.6736  0.7562  1.4921
17662TIP3    H274402   6.162   6.813  10.754  0.2568 -0.4088 -1.1485
17663TIP3   OH274403   4.760   5.133   5.133  0.0930 -0.2792  0.3101
17663TIP3    H174404   4.683   5.180   5.101 -1.0903 -0.9587  2.0247
17663TIP3    H274405   4.831   5.161   5.075 -0.8109  2.6202  0.4511
17664TIP3   OH274406   1.405   3.181  11.879 -0.1779  0.1059  0.5388
17664TIP3    H174407   1.487   3.230  11.884 -0.6214  1.0167 -0.5929
17664TIP3    H274408   1.401   3.152  11.788 -0.9852 -0.1605  0.6546
17665TIP3   OH274409   3.538   2.748  15.157 -0.5709  0.0710  0.4643
17665TIP3    H174410   3.472   2.691  15.196 -0.6273 -0.2525 -0.0939
17665TIP3    H274411   3.488   2.819  15.116 -0.5786 -0.2223 -0.0360
17666TIP3   OH274412   0.943   6.199   6.346 -0.3739  0.4763  0.4075
17666TIP3    H174413   0.888   6.189   6.424 -0.7753  0.6042  0.1427
17666TIP3    H274414   0.996   6.119   6.344  0.6764  1.1084  1.6098
17667TIP3   OH274415   4.944   3.390  12.705 -0.1492 -0.3298  0.2173
17667TIP3    H174416   5.024   3.372  12.657  0.5078  0.4392  1.0084
17667TIP3    H274417   4.891   3.442  12.645  1.1239  1.5916  0.6851
17668TIP3   OH274418   3.144   5.804   4.576  0.0166 -0.1597  0.0986
17668TIP3    H174419   3.113   5.893   4.561 -1.4083 -0.8841 -1.6281
17668TIP3    H274420   3.165   5.801   4.670 -0.0288  1.9316  0.2124
17669TIP3   OH274421   1.079   5.784  15.100  0.1083  0.2523 -0.2065
17669TIP3    H174422   1.079   5.803  15.194  0.3672  2.5812 -0.6361
17669TIP3    H274423   1.171   5.780  15.076  0.0457 -0.5128 -0.3669
17670TIP3   OH274424   2.573   5.804  16.454  0.3706  0.0882  0.0541
17670TIP3    H174425   2.632   5.875  16.432 -0.4789  0.5545 -0.7865
17670TIP3    H274426   2.486   5.844  16.457 -0.2141 -1.0060 -1.0813
17671TIP3   OH274427   3.429   5.743   3.323  1.1206 -0.1726  0.1234
17671TIP3    H174428   3.438   5.832   3.357  1.5932 -0.4545  0.7623
17671TIP3    H274429   3.514   5.722   3.285 -0.0043  0.9566 -3.4216
17672TIP3   OH274430   1.136   3.397  12.170 -0.9597  0.0025  0.2947
17672TIP3    H174431   1.110   3.460  12.237 -1.6663 -0.3461  0.3608
17672TIP3    H274432   1.206   3.346  12.210  0.0019  1.0814  0.0518
17673TIP3   OH274433   5.975   4.933  13.399 -0.0048 -0.3256 -0.4337
17673TIP3    H174434   5.911   4.942  13.328 -0.0644  0.6919 -0.2599
17673TIP3    H274435   5.923   4.902  13.473 -0.1548 -0.2641 -0.5110
17674TIP3   OH274436   4.839   2.135  15.813 -0.2611 -0.1618  0.4420
17674TIP3    H174437   4.832   2.172  15.901  2.6832  2.3399 -0.1856
17674TIP3    H274438   4.921   2.085  15.815  0.3074  0.6598 -1.0543
17675TIP3   OH274439   6.682   0.341  11.161 -0.4071 -0.1328 -0.4571
17675TIP3    H174440   6.758   0.399  11.175 -1.7564  1.7420 -0.4753
17675TIP3    H274441   6.613   0.400  11.129 -1.6609 -1.9104 -1.1537
17676TIP3   OH274442   2.400   4.150  12.159 -0.0103  0.6984 -0.3349
17676TIP3    H174443   2.420   4.069  12.112 -1.4377  0.8812 -1.3400
17676TIP3    H274444   2.473   4.209  12.139  0.5278  0.0121 -0.4341
17677TIP3   OH274445   3.069   0.338  10.817  0.1908  0.5334  0.2066
17677TIP3    H174446   3.130   0.264  10.818  1.2200  1.3636  0.1801
17677TIP3    H274447   3.116   0.409  10.860 -0.3556  1.5034 -0.7403
17678TIP3   OH274448   5.517   6.615   0.666  0.5666  0.4477  0.0079
17678TIP3    H174449   5.498   6.601   0.759 -0.6152 -0.1295 -0.3021
17678TIP3    H274450   5.570   6.540   0.641  0.2416  0.2010  0.0459
17679TIP3   OH274451   3.768   4.995  11.462 -0.1348 -0.4527  0.0343
17679TIP3    H174452   3.849   4.967  11.419 -1.2611 -1.2594 -1.6593
17679TIP3    H274453   3.789   4.993  11.556  1.5830 -1.3351 -0.3224
17680TIP3   OH274454   0.727   2.831  16.235  0.3661 -0.6787  0.7977
17680TIP3    H174455   0.688   2.918  16.245 -0.9724 -1.1648  0.1378
17680TIP3    H274456   0.740   2.800  16.324 -0.1829 -0.2227  1.0469
17681TIP3   OH274457   6.028   5.594   5.064  0.2287  0.5294  0.3882
17681TIP3    H174458   5.985   5.563   5.144  1.2355  0.9224  1.0983
17681TIP3    H274459   6.014   5.689   5.064 -1.1763  0.3610 -0.7748
17682TIP3   OH274460   1.355   4.315   4.161  0.4679  0.0340 -0.9231
17682TIP3    H174461   1.260   4.329   4.153  0.3543 -0.4763 -0.5210
17682TIP3    H274462   1.386   4.394   4.205 -0.0411 -0.5296  0.5201
17683TIP3   OH274463   0.777   1.139   4.433  0.1411 -0.1039  0.6523
17683TIP3    H174464   0.838   1.130   4.360 -1.0862 -0.3896 -0.3715
17683TIP3    H274465   0.788   1.058   4.483  0.2034 -0.3996  0.1655
17684TIP3   OH274466   2.094   2.250   5.708  0.0845 -0.2239  0.5925
17684TIP3    H174467   2.099   2.189   5.782  1.2735 -0.3782  0.3909
17684TIP3    H274468   2.161   2.221   5.647  1.4861  1.9579  0.9896
17685TIP3   OH274469   3.748   5.235   2.014 -0.0352  0.0633 -0.7905
17685TIP3    H174470   3.695   5.245   2.094  0.8579 -0.2931 -0.1389
17685TIP3    H274471   3.720   5.308   1.958  1.1739  1.9761  0.9157
17686TIP3   OH274472   3.595   1.798   0.513  0.0084 -0.1363 -0.3186
17686TIP3    H174473   3.650   1.791   0.435  0.3907 -0.0108 -0.0618
17686TIP3    H274474   3.561   1.709   0.526  0.5786 -0.3359 -0.1671
17687TIP3   OH274475   5.816   0.293   3.900  0.2836  0.1064  0.1394
17687TIP3    H174476   5.865   0.228   3.950 -0.8217  0.7329  2.1934
17687TIP3    H274477   5.883   0.343   3.853  1.3151 -1.0834  0.2971
17688TIP3   OH274478   6.377   3.013  14.167  0.6345 -0.0247  0.4701
17688TIP3    H174479   6.338   3.057  14.243 -0.1851 -0.9101  0.5760
17688TIP3    H274480   6.464   2.987  14.197  1.0871  1.3669  0.4530
17689TIP3   OH274481   1.211   3.266   1.581 -0.1136 -0.4089 -0.4904
17689TIP3    H174482   1.157   3.250   1.503 -0.3880 -1.2451 -0.1424
17689TIP3    H274483   1.151   3.259   1.654  0.4635 -1.4374 -0.0879
17690TIP3   OH274484   4.965   3.199  11.803  0.2437 -0.0019  0.0419
17690TIP3    H174485   5.036   3.148  11.764  0.1377 -1.6114  1.7975
17690TIP3    H274486   4.941   3.262  11.735  0.2619 -2.4000 -2.3787
17691TIP3   OH274487   0.270   3.653   3.869  0.0704  0.5618  0.1367
17691TIP3    H174488   0.310   3.650   3.956 -0.5891 -3.5940  0.5139
17691TIP3    H274489   0.344   3.653   3.809  0.5220  2.2283  0.6305
17692TIP3   OH274490   0.342   0.655  14.411  0.8863 -0.1191  0.4088
17692TIP3    H174491   0.341   0.644  14.316 -0.7440  1.3376  0.2025
17692TIP3    H274492   0.308   0.572  14.445  0.8116 -0.3997 -0.3245
17693TIP3   OH274493   4.198   3.180  13.206  0.5550  0.5077 -0.2792
17693TIP3    H174494   4.275   3.216  13.161  0.1646  0.4965 -0.9641
17693TIP3    H274495   4.187   3.093  13.169  1.4697 -0.3357  1.3530
17694TIP3   OH274496   1.008   4.758  16.689 -0.6374  0.0205  0.1302
17694TIP3    H174497   1.064   4.714  16.753 -0.2209  0.4343  0.0496
17694TIP3    H274498   1.056   4.837  16.665 -0.9824  0.0751 -0.3851
17695TIP3   OH274499   6.182   4.167  12.040 -0.1696 -0.0409  0.2224
17695TIP3    H174500   6.274   4.141  12.038  0.8589  3.1557 -0.3296
17695TIP3    H274501   6.156   4.170  11.948 -0.0963  1.1151  0.2153
17696TIP3   OH274502   2.710   5.024   3.326  0.4207  0.4106  0.0487
17696TIP3    H174503   2.724   4.964   3.400 -1.0175 -0.3206 -0.2518
17696TIP3    H274504   2.638   4.986   3.277  0.5753  1.5248 -1.0929
17697TIP3   OH274505   2.943   0.654   6.035  0.2580  0.0451 -0.4116
17697TIP3    H174506   3.000   0.639   6.111 -0.2587  1.5946  0.3254
17697TIP3    H274507   2.855   0.631   6.066  0.0081  0.9278 -0.4523
17698TIP3   OH274508   2.846   4.109   5.446 -0.0124  0.3538 -0.0500
17698TIP3    H174509   2.884   4.103   5.534  0.1591  0.6866 -0.0995
17698TIP3    H274510   2.752   4.102   5.461 -0.0691  1.5643  0.2892
17699TIP3   OH274511   5.846   1.631  10.647 -0.0279 -0.0333  0.1873
17699TIP3    H174512   5.936   1.601  10.653  0.3848  1.0273 -0.3936
17699TIP3    H274513   5.821   1.618  10.556 -0.6727 -0.8768  0.4768
17700TIP3   OH274514   5.722   2.895  12.299 -0.2909 -0.3898  0.3254
17700TIP3    H174515   5.627   2.903  12.291 -0.3664  2.8251  2.7211
17700TIP3    H274516   5.736   2.870  12.391  1.1852 -0.8336  0.0013
17701TIP3   OH274517   1.723   4.410  13.278 -0.3100 -0.3007 -0.2586
17701TIP3    H174518   1.628   4.420  13.287 -0.1370  2.6546 -0.5446
17701TIP3    H274519   1.750   4.364  13.358 -1.8312  0.1861  0.5860
17702TIP3   OH274520   2.939   4.710   3.666 -0.4340 -0.4228  0.3881
17702TIP3    H174521   3.001   4.670   3.726  0.9269  0.6025 -0.2927
17702TIP3    H274522   2.993   4.759   3.604 -1.8492 -0.6468 -1.0794
17703TIP3   OH274523   1.374   2.583  11.331 -0.2835  0.5444 -0.0213
17703TIP3    H174524   1.310   2.650  11.353 -0.4219  0.1896  0.7111
17703TIP3    H274525   1.322   2.506  11.309 -0.1206  0.5600 -0.4814
17704TIP3   OH274526   4.410   4.075   2.948  0.6821 -0.2331  0.3006
17704TIP3    H174527   4.382   4.146   2.891  1.1143  2.0336  2.7532
17704TIP3    H274528   4.503   4.065   2.930  0.4103 -0.9451 -0.7900
17705TIP3   OH274529   5.476   3.098   3.393 -0.2217 -0.1777 -0.4412
17705TIP3    H174530   5.413   3.151   3.344 -0.3948 -1.0309 -1.1632
17705TIP3    H274531   5.467   3.010   3.357  0.8279 -0.4828 -0.0082
17706TIP3   OH274532   2.570   3.429   1.069  0.0159 -0.0622  0.1200
17706TIP3    H174533   2.648   3.374   1.079  1.9203  1.8395 -2.7048
17706TIP3    H274534   2.597   3.514   1.104 -1.0459  0.4392 -0.2458
17707TIP3   OH274535   3.181   4.712  15.785  0.0453  0.9961 -0.1502
17707TIP3    H174536   3.087   4.723  15.771  0.1790  0.2972 -1.8918
17707TIP3    H274537   3.191   4.619  15.807  0.2715  1.2242  0.7508
17708TIP3   OH274538   6.076   5.091  14.635  0.0461 -0.5844 -0.0356
17708TIP3    H174539   5.982   5.109  14.644  0.0392  0.2564 -1.4513
17708TIP3    H274540   6.095   5.027  14.704 -1.5969 -0.9074  0.1579
17709TIP3   OH274541   0.283   0.395  12.068  0.0366  0.2265 -0.4137
17709TIP3    H174542   0.262   0.419  11.978 -0.2634  0.9196 -0.1736
17709TIP3    H274543   0.365   0.442  12.086  0.2743 -0.1821 -0.4362
17710TIP3   OH274544   5.893   5.018  16.961  0.1338  0.3989 -0.0089
17710TIP3    H174545   5.834   4.963  17.012 -0.0919  0.6551  0.0127
17710TIP3    H274546   5.891   4.982  16.872 -1.4555  1.4761 -0.4401
17711TIP3   OH274547   5.204   1.061  13.160 -0.3547 -0.1052 -0.3612
17711TIP3    H174548   5.198   1.147  13.117 -3.8173 -0.6953 -1.4080
17711TIP3    H274549   5.202   0.998  13.088  1.3250 -1.1214  0.4326
17712TIP3   OH274550   2.693   5.080   0.380 -0.0320  0.3837  0.4557
17712TIP3    H174551   2.643   5.003   0.406  0.0031  0.9096  2.1848
17712TIP3    H274552   2.758   5.046   0.318  0.6443 -1.1776  1.9447
17713TIP3   OH274553   1.783   6.560  14.523  0.0829 -0.2710 -0.1543
17713TIP3    H174554   1.777   6.542  14.617  1.3318  1.3470  0.2756
17713TIP3    H274555   1.868   6.525  14.497  0.6732  1.1482 -0.1997
17714TIP3   OH274556   3.254   0.601   0.005 -0.2587 -0.3971  0.2166
17714TIP3    H174557   3.290   0.630  -0.079  2.8385  1.2501  1.9291
17714TIP3    H274558   3.215   0.680   0.043  0.3216 -0.5807  1.2298
17715TIP3   OH274559   2.832   2.048  11.873 -0.5080  0.2495 -0.1391
17715TIP3    H174560   2.920   2.070  11.844  0.1566 -2.6912 -0.6459
17715TIP3    H274561   2.834   2.060  11.968  0.8873 -1.0378  0.0262
17716TIP3   OH274562   3.084   0.715  13.276  0.2545  0.2030 -0.5029
17716TIP3    H174563   3.157   0.707  13.215  1.6042 -0.5215  1.1161
17716TIP3    H274564   3.010   0.672  13.232  0.7942  0.8682 -2.1372
17717TIP3   OH274565   4.025   6.657   3.269 -0.0008  0.1731 -0.8691
17717TIP3    H174566   4.062   6.741   3.295 -1.0805 -0.2198  2.4510
17717TIP3    H274567   3.944   6.680   3.223 -1.9800  1.1665  2.7124
17718TIP3   OH274568   3.730   0.986   3.844  1.2347 -0.2978 -0.1019
17718TIP3    H174569   3.720   1.073   3.884 -1.1534 -1.2043  1.4794
17718TIP3    H274570   3.656   0.979   3.784  1.0243 -1.4680  0.2773
17719TIP3   OH274571   2.075   2.554   5.603  0.2136  0.2950  0.2375
17719TIP3    H174572   2.064   2.617   5.674 -1.4348 -0.9392  1.1522
17719TIP3    H274573   2.087   2.470   5.648 -1.7599 -0.6490 -0.9052
17720TIP3   OH274574   3.897   3.604   0.416  0.6883  0.6759  0.1952
17720TIP3    H174575   3.835   3.653   0.362  0.0397  1.5349  1.6573
17720TIP3    H274576   3.958   3.670   0.450  2.1069 -0.0794 -0.7728
17721TIP3   OH274577   2.886   4.420  12.000 -0.1807  0.6086 -0.2005
17721TIP3    H174578   2.896   4.489  11.935 -1.3606  0.9364 -0.0556
17721TIP3    H274579   2.929   4.343  11.960  0.9080  1.3299 -0.4676
17722TIP3   OH274580   4.414   3.849   5.235  0.2013 -0.7458  0.2207
17722TIP3    H174581   4.463   3.865   5.315 -0.3132  1.1875  0.1863
17722TIP3    H274582   4.332   3.808   5.265  0.1576 -0.3449  0.6572
17723TIP3   OH274583   3.073   4.806  14.223 -0.2309 -0.1247  0.2223
17723TIP3    H174584   3.096   4.899  14.220 -1.1484  0.1166  0.4125
17723TIP3    H274585   3.120   4.767  14.149 -0.9791  0.7618 -0.7417
17724TIP3   OH274586   5.221   0.861  15.122  0.6444  0.0218 -0.1314
17724TIP3    H174587   5.272   0.914  15.183  0.1295  0.1318  0.2110
17724TIP3    H274588   5.282   0.793  15.092  1.3909  0.9358 -0.7643
17725TIP3   OH274589   0.143   1.955   0.020  0.3325 -0.4687  0.6939
17725TIP3    H174590   0.196   1.965   0.099  0.5758 -0.2624  0.5094
17725TIP3    H274591   0.063   2.004   0.037  0.0127 -1.1371  1.1391
17726TIP3   OH274592   0.986   4.561   2.927  0.1694 -0.0324 -0.0512
17726TIP3    H174593   0.967   4.591   3.016  3.4265  1.3520  0.3260
17726TIP3    H274594   1.032   4.478   2.940 -0.5123 -0.5011 -0.5678
17727TIP3   OH274595   2.819   2.562   1.385 -0.3523  0.0249 -0.2329
17727TIP3    H174596   2.843   2.473   1.360 -0.6844  0.0075 -0.4941
17727TIP3    H274597   2.868   2.578   1.466 -1.5917 -1.0166  0.7796
17728TIP3   OH274598   5.910   0.596  16.185  0.2500 -0.2977  0.4472
17728TIP3    H174599   6.001   0.582  16.212  0.1762 -1.4707  0.1266
17728TIP3    H274600   5.917   0.659  16.113  0.7067  0.4410  1.1195
17729TIP3   OH274601   1.756   6.315   2.859  0.3930 -0.0087 -0.0565
17729TIP3    H174602   1.703   6.394   2.850  0.9304  0.4247  0.4835
17729TIP3    H274603   1.796   6.302   2.773 -1.6111 -1.1063 -0.8835
17730TIP3   OH274604   4.252   6.548   5.098 -0.2036  0.3106 -0.2162
17730TIP3    H174605   4.247   6.453   5.091  1.4100  0.2454 -0.9843
17730TIP3    H274606   4.160   6.577   5.103 -0.8953 -1.0978 -2.9339
17731TIP3   OH274607   2.951   0.391  11.993  0.0730  0.2749 -0.3482
17731TIP3    H174608   2.974   0.360  11.905 -0.9667 -0.7936 -0.2649
17731TIP3    H274609   2.939   0.485  11.982  0.4203  0.2323 -1.2394
17732TIP3   OH274610   6.046   0.575   1.764  0.2018 -0.1937 -0.0675
17732TIP3    H174611   6.103   0.520   1.818  0.6433  2.3253  2.2501
17732TIP3    H274612   5.957   0.554   1.794  0.3102 -0.2032  0.2510
17733TIP3   OH274613   6.047   4.968  15.808  0.1804  0.2488  0.3684
17733TIP3    H174614   5.977   4.937  15.866 -0.3205  2.4293  1.0661
17733TIP3    H274615   6.126   4.965  15.861  0.1681 -0.0462  0.3655
17734TIP3   OH274616   6.599   3.307  14.744  0.0206 -0.0397  0.3527
17734TIP3    H174617   6.576   3.399  14.734  0.9646  0.4243  2.0369
17734TIP3    H274618   6.536   3.273  14.808  0.0086 -0.4121  0.1436
17735TIP3   OH274619   5.086   1.536  12.891  0.1939 -1.1297 -0.4418
17735TIP3    H174620   5.020   1.488  12.842 -1.4544  0.7695 -0.1695
17735TIP3    H274621   5.037   1.595  12.948  2.1115 -0.1827  0.3405
17736TIP3   OH274622   1.710   4.592  15.906 -0.4086  0.3526 -0.3406
17736TIP3    H174623   1.627   4.593  15.954  0.1743  0.3448  0.7026
17736TIP3    H274624   1.765   4.653  15.954  1.1708 -1.8486  0.7747
17737TIP3   OH274625   1.474   5.459   4.895 -0.3410 -0.0010 -0.3838
17737TIP3    H174626   1.465   5.387   4.958 -2.0824  1.0787  0.6912
17737TIP3    H274627   1.560   5.496   4.913  0.7974 -2.0344 -1.2631
17738TIP3   OH274628   2.635   0.457   1.834 -0.2920  0.1569 -0.4488
17738TIP3    H174629   2.704   0.516   1.804  0.6436  0.0138  1.3151
17738TIP3    H274630   2.633   0.387   1.768  0.9509  0.3914 -0.7484
17739TIP3   OH274631   5.166   5.153   5.155 -0.5034 -0.1737  0.4156
17739TIP3    H174632   5.159   5.159   5.059 -0.4687 -1.3130  0.3284
17739TIP3    H274633   5.099   5.213   5.187 -1.3528 -0.6851 -0.3394
17740TIP3   OH274634   3.460   6.037   0.621 -0.1553  0.2375 -0.9599
17740TIP3    H174635   3.444   6.130   0.638 -2.4556 -0.0495 -1.2224
17740TIP3    H274636   3.465   5.998   0.708  0.8316  0.5804 -0.8481
17741TIP3   OH274637   5.936   4.652   6.351 -0.3657 -0.2650  0.0907
17741TIP3    H174638   5.898   4.566   6.372 -0.4388 -0.6420 -1.4976
17741TIP3    H274639   5.997   4.635   6.280  1.7790  0.5818  1.6288
17742TIP3   OH274640   0.834   0.534  13.117  0.3924  0.3900  0.4317
17742TIP3    H174641   0.842   0.617  13.069  0.6364 -0.1572 -0.5098
17742TIP3    H274642   0.740   0.519  13.123  0.3557  0.4872  0.1463
17743TIP3   OH274643   4.672   3.120  13.173  0.0939  0.6028 -0.0751
17743TIP3    H174644   4.729   3.187  13.211  0.3240  0.5200 -0.2745
17743TIP3    H274645   4.682   3.044  13.231  1.0193  0.2254 -0.7087
17744TIP3   OH274646   6.484   6.304   5.382 -0.2047  0.1538  0.2381
17744TIP3    H174647   6.453   6.225   5.337 -0.1960  0.5949 -0.5588
17744TIP3    H274648   6.513   6.272   5.468 -1.0006 -0.5734  0.2601
17745TIP3   OH274649   5.543   2.876   2.654 -0.1426  0.4933  0.2817
17745TIP3    H174650   5.465   2.894   2.602  0.1035  0.3680 -0.1363
17745TIP3    H274651   5.599   2.952   2.640  0.6510 -0.2868 -1.0244
17746TIP3   OH274652   4.824   6.108   5.103  0.3609  0.1419  0.0895
17746TIP3    H174653   4.753   6.091   5.165  1.7443 -0.3317  1.6146
17746TIP3    H274654   4.783   6.161   5.035 -1.4676 -0.1660  0.8703
17747TIP3   OH274655   1.619   3.744   4.363 -0.4938 -0.0136  0.4259
17747TIP3    H174656   1.701   3.719   4.321 -1.2347 -2.3205  0.2489
17747TIP3    H274657   1.643   3.816   4.422  1.5828 -0.4454  0.1647
17748TIP3   OH274658   4.693   6.444   0.978 -0.0653 -0.2146 -0.8507
17748TIP3    H174659   4.661   6.517   1.032  0.0968 -0.4655 -0.4065
17748TIP3    H274660   4.661   6.366   1.024  1.3239 -0.4795 -0.3065
17749TIP3   OH274661   3.135   0.870  16.311 -0.2372  0.4537  0.0020
17749TIP3    H174662   3.124   0.962  16.286  0.0199  0.2798 -0.8109
17749TIP3    H274663   3.105   0.821  16.235  0.5540 -0.1114  0.0330
17750TIP3   OH274664   6.214   6.048   1.425 -0.4444 -0.1936  0.0555
17750TIP3    H174665   6.214   5.954   1.444  0.9312 -0.7231 -2.2167
17750TIP3    H274666   6.302   6.066   1.390 -0.5455  2.0351  0.7649
17751TIP3   OH274667   5.374   0.889  13.907 -0.5211  0.0827 -1.1555
17751TIP3    H174668   5.281   0.906  13.918 -0.2419  0.0606  2.1387
17751TIP3    H274669   5.414   0.975  13.899 -0.4852  0.4735  1.9265
17752TIP3   OH274670   4.134   4.676  15.495 -0.0485 -0.1198  0.1705
17752TIP3    H174671   4.062   4.713  15.546  1.7616  1.5885  1.6847
17752TIP3    H274672   4.172   4.610  15.553  0.8464  0.4662  0.2679
17753TIP3   OH274673   1.156   0.744   3.477  0.3124 -0.4805 -0.0104
17753TIP3    H174674   1.181   0.659   3.514 -0.3960 -1.1932 -1.0868
17753TIP3    H274675   1.182   0.738   3.385 -0.6896  0.0530 -0.3435
17754TIP3   OH274676   4.826   2.947   1.189  0.2475 -0.0793 -0.1343
17754TIP3    H174677   4.746   2.999   1.194 -0.7370 -1.0956 -3.1850
17754TIP3    H274678   4.815   2.894   1.111  3.3007 -1.3731  0.1826
17755TIP3   OH274679   4.493   3.542  12.297  0.4704  0.0589  0.0839
17755TIP3    H174680   4.479   3.592  12.217 -0.6900 -0.3804  0.0044
17755TIP3    H274681   4.562   3.480  12.275  3.0200  2.4863  0.5897
17756TIP3   OH274682   5.034   0.078   5.949 -0.1072 -0.0894  0.2987
17756TIP3    H174683   5.028   0.095   5.855  0.6104  0.9180  0.4194
17756TIP3    H274684   5.002   0.159   5.990  0.5245 -0.1333  0.9071
17757TIP3   OH274685   4.816   6.414   1.623  0.4809  0.1583 -0.4509
17757TIP3    H174686   4.825   6.349   1.692 -1.2271 -0.4911 -0.7826
17757TIP3    H274687   4.830   6.498   1.666  1.5668 -0.3604  0.2241
17758TIP3   OH274688   1.427   3.310  14.049  0.3134 -0.6016  0.0301
17758TIP3    H174689   1.462   3.351  13.970  1.1449  0.0471  0.7157
17758TIP3    H274690   1.424   3.381  14.113  1.1503 -1.4490  1.0523
17759TIP3   OH274691   2.806   1.759  12.933  0.2977  0.2743  0.1993
17759TIP3    H174692   2.893   1.787  12.904 -0.2362  0.9448 -0.8493
17759TIP3    H274693   2.822   1.680  12.984  1.3791 -0.8147 -1.6833
17760TIP3   OH274694   0.837   2.330   2.329  0.8001 -0.1010  0.3451
17760TIP3    H174695   0.802   2.246   2.358  1.3613 -0.3761  0.2407
17760TIP3    H274696   0.910   2.307   2.271  0.3285  0.4431 -0.4900
17761TIP3   OH274697   4.250   0.619   4.308  0.5446  0.1385  0.3251
17761TIP3    H174698   4.156   0.603   4.317  0.5355 -0.1566 -0.2086
17761TIP3    H274699   4.266   0.616   4.214  1.4593 -2.1148  0.4806
17762TIP3   OH274700   0.278   4.068  17.000  0.1609 -0.4237  0.2755
17762TIP3    H174701   0.203   4.069  17.060  0.9180  0.1199  1.2544
17762TIP3    H274702   0.354   4.075  17.058  0.8670  1.8352 -0.8214
17763TIP3   OH274703   3.276   0.062  14.761 -0.6382 -0.0646 -0.8167
17763TIP3    H174704   3.368   0.037  14.751 -0.4786  0.3136 -0.3103
17763TIP3    H274705   3.232   0.017  14.689 -0.1117 -0.5241 -0.8637
17764TIP3   OH274706   0.752   4.179  12.137 -0.5898 -0.2433 -0.5634
17764TIP3    H174707   0.835   4.220  12.112 -0.8087  1.5975  1.3865
17764TIP3    H274708   0.765   4.086  12.122  1.4423  0.1133 -1.2977
17765TIP3   OH274709   6.561   4.996  10.499  0.0142 -0.1826 -0.5516
17765TIP3    H174710   6.614   5.005  10.578  0.1296  0.8909 -0.7476
17765TIP3    H274711   6.479   4.956  10.530 -0.5510  1.5985  0.3824
17766TIP3   OH274712   0.389   0.921  14.952 -0.0128  0.5065 -0.1671
17766TIP3    H174713   0.300   0.923  14.915 -0.7147  2.5032  1.4380
17766TIP3    H274714   0.446   0.919  14.876 -1.4241  1.5715 -1.3167
17767TIP3   OH274715   0.841   0.422  15.727  0.1875  0.6919  0.2353
17767TIP3    H174716   0.748   0.431  15.747 -0.1565 -1.4200 -0.1150
17767TIP3    H274717   0.850   0.457  15.639 -0.6322 -0.5195 -0.3596
17768TIP3   OH274718   3.859   3.148  15.172  0.1130 -0.3228 -0.4965
17768TIP3    H174719   3.935   3.113  15.126  0.8382 -0.4565  0.7630
17768TIP3    H274720   3.815   3.071  15.207  0.6840 -0.1282  0.7042
17769TIP3   OH274721   1.583   1.152  11.910 -0.1531  0.1808 -0.1810
17769TIP3    H174722   1.675   1.138  11.886  0.6443  1.4967  1.8496
17769TIP3    H274723   1.557   1.229  11.860 -0.3046 -0.3957 -1.0250
17770TIP3   OH274724   2.706   0.548  12.493  0.5586 -0.0216 -1.1231
17770TIP3    H174725   2.754   0.479  12.448  0.3268 -1.3547  0.5955
17770TIP3    H274726   2.621   0.509  12.513  0.9763  0.1729  1.2559
17771TIP3   OH274727   5.998   6.348  14.844  0.3258 -0.7303  0.2023
17771TIP3    H174728   6.079   6.341  14.895  0.0148 -2.2309  0.5297
17771TIP3    H274729   6.023   6.326  14.755  0.2241 -1.5302  0.3668
17772TIP3   OH274730   0.936   6.134  15.575  0.6072  0.2088 -0.3086
17772TIP3    H174731   0.929   6.228  15.558  0.7200  0.4511  0.8531
17772TIP3    H274732   0.864   6.115  15.635  1.7631 -0.0157  1.0612
17773TIP3   OH274733   0.719   0.450  13.722  0.0231  0.1195  0.5699
17773TIP3    H174734   0.750   0.531  13.762  0.7919 -0.1804  0.5908
17773TIP3    H274735   0.688   0.397  13.796  1.0800 -0.2763  0.7476
17774TIP3   OH274736   4.109   4.649  11.204  0.0132  0.0268 -0.1598
17774TIP3    H174737   4.115   4.674  11.111 -2.5791  0.8386 -0.1857
17774TIP3    H274738   4.095   4.555  11.203  0.0352  0.0254 -0.5822
17775TIP3   OH274739   6.391   2.301  17.039  0.2733 -0.2491  0.8315
17775TIP3    H174740   6.307   2.325  17.080  0.1460  0.2899  0.2567
17775TIP3    H274741   6.396   2.354  16.960  0.1192 -1.8999 -0.3402
17776TIP3   OH274742   3.137   2.505   0.527  0.2082 -0.6174 -0.1551
17776TIP3    H174743   3.137   2.579   0.466  1.2062 -0.0952  0.4602
17776TIP3    H274744   3.144   2.428   0.470 -0.5346 -0.2309 -0.7831
17777TIP3   OH274745   4.426   3.152   3.554  0.7583 -0.1935 -0.2922
17777TIP3    H174746   4.384   3.161   3.469  1.2030 -1.3034 -0.6456
17777TIP3    H274747   4.519   3.141   3.534  0.7957 -1.0120  0.2970
17778TIP3   OH274748   6.088   5.590   2.137  0.1977  0.0525  0.0456
17778TIP3    H174749   6.125   5.655   2.197  1.4924 -0.0006 -0.6602
17778TIP3    H274750   6.143   5.596   2.059 -1.3967  0.0549 -1.1246
17779TIP3   OH274751   4.537   6.369  14.985  0.0112 -0.0386  0.0130
17779TIP3    H174752   4.623   6.410  14.976 -0.3261  0.4263 -1.2959
17779TIP3    H274753   4.475   6.442  14.977 -0.5360 -0.5195 -0.2219
17780TIP3   OH274754   1.249   6.005  12.826  0.2112  0.0073  0.4251
17780TIP3    H174755   1.335   5.964  12.816 -0.0737 -0.4425 -0.1743
17780TIP3    H274756   1.241   6.064  12.752  0.8758  1.6536  1.5962
17781TIP3   OH274757   4.140   6.533  11.899 -0.5584  0.6603 -0.4873
17781TIP3    H174758   4.098   6.580  11.972  0.2544  3.1066 -1.4642
17781TIP3    H274759   4.184   6.459  11.941 -1.5300  1.0068  1.2719
17782TIP3   OH274760   3.916   1.617  11.452 -0.1897  0.7890  0.3941
17782TIP3    H174761   3.909   1.538  11.505 -2.7181  0.6876  0.0015
17782TIP3    H274762   4.000   1.656  11.479  0.4806 -1.3016  1.5432
17783TIP3   OH274763   1.166   2.458  15.304 -0.3992  0.1668  0.6141
17783TIP3    H174764   1.168   2.366  15.279  0.4370  0.6628 -1.3177
17783TIP3    H274765   1.104   2.499  15.243 -0.6532  0.9290  1.3535
17784TIP3   OH274766   0.620   2.626  14.727  0.5526  0.0513  0.0888
17784TIP3    H174767   0.590   2.717  14.725 -0.7316 -0.3708 -0.5470
17784TIP3    H274768   0.566   2.581  14.663 -0.6512 -1.7021  2.1921
17785TIP3   OH274769   4.409   3.725  16.839  0.1014  0.3292  0.6409
17785TIP3    H174770   4.497   3.757  16.861 -0.5782  1.7928  1.2896
17785TIP3    H274771   4.350   3.777  16.893 -1.0693 -2.2653  2.0278
17786TIP3   OH274772   1.201   1.712   3.385 -0.5165 -0.3762 -0.5388
17786TIP3    H174773   1.275   1.762   3.349  1.9323 -2.8488  0.6323
17786TIP3    H274774   1.137   1.778   3.410  2.2548  2.1552  0.4524
17787TIP3   OH274775   2.228   0.381  16.931 -0.8019 -0.2684 -0.0036
17787TIP3    H174776   2.300   0.432  16.968 -0.8951 -1.2392  1.6468
17787TIP3    H274777   2.182   0.441  16.873  0.5852  0.7339 -0.1137
17788TIP3   OH274778   6.184   4.117  15.074 -0.0374 -0.3054 -0.0239
17788TIP3    H174779   6.242   4.042  15.058 -1.1779 -1.7929  2.2295
17788TIP3    H274780   6.112   4.081  15.127 -2.3335  1.7523 -1.5359
17789TIP3   OH274781   0.282   4.812  17.098 -0.0322  0.2499 -0.1626
17789TIP3    H174782   0.204   4.779  17.053 -0.6280  0.0517  0.9806
17789TIP3    H274783   0.354   4.795  17.037 -0.9552  0.9788 -1.4854
17790TIP3   OH274784   2.227   2.072  13.023 -0.7173  0.0347  0.2656
17790TIP3    H174785   2.199   2.130  13.094 -1.9200  2.5341 -2.1030
17790TIP3    H274786   2.147   2.029  12.993 -0.3954 -0.1507 -0.3387
17791TIP3   OH274787   5.462   5.740   5.281  0.5715 -0.0896 -0.5656
17791TIP3    H174788   5.507   5.668   5.327 -0.3805 -0.7337 -0.6042
17791TIP3    H274789   5.518   5.816   5.294  0.9546 -0.5482  0.5959
17792TIP3   OH274790   0.368   4.371  14.651 -0.1191 -0.3293  0.1144
17792TIP3    H174791   0.313   4.304  14.608  0.5977 -0.3050 -0.8725
17792TIP3    H274792   0.322   4.453  14.635 -1.1118 -0.5670  1.5041
17793TIP3   OH274793   1.781   1.721  16.605 -0.1331 -1.0382  0.0165
17793TIP3    H174794   1.835   1.693  16.680  0.1853  0.2634  0.3080
17793TIP3    H274795   1.817   1.806  16.581 -0.8237 -1.0332 -1.0534
17794TIP3   OH274796   5.063   0.904  17.040 -0.8464 -0.3762 -0.5967
17794TIP3    H174797   5.141   0.899  17.096 -1.0808 -0.7573 -0.2999
17794TIP3    H274798   5.019   0.984  17.068  0.2865  0.7486 -1.8957
17795TIP3   OH274799   4.313   1.702   3.954 -0.0192  0.1746 -0.3774
17795TIP3    H174800   4.387   1.726   3.898 -0.5461  0.6517 -0.8798
17795TIP3    H274801   4.288   1.783   3.998 -0.3576  0.0592 -0.3479
17796TIP3   OH274802   3.725   3.028  12.532  0.3492 -0.3055  0.4217
17796TIP3    H174803   3.775   2.961  12.578  0.1505  0.4842  1.8665
17796TIP3    H274804   3.773   3.109  12.548 -0.3279  0.1577  0.1677
17797TIP3   OH274805   3.786   2.454  16.847 -0.3044  0.4344  0.2120
17797TIP3    H174806   3.849   2.495  16.906 -1.6061  0.2707  1.7719
17797TIP3    H274807   3.714   2.516  16.840 -0.9687 -0.3049  0.2475
17798TIP3   OH274808   2.291   2.832   2.630 -0.3130 -0.0423 -0.5399
17798TIP3    H174809   2.369   2.799   2.675 -0.7348 -1.1484 -0.5904
17798TIP3    H274810   2.270   2.764   2.566 -2.3743 -0.6686  0.6987
17799TIP3   OH274811   6.669   5.753  16.071 -0.2088  0.3134  0.9170
17799TIP3    H174812   6.613   5.782  16.143  1.1653  0.5032  1.9457
17799TIP3    H274813   6.701   5.834  16.031  0.4202  0.2237  1.2245
17800TIP3   OH274814   5.438   6.163   3.080 -0.1441  0.4061 -0.1460
17800TIP3    H174815   5.477   6.221   3.015 -0.8842  1.3171  0.2059
17800TIP3    H274816   5.457   6.206   3.164 -2.2664  1.1055  0.0116
17801TIP3   OH274817   4.333   6.462  14.723 -0.1309 -0.0475 -0.0381
17801TIP3    H174818   4.258   6.521  14.717  0.4110  0.6407 -0.0773
17801TIP3    H274819   4.403   6.506  14.676  0.3538 -0.6141  0.1332
17802TIP3   OH274820   3.546   0.083   3.378  0.2078 -0.3271  0.1680
17802TIP3    H174821   3.540  -0.012   3.368  0.2007 -0.3063 -0.0371
17802TIP3    H274822   3.586   0.113   3.297  0.6050 -0.1939  0.4124
17803TIP3   OH274823   5.931   6.259  11.312 -0.4957  0.2824 -0.4314
17803TIP3    H174824   5.882   6.294  11.386  0.9595  0.0545  0.6631
17803TIP3    H274825   6.014   6.306  11.313  0.1421 -0.8039 -0.9875
17804TIP3   OH274826   5.424   6.104  11.744  0.2611  0.0434  0.0201
17804TIP3    H174827   5.387   6.171  11.800  2.2338 -0.2525  1.8014
17804TIP3    H274828   5.371   6.026  11.761  0.7504 -0.0084  1.4380
17805TIP3   OH274829   1.864   0.121  11.616 -0.5659  0.0025  0.0616
17805TIP3    H174830   1.841   0.097  11.526 -1.2965 -0.3970  0.3434
17805TIP3    H274831   1.915   0.046  11.648  1.3862  0.9768 -0.6303
17806TIP3   OH274832   0.381   2.044  10.926  0.2478 -0.8347  0.1101
17806TIP3    H174833   0.385   2.101  10.849 -0.2372  0.3070  0.9001
17806TIP3    H274834   0.407   2.100  10.999  2.4151 -2.3453  0.5996
17807TIP3   OH274835   0.882   1.335   4.798  0.0189  0.1775 -0.5495
17807TIP3    H174836   0.896   1.414   4.745 -0.4022  1.2865  0.9054
17807TIP3    H274837   0.912   1.360   4.885 -3.3396 -0.0133  0.8260
17808TIP3   OH274838   4.369   2.993   3.274  0.1575  0.5226  0.2585
17808TIP3    H174839   4.383   3.067   3.215  2.2468 -0.7616 -0.9628
17808TIP3    H274840   4.276   2.997   3.296 -0.0131  2.8619 -0.6028
17809TIP3   OH274841   0.247   3.643  14.771  0.1943 -0.2863  0.5504
17809TIP3    H174842   0.152   3.647  14.772  0.2219  1.0202 -0.2012
17809TIP3    H274843   0.275   3.697  14.845  0.3611 -0.6425  0.7530
17810TIP3   OH274844   3.988   6.697   1.196  0.0858  0.2118 -0.2596
17810TIP3    H174845   3.987   6.790   1.216 -0.5731 -0.1670  1.6207
17810TIP3    H274846   3.904   6.680   1.154  0.5095  0.5785 -1.2852
17811TIP3   OH274847   1.542   4.457   3.241 -0.3777  0.4276 -0.0849
17811TIP3    H174848   1.451   4.444   3.269 -0.1194  0.2331  0.7098
17811TIP3    H274849   1.538   4.456   3.146 -0.9766 -1.3238 -0.0813
17812TIP3   OH274850   6.452   1.421   6.422 -0.2108  0.0048 -0.0023
17812TIP3    H174851   6.447   1.512   6.452 -0.4980  1.0350 -2.8019
17812TIP3    H274852   6.372   1.380   6.455 -1.2762  1.4728 -0.6318
17813TIP3   OH274853   6.202   1.527   2.794  0.5209  0.1111  0.6131
17813TIP3    H174854   6.134   1.524   2.862 -0.3646  2.2067 -0.0990
17813TIP3    H274855   6.165   1.583   2.726  2.2725 -0.1528 -0.6205
17814TIP3   OH274856   1.747   1.737  11.850  0.2931  0.3641 -0.1296
17814TIP3    H174857   1.776   1.646  11.853 -0.0661  0.2352 -0.5551
17814TIP3    H274858   1.828   1.787  11.837  0.4035  0.0501 -0.6688
17815TIP3   OH274859   4.540   5.019  12.329 -0.6919  0.0583 -0.3778
17815TIP3    H174860   4.487   5.093  12.358  1.1646  1.2410  0.1353
17815TIP3    H274861   4.562   5.039  12.238 -1.7072 -0.8110 -0.8409
17816TIP3   OH274862   0.519   6.060  15.521 -0.3066  0.2857 -0.0436
17816TIP3    H174863   0.572   6.140  15.530 -0.2764  0.3270 -0.5423
17816TIP3    H274864   0.435   6.091  15.488 -0.8863  0.2932  1.4128
17817TIP3   OH274865   2.742   3.784   1.673  0.5132 -0.2641  0.1810
17817TIP3    H174866   2.716   3.722   1.741  1.8933  0.2757  1.2675
17817TIP3    H274867   2.834   3.804   1.693 -0.3221  3.4891  1.0575
17818TIP3   OH274868   4.851   6.084  13.656  0.1956  0.0584  0.4448
17818TIP3    H174869   4.917   6.029  13.613 -0.5402 -1.5028  1.2287
17818TIP3    H274870   4.859   6.168  13.612  0.2555 -1.1151 -1.9812
17819TIP3   OH274871   6.449   4.070  15.300  0.2725 -0.5617 -0.2391
17819TIP3    H174872   6.413   4.096  15.215 -2.0823 -2.1713  0.1574
17819TIP3    H274873   6.511   4.139  15.323 -1.0599  1.3225 -2.0068
17820TIP3   OH274874   3.585   3.760   2.938  0.4137 -0.3752  0.4641
17820TIP3    H174875   3.609   3.803   3.020  1.0166 -0.4834  0.3486
17820TIP3    H274876   3.490   3.769   2.933  0.2183 -1.4163  1.7756
17821TIP3   OH274877   0.742   1.459  13.013  0.3464  0.0953  0.2653
17821TIP3    H174878   0.672   1.521  12.994  0.6107  0.3811  0.2299
17821TIP3    H274879   0.697   1.374  13.020  0.1910  0.0180 -1.3535
17822TIP3   OH274880   5.295   3.647  16.657 -0.0500  0.1456 -0.4312
17822TIP3    H174881   5.249   3.567  16.632  0.4107 -0.1759 -0.2785
17822TIP3    H274882   5.323   3.687  16.575  0.7162 -0.4574 -0.4778
17823TIP3   OH274883   1.184   6.116   6.105 -0.0297 -0.0232 -0.7518
17823TIP3    H174884   1.247   6.161   6.162 -1.8505  3.1144 -0.9878
17823TIP3    H274885   1.149   6.046   6.159 -0.2440  1.6003  1.3586
17824TIP3   OH274886   3.727   3.961   5.820  0.1702 -0.4157 -0.4387
17824TIP3    H174887   3.807   3.957   5.873  0.7082 -0.4472 -1.2383
17824TIP3    H274888   3.670   3.895   5.858  1.2943 -1.8122 -1.0913
17825TIP3   OH274889   4.947   5.745  16.291 -0.0244 -0.4946 -0.0489
17825TIP3    H174890   5.040   5.759  16.276 -0.3539 -0.1875 -2.1564
17825TIP3    H274891   4.918   5.823  16.338  0.6654 -0.3386  0.1283
17826TIP3   OH274892   1.944   6.793  10.652 -0.6953 -0.4528  0.0851
17826TIP3    H174893   1.916   6.838  10.572 -1.4502 -0.6029  0.2608
17826TIP3    H274894   1.866   6.745  10.681 -0.0668 -1.4443  0.1918
17827TIP3   OH274895   1.850   4.455  11.127  0.4595  0.7861 -0.2849
17827TIP3    H174896   1.924   4.509  11.099 -0.0083  0.8484 -1.4595
17827TIP3    H274897   1.811   4.503  11.200 -1.3535  3.3198 -2.7444
17828TIP3   OH274898   1.965   0.646  11.459 -0.1678 -0.3051 -0.7663
17828TIP3    H174899   2.029   0.712  11.433 -1.1214  0.5657 -0.9955
17828TIP3    H274900   2.016   0.580  11.505  0.6457  1.2720  0.7112
17829TIP3   OH274901   3.884   5.757  12.175  0.1723 -0.0549 -0.2573
17829TIP3    H174902   3.947   5.743  12.103 -0.5261  1.5077 -1.2117
17829TIP3    H274903   3.925   5.824  12.229 -0.9773  1.5738 -1.3297
17830TIP3   OH274904   4.709   5.884   3.561 -0.2950  0.0653 -0.1346
17830TIP3    H174905   4.634   5.941   3.550 -0.9544 -0.5730  0.8933
17830TIP3    H274906   4.681   5.818   3.625  1.7269  0.8954  1.7479
17831TIP3   OH274907   4.253   3.128  17.075 -0.2941  0.0179  0.3524
17831TIP3    H174908   4.219   3.039  17.070 -2.0813  0.7142 -0.8444
17831TIP3    H274909   4.278   3.149  16.985 -0.9406  1.0844  0.4001
17832TIP3   OH274910   2.505   4.353   5.541  0.2756  0.1821 -0.0660
17832TIP3    H174911   2.428   4.313   5.500  0.1397  1.6083 -1.2958
17832TIP3    H274912   2.548   4.281   5.588 -0.1971 -1.3011 -1.8006
17833TIP3   OH274913   6.110   0.669  16.403 -0.0152 -1.1271  0.6367
17833TIP3    H174914   6.096   0.734  16.335 -0.4803 -1.2787  0.5851
17833TIP3    H274915   6.046   0.689  16.470 -0.3096 -1.6582  0.5241
17834TIP3   OH274916   0.693   1.574   1.895 -1.2800  0.1354  0.1390
17834TIP3    H174917   0.681   1.479   1.888 -2.4215  0.3696 -2.1194
17834TIP3    H274918   0.777   1.590   1.852 -1.6187  0.2242 -0.5099
17835TIP3   OH274919   4.855   3.758  14.551 -0.0261 -0.8497  0.0791
17835TIP3    H174920   4.833   3.851  14.553 -0.0916 -0.8031 -1.4074
17835TIP3    H274921   4.882   3.737  14.640 -0.5013  0.4693  0.5523
17836TIP3   OH274922   4.153   5.399  16.398 -0.0009 -0.2670  0.2158
17836TIP3    H174923   4.058   5.406  16.402 -0.0098 -0.5512  0.5611
17836TIP3    H274924   4.179   5.459  16.329 -0.4395 -0.2551  0.0610
17837TIP3   OH274925   4.848   4.956   0.757  0.2438  0.9851 -0.3813
17837TIP3    H174926   4.832   4.868   0.723  0.2154  1.2494 -1.0668
17837TIP3    H274927   4.885   5.004   0.682  1.6971  1.1355  0.4036
17838TIP3   OH274928   4.907   0.557   0.943  0.6578 -0.1902  0.5177
17838TIP3    H174929   4.950   0.471   0.950 -1.7875 -1.6294 -0.9478
17838TIP3    H274930   4.975   0.615   0.910  1.9188 -1.9822 -0.1900
17839TIP3   OH274931   6.155   3.084  12.131 -0.5775 -0.3962  0.4486
17839TIP3    H174932   6.107   3.158  12.094 -0.7256 -0.0823  1.2421
17839TIP3    H274933   6.094   3.047  12.196 -0.4677 -1.1526  0.1267
17840TIP3   OH274934   3.904   1.099   4.134  0.1487 -0.5528  0.0304
17840TIP3    H174935   3.876   1.178   4.179 -3.2635 -0.5818 -1.7232
17840TIP3    H274936   3.892   1.119   4.041 -1.7375 -3.3160 -0.4496
17841TIP3   OH274937   2.310   2.347   5.215 -0.0447  0.0213 -0.2492
17841TIP3    H174938   2.262   2.429   5.232 -2.3506 -1.2102 -0.3678
17841TIP3    H274939   2.316   2.306   5.301 -0.7737 -0.6108 -0.4874
17842TIP3   OH274940   4.271   0.567  12.391 -1.0971  0.1361  0.4422
17842TIP3    H174941   4.294   0.523  12.473 -0.9648  1.6561  1.2448
17842TIP3    H274942   4.227   0.647  12.418  0.3936  1.4933 -0.9387
17843TIP3   OH274943   0.167   1.690  17.046  0.2173 -0.0960  0.4942
17843TIP3    H174944   0.230   1.712  16.977 -2.0477 -0.3114 -1.8148
17843TIP3    H274945   0.166   1.767  17.103  0.2992  1.2661 -1.2356
17844TIP3   OH274946   5.625   4.034  15.858  0.4267 -0.4126  0.4430
17844TIP3    H174947   5.627   4.035  15.762  0.8353  0.2654  0.4529
17844TIP3    H274948   5.626   3.941  15.880  0.9601 -0.5725 -0.2061
17845TIP3   OH274949   2.400   0.894  13.813 -0.2359 -0.1558  0.1022
17845TIP3    H174950   2.411   0.873  13.720 -0.2825  0.2586 -0.0007
17845TIP3    H274951   2.462   0.966  13.829 -0.0490 -0.3921  0.4519
17846TIP3   OH274952   0.440   5.189  14.322 -0.2929 -0.3527  0.1884
17846TIP3    H174953   0.519   5.168  14.272  0.2353 -0.6681  1.1212
17846TIP3    H274954   0.377   5.219  14.256  0.6152 -0.0448 -0.5632
17847TIP3   OH274955   1.955   0.922  11.598 -0.1069 -0.4782 -0.0814
17847TIP3    H174956   1.991   0.903  11.685 -0.3844 -0.0165  0.1329
17847TIP3    H274957   2.020   0.886  11.537  0.8565  0.5860  0.2991
17848TIP3   OH274958   1.453   2.422   2.080  0.7672 -0.2692 -0.1139
17848TIP3    H174959   1.424   2.406   2.169 -0.9847  0.7064 -0.4432
17848TIP3    H274960   1.495   2.341   2.053  3.3582  0.1439  2.2861
17849TIP3   OH274961   5.671   0.362   1.699 -0.4835 -0.0428 -0.1495
17849TIP3    H174962   5.643   0.294   1.637  0.7892 -0.1278 -0.6669
17849TIP3    H274963   5.622   0.440   1.674 -0.8853 -0.3944 -0.4756
17850TIP3   OH274964   5.270   6.444  10.872 -0.2331  0.1387  0.4091
17850TIP3    H174965   5.282   6.482  10.959  1.2021  1.8451 -0.4696
17850TIP3    H274966   5.198   6.492  10.834 -1.6734 -1.4277  1.0282
17851TIP3   OH274967   6.353   4.848  14.162  0.2343 -0.1684  0.0336
17851TIP3    H174968   6.350   4.766  14.211 -0.6345  0.2356  0.6965
17851TIP3    H274969   6.306   4.910  14.217  1.6802  1.0269 -0.0226
17852TIP3   OH274970   5.793   4.651  10.518  0.2265 -0.2027 -0.2479
17852TIP3    H174971   5.798   4.572  10.572 -1.6845  1.2577  2.3429
17852TIP3    H274972   5.715   4.638  10.464 -0.8717  0.3734  1.1397
17853TIP3   OH274973   4.082   6.313   9.924  0.2641 -0.2704  0.1829
17853TIP3    H174974   4.096   6.223   9.956  0.9608 -0.3500 -0.3268
17853TIP3    H274975   4.005   6.306   9.868  0.6315 -0.6588 -0.2757
17854TIP3   OH274976   4.723   3.782  12.365 -0.0494 -0.1341  0.3158
17854TIP3    H174977   4.766   3.815  12.286  0.9738 -0.4366  0.7295
17854TIP3    H274978   4.631   3.775  12.341  0.3510 -0.9210 -1.1033
17855TIP3   OH274979   4.944   3.994  13.727 -0.5081  0.1912 -0.4560
17855TIP3    H174980   5.030   3.954  13.718 -1.2923 -1.4177 -1.1629
17855TIP3    H274981   4.936   4.053  13.652  0.7632  2.0070  0.7435
17856TIP3   OH274982   6.150   0.686  14.541 -0.5238 -0.0173 -0.1861
17856TIP3    H174983   6.064   0.647  14.560 -1.3830  1.7323 -0.3200
17856TIP3    H274984   6.181   0.637  14.464 -2.6483  1.0484 -1.8346
17857TIP3   OH274985   4.759   5.731  16.031  0.4791  0.0953  0.7196
17857TIP3    H174986   4.834   5.744  16.089  0.5187  1.5568  0.3683
17857TIP3    H274987   4.691   5.788  16.067  0.2884  0.5079 -0.2799
17858TIP3   OH274988   4.112   3.959   5.125  0.4656  0.0861 -0.5534
17858TIP3    H174989   4.043   3.916   5.074  0.1873 -0.3399  0.1727
17858TIP3    H274990   4.182   3.894   5.131 -0.5098 -0.8675  1.7397
17859TIP3   OH274991   5.243   1.163  12.873 -0.2427  0.1775  0.1766
17859TIP3    H174992   5.169   1.122  12.828  0.7222  0.9223 -2.1961
17859TIP3    H274993   5.203   1.206  12.949 -1.9660 -0.9680 -0.0281
17860TIP3   OH274994   4.500   4.108  16.795  0.9487  0.6090 -0.3711
17860TIP3    H174995   4.558   4.062  16.855  0.8470  2.8741  1.6213
17860TIP3    H274996   4.412   4.076  16.817  0.9956  0.7633  0.0341
17861TIP3   OH274997   4.452   0.667  14.653 -0.5241 -0.1410  0.4330
17861TIP3    H174998   4.506   0.666  14.732 -0.5484 -0.0719  0.4504
17861TIP3    H274999   4.376   0.720  14.676 -0.2193  0.4316  0.1511
17862TIP3   OH275000   1.779   1.445  12.066  0.2950  0.1687 -0.6147
17862TIP3    H175001   1.825   1.361  12.063 -0.3730 -0.1833 -1.6786
17862TIP3    H275002   1.738   1.453  11.979 -1.3964  0.5850  0.1731
17863TIP3   OH275003   2.704   3.264   0.473 -0.4411 -0.2880 -0.3099
17863TIP3    H175004   2.657   3.270   0.557  0.8065  0.0984  0.3865
17863TIP3    H275005   2.667   3.335   0.421  0.4606  1.0793  0.8212
17864TIP3   OH275006   0.128   5.284  14.987  0.0397 -0.4612  0.0992
17864TIP3    H175007   0.169   5.338  15.055 -0.4806  0.7655 -0.5333
17864TIP3    H275008   0.038   5.272  15.018  0.3290 -1.5841  0.5728
17865TIP3   OH275009   1.953   1.586  15.713  0.7654 -0.2379  0.0600
17865TIP3    H175010   1.861   1.615  15.717  1.0939  0.7460  1.1689
17865TIP3    H275011   1.962   1.525  15.786  0.6952 -1.3200 -0.8125
17866TIP3   OH275012   0.944   1.706  13.781 -0.3445 -0.6693  0.5176
17866TIP3    H175013   1.009   1.676  13.845 -1.2954 -0.2663  1.7024
17866TIP3    H275014   0.879   1.636  13.779  0.3810 -1.3588 -1.1217
17867TIP3   OH275015   6.763   3.541  12.595 -0.1387  0.0152 -0.3759
17867TIP3    H175016   6.844   3.571  12.552  0.9343 -2.8210 -0.6027
17867TIP3    H275017   6.718   3.490  12.528 -0.7030 -0.7588  0.5618
17868TIP3   OH275018   4.612   5.922   2.446  0.2028 -1.2283 -0.3974
17868TIP3    H175019   4.644   6.012   2.445 -1.9285 -0.3458  1.5378
17868TIP3    H275020   4.671   5.874   2.387  1.8065  1.2619 -0.9406
17869TIP3   OH275021   0.546   1.677  13.373 -0.2309  0.0734 -0.0811
17869TIP3    H175022   0.561   1.767  13.403 -1.1885 -0.1280  1.0911
17869TIP3    H275023   0.601   1.623  13.430  1.7112 -0.0078 -1.9166
17870TIP3   OH275024   5.656   0.720  15.852  0.8083  0.5552 -0.6550
17870TIP3    H175025   5.649   0.815  15.863  0.9706  0.3674  1.4981
17870TIP3    H275026   5.573   0.695  15.810 -0.1796  1.4145  0.6965
17871TIP3   OH275027   5.866   4.163  10.509  0.1669 -0.8972  0.1189
17871TIP3    H175028   5.917   4.172  10.428 -0.2837  4.1377  0.0762
17871TIP3    H275029   5.780   4.131  10.480 -0.0135  0.8904 -1.5120
17872TIP3   OH275030   0.895   5.020  15.993 -0.1154 -0.3330  0.6228
17872TIP3    H175031   0.928   5.006  16.082 -0.7111 -0.7160  0.7920
17872TIP3    H275032   0.837   4.945  15.977  1.2402 -1.1478 -0.7039
17873TIP3   OH275033   2.909   1.176   1.959 -0.0694  0.3611 -0.2157
17873TIP3    H175034   2.909   1.117   2.035 -0.3032  0.3174 -0.2492
17873TIP3    H275035   3.000   1.206   1.952  0.1128 -0.2270 -0.3811
17874TIP3   OH275036   1.902   5.306  16.488  0.3714  0.2406  0.7130
17874TIP3    H175037   1.896   5.210  16.487 -0.1035  0.2568  1.3872
17874TIP3    H275038   1.812   5.335  16.504  0.4066  0.8202 -0.1333
17875TIP3   OH275039   3.620   3.706  14.322 -0.3885  0.0812  0.3788
17875TIP3    H175040   3.640   3.685  14.231 -0.0172 -0.3264  0.5477
17875TIP3    H275041   3.524   3.713  14.325 -0.3333  1.2523 -0.2763
17876TIP3   OH275042   2.350   1.385   1.621 -0.7194  0.1818  0.4753
17876TIP3    H175043   2.398   1.305   1.642  0.5866  0.2309 -2.0146
17876TIP3    H275044   2.378   1.447   1.689  2.1834 -0.0582 -0.3494
17877TIP3   OH275045   4.394   3.280   4.387  0.2940 -0.1847  0.0876
17877TIP3    H175046   4.438   3.237   4.461 -1.1936 -3.0739 -0.5247
17877TIP3    H275047   4.444   3.252   4.310 -0.4263 -0.4646 -0.2907
17878TIP3   OH275048   3.413   6.235  10.388 -0.2924 -0.6021 -0.0156
17878TIP3    H175049   3.493   6.282  10.410  0.0733 -0.8724 -0.7316
17878TIP3    H275050   3.436   6.143  10.400 -0.4469 -0.6877 -0.3756
17879TIP3   OH275051   3.059   2.962   2.058  0.4174 -0.2138 -0.7042
17879TIP3    H175052   3.143   2.920   2.079  1.0265  0.9972 -0.5928
17879TIP3    H275053   3.013   2.897   2.005  0.3303 -1.9211  1.3331
17880TIP3   OH275054   1.332   0.517  10.326  0.4042 -0.3743 -0.2107
17880TIP3    H175055   1.351   0.611  10.337  1.6874 -0.7124  0.6899
17880TIP3    H275056   1.237   0.512  10.326  0.2917  1.0626 -1.4815
17881TIP3   OH275057   5.056   6.310   3.870  0.0996  0.2746  0.5175
17881TIP3    H175058   5.063   6.216   3.886  0.4958  0.0767 -0.7479
17881TIP3    H275059   5.121   6.349   3.929  0.9416 -0.3685  0.0348
17882TIP3   OH275060   1.631   1.451  16.826 -0.2388 -0.8965  0.2086
17882TIP3    H175061   1.718   1.411  16.830 -0.4808 -1.6486 -1.3739
17882TIP3    H275062   1.576   1.386  16.783 -1.0435  0.4417 -0.8764
17883TIP3   OH275063   5.847   3.728   4.754 -0.4905 -0.1382 -0.6113
17883TIP3    H175064   5.781   3.784   4.794  0.4177  0.3739  0.2199
17883TIP3    H275065   5.805   3.642   4.747 -0.3700 -0.5393  2.4545
17884TIP3   OH275066   5.754   1.493  10.380  0.3198  0.0419 -0.9251
17884TIP3    H175067   5.690   1.556  10.414  0.1450 -0.1511 -0.8939
17884TIP3    H275068   5.779   1.527  10.294 -0.9102 -0.6412 -1.5773
17885TIP3   OH275069   5.844   3.575   0.509 -0.0511 -0.2395  0.3525
17885TIP3    H175070   5.874   3.666   0.516 -1.0985  0.0219  1.8435
17885TIP3    H275071   5.761   3.573   0.555 -0.6233 -1.7280 -0.6560
17886TIP3   OH275072   3.797   1.074   1.237  0.1576 -0.6478 -0.4790
17886TIP3    H175073   3.823   1.014   1.308 -2.8023 -0.2998  1.0719
17886TIP3    H275074   3.879   1.108   1.203  1.7703 -1.7603  1.9957
17887TIP3   OH275075   2.362   0.019  16.860 -0.5042  0.2352  0.1695
17887TIP3    H175076   2.443   0.040  16.907 -0.4489 -0.1314  0.2389
17887TIP3    H275077   2.292   0.033  16.924 -0.5611  1.2488 -0.0987
17888TIP3   OH275078   1.540   6.395  14.588 -0.6915 -0.6821 -0.0637
17888TIP3    H175079   1.513   6.482  14.618 -2.2062 -1.1427  0.0077
17888TIP3    H275080   1.535   6.401  14.492  0.4982 -0.3161 -0.1157
17889TIP3   OH275081   2.003   2.831  13.306  0.3214  0.5579  0.1059
17889TIP3    H175082   1.977   2.890  13.236  0.0616 -1.8641 -1.9852
17889TIP3    H275083   2.098   2.841  13.312  0.6596 -0.6755 -2.1377
17890TIP3   OH275084   1.742   2.038  13.409 -0.0891  0.4422 -0.1514
17890TIP3    H175085   1.721   2.002  13.323 -1.1028  0.3423  0.1220
17890TIP3    H275086   1.659   2.036  13.456  0.6230 -0.3031  1.1232
17891TIP3   OH275087   0.559   4.217  10.266 -0.2469  0.6241 -0.6783
17891TIP3    H175088   0.626   4.284  10.281 -1.2596  1.1211  2.2976
17891TIP3    H275089   0.492   4.261  10.213  0.1218  1.2688 -0.6167
17892TIP3   OH275090   5.570   0.712  15.354  0.4714  0.0559  0.2289
17892TIP3    H175091   5.524   0.704  15.437 -1.4648  2.9858 -0.4200
17892TIP3    H275092   5.501   0.725  15.289  2.0566  1.0750 -1.3626
17893TIP3   OH275093   3.499   0.717   5.147  0.1627  0.2437 -0.5588
17893TIP3    H175094   3.405   0.731   5.143 -0.4014 -2.7571 -0.0267
17893TIP3    H275095   3.534   0.761   5.069 -1.5014  2.2178 -0.2593
17894TIP3   OH275096   5.078   6.402  15.717  0.5540 -0.4256 -0.4243
17894TIP3    H175097   5.076   6.339  15.789 -1.6678 -0.1370 -0.1560
17894TIP3    H275098   5.032   6.357  15.645  0.2882  0.3102 -0.7248
17895TIP3   OH275099   3.330   0.872   2.219 -0.0517 -0.8322 -0.9682
17895TIP3    H175100   3.260   0.936   2.206  0.2111  0.3988  2.6377
17895TIP3    H275101   3.286   0.788   2.222 -1.6420 -0.0074  2.0533
17896TIP3   OH275102   3.250   6.399  13.360 -0.0252  0.4515 -0.6333
17896TIP3    H175103   3.279   6.327  13.304  0.8191  0.6350 -0.4408
17896TIP3    H275104   3.212   6.463  13.299 -1.5189 -0.4911 -0.7271
17897TIP3   OH275105   1.503   1.627  14.011 -0.4252 -0.4254 -0.6043
17897TIP3    H175106   1.433   1.564  14.023  0.4781 -1.6018 -1.3681
17897TIP3    H275107   1.458   1.709  13.991 -1.6247 -0.6841  0.8520
17898TIP3   OH275108   5.134   4.182  17.107  0.7946 -0.1642  0.0487
17898TIP3    H175109   5.078   4.163  17.181  1.6364 -1.5654  0.3592
17898TIP3    H275110   5.128   4.277  17.095 -2.7125 -0.3658 -0.8339
17899TIP3   OH275111   2.502   2.196  10.871  0.1229  0.6518  0.2970
17899TIP3    H175112   2.416   2.222  10.904 -0.0523  0.2183  0.1865
17899TIP3    H275113   2.557   2.273  10.883 -0.5666  1.3088 -0.6813
17900TIP3   OH275114   2.174   0.606   4.520 -0.8759  0.5824 -0.2779
17900TIP3    H175115   2.224   0.583   4.599 -0.7494  0.1721 -0.4708
17900TIP3    H275116   2.217   0.684   4.486  1.7918 -1.5470 -2.2600
17901TIP3   OH275117   4.156   0.067   0.559  0.4144 -0.2853 -0.0265
17901TIP3    H175118   4.221   0.126   0.598  1.2668 -1.9360  1.1279
17901TIP3    H275119   4.154   0.092   0.467 -1.6837  3.7903  0.8512
17902TIP3   OH275120   4.221   1.105  14.030  0.1711 -0.8787  0.7210
17902TIP3    H175121   4.225   1.012  14.010 -1.2604 -0.4768 -1.8748
17902TIP3    H275122   4.298   1.142  13.987  0.2348 -0.7183  0.9680
17903TIP3   OH275123   6.806   6.806  11.456 -1.1184 -0.1649  0.0468
17903TIP3    H175124   6.828   6.735  11.395 -2.1083 -0.1311 -0.3613
17903TIP3    H275125   6.833   6.886  11.410 -0.2913 -0.2401  0.3776
17904TIP3   OH275126   6.225   5.407   5.311  0.3561  0.5797  0.0494
17904TIP3    H175127   6.158   5.345   5.341  0.4742  0.0713 -0.6846
17904TIP3    H275128   6.240   5.382   5.219 -0.7164  2.6665 -0.7614
17905TIP3   OH275129   3.712   0.168  12.697 -0.1794  0.2082  0.5688
17905TIP3    H175130   3.625   0.168  12.657 -1.2771 -0.3725  2.8124
17905TIP3    H275131   3.705   0.229  12.770  0.4303 -1.8201  2.4313
17906TIP3   OH275132   5.006   6.604   5.942  0.0978 -0.2256 -0.4771
17906TIP3    H175133   4.932   6.600   5.882  0.5335 -0.2435 -1.0143
17906TIP3    H275134   5.000   6.692   5.980  0.5113  0.2384 -1.4459
17907TIP3   OH275135   0.664   4.956  14.353  0.1728 -0.1229  0.2130
17907TIP3    H175136   0.684   5.031  14.297 -0.5028 -0.8306 -1.0167
17907TIP3    H275137   0.568   4.956  14.359  0.1430 -1.0674 -0.0858
17908TIP3   OH275138   3.497   3.200   0.288  0.0220 -0.0194  0.1856
17908TIP3    H175139   3.573   3.144   0.271 -2.6443 -3.2551 -2.7763
17908TIP3    H275140   3.508   3.274   0.228 -0.2207 -1.8148 -2.2595
17909TIP3   OH275141   2.707   2.567  14.528 -0.1650  0.2766 -0.0707
17909TIP3    H175142   2.620   2.552  14.563 -0.4006  1.3488 -0.1799
17909TIP3    H275143   2.766   2.541  14.598 -0.5497 -0.7577 -0.1085
17910TIP3   OH275144   6.155   0.797  10.602 -0.0164 -0.0410 -0.0662
17910TIP3    H175145   6.193   0.711  10.620  0.0063  0.3152  1.7248
17910TIP3    H275146   6.153   0.802  10.506  0.6376 -1.7330 -0.2101
17911TIP3   OH275147   6.722   6.558  12.209  0.0095  0.0701  0.6391
17911TIP3    H175148   6.768   6.640  12.229  1.3839 -0.9355  1.8987
17911TIP3    H275149   6.781   6.511  12.149 -1.2543  0.4214 -0.9236
17912TIP3   OH275150   5.305   4.160   1.771  0.2803 -0.0153 -0.0135
17912TIP3    H175151   5.235   4.150   1.836  0.0560  1.3155 -0.0133
17912TIP3    H275152   5.372   4.097   1.798  0.1800  0.4889  1.5175
17913TIP3   OH275153   5.347   5.812   2.486 -0.8468 -0.5739  0.1572
17913TIP3    H175154   5.332   5.725   2.449  1.8818 -0.6846 -0.9307
17913TIP3    H275155   5.348   5.870   2.410  2.8403 -0.5023  0.0834
17914TIP3   OH275156   1.617   4.783  11.257 -0.1322  0.3454 -0.0950
17914TIP3    H175157   1.534   4.747  11.290  0.1980  0.5980  1.0374
17914TIP3    H275158   1.679   4.770  11.328  0.0353  3.0451  0.3677
17915TIP3   OH275159   2.517   2.936   2.018  0.2879  0.0360  0.2894
17915TIP3    H175160   2.491   2.845   2.036 -0.6311  0.0435 -0.8556
17915TIP3    H275161   2.457   2.989   2.069  0.3928  0.0113  0.4395
17916TIP3   OH275162   2.378   2.654   4.823  0.6443 -0.0496  0.0188
17916TIP3    H175163   2.365   2.660   4.728 -0.1049 -1.2759  0.0258
17916TIP3    H275164   2.353   2.740   4.856 -1.2646 -0.2857 -0.6837
17917TIP3   OH275165   5.183   4.524  11.378  0.5385 -0.3835 -0.1587
17917TIP3    H175166   5.163   4.616  11.396 -0.1970 -0.7312  0.9250
17917TIP3    H275167   5.113   4.476  11.421  0.7825 -1.4493 -0.9227
17918TIP3   OH275168   2.750   6.597   2.248 -0.2618 -0.4125  0.0271
17918TIP3    H175169   2.804   6.665   2.288  0.5285 -0.4442 -0.9622
17918TIP3    H275170   2.788   6.515   2.277  0.1456 -0.4344 -0.5556
17919TIP3   OH275171   5.980   6.395   4.369  0.8590 -0.8639  0.2527
17919TIP3    H175172   5.972   6.439   4.285  0.5340 -1.8070 -0.2182
17919TIP3    H275173   5.922   6.444   4.427  1.4324  0.0681  0.0541
17920TIP3   OH275174   1.747   4.109  13.323 -0.6013  0.0110  0.1906
17920TIP3    H175175   1.719   4.141  13.238  1.4107 -2.3867 -1.5592
17920TIP3    H275176   1.840   4.133  13.328 -0.2086 -1.4809  0.7829
17921TIP3   OH275177   0.485   6.030   3.267 -0.6063 -0.2462  0.0934
17921TIP3    H175178   0.473   6.080   3.349 -0.9425  0.3107 -0.2871
17921TIP3    H275179   0.580   6.018   3.260 -0.2780  2.1700 -0.8444
17922TIP3   OH275180   5.939   0.195  15.607 -0.1123  0.4466  0.1361
17922TIP3    H175181   5.879   0.157  15.671  1.4207 -0.8372  0.9038
17922TIP3    H275182   5.912   0.157  15.524 -0.3248 -0.2019  0.4891
17923TIP3   OH275183   5.074   1.064  15.675 -0.3651 -0.1920 -0.1750
17923TIP3    H175184   5.057   0.971  15.690  0.3464 -0.0859  1.4718
17923TIP3    H275185   5.066   1.104  15.761  2.9006  0.6778 -0.1443
17924TIP3   OH275186   5.667   4.472  14.507  0.1773 -0.2010  0.1866
17924TIP3    H175187   5.648   4.524  14.585  2.0217 -0.4659  0.8566
17924TIP3    H275188   5.746   4.423  14.529 -0.5802 -2.0974 -1.0058
17925TIP3   OH275189   6.502   3.700  11.130 -0.1877  0.1986 -0.1768
17925TIP3    H175190   6.517   3.793  11.113  0.8950 -0.1675 -1.3090
17925TIP3    H275191   6.516   3.691  11.225 -1.4800  1.3759  0.1621
17926TIP3   OH275192   1.689   4.945  14.147 -0.4439 -0.4787  0.3001
17926TIP3    H175193   1.697   4.911  14.236 -1.2049 -1.0973  0.1431
17926TIP3    H275194   1.721   4.874  14.091  0.0151 -0.0994  0.0811
17927TIP3   OH275195   2.627   5.593  11.430  0.3860  0.4831 -0.5846
17927TIP3    H175196   2.575   5.544  11.493  0.7415  0.8280 -0.0089
17927TIP3    H275197   2.677   5.655  11.483 -1.0963  2.4764 -1.3569
17928TIP3   OH275198   6.506   3.561  14.815  0.3573  0.1259 -0.3137
17928TIP3    H175199   6.436   3.617  14.782  1.1385  1.5297  0.3370
17928TIP3    H275200   6.476   3.531  14.901  0.2761  0.1800 -0.3237
17929TIP3   OH275201   6.704   5.839   3.999 -0.4716 -0.1324 -0.1236
17929TIP3    H175202   6.686   5.827   3.906  2.1852  0.5452 -0.8187
17929TIP3    H275203   6.746   5.757   4.027 -0.4847 -0.0102  0.2670
17930TIP3   OH275204   2.714   4.516  16.083  0.0850  0.4129  0.3723
17930TIP3    H175205   2.637   4.536  16.031  0.8920 -0.3047 -1.1626
17930TIP3    H275206   2.766   4.597  16.082 -0.4161  0.7547  1.0375
17931TIP3   OH275207   3.945   1.944  16.345 -0.4240  0.1519  0.0085
17931TIP3    H175208   3.969   1.871  16.287 -1.0075  0.0065 -0.0592
17931TIP3    H275209   4.021   1.956  16.402 -0.1437 -0.2065 -0.2874
17932TIP3   OH275210   0.824   0.950   1.846  0.7458  0.1866 -0.1818
17932TIP3    H175211   0.853   0.996   1.767  0.5712  1.9540  0.7239
17932TIP3    H275212   0.871   0.994   1.917 -1.3250  0.6701  0.9647
17933TIP3   OH275213   2.786   0.127  16.813 -0.0294 -0.1391  0.3102
17933TIP3    H175214   2.722   0.062  16.841  0.0306 -0.3987 -0.1281
17933TIP3    H275215   2.734   0.200  16.780 -0.1040 -0.3311 -0.0042
17934TIP3   OH275216   5.261   1.089   2.715  0.9012  0.2854 -0.9380
17934TIP3    H175217   5.314   1.019   2.753 -0.2700  0.4980  1.2507
17934TIP3    H275218   5.324   1.148   2.675  2.0518 -1.0107 -1.1029
17935TIP3   OH275219   2.731   3.415  12.890 -0.0485  0.0128  0.1304
17935TIP3    H175220   2.638   3.437  12.886 -0.5533 -1.9521  0.0430
17935TIP3    H275221   2.739   3.337  12.835  1.8242  0.6371 -0.5444
17936TIP3   OH275222   3.655   3.697  14.046 -0.0851  0.0345  0.0761
17936TIP3    H175223   3.634   3.653  13.964 -0.8582  0.1894  0.1835
17936TIP3    H275224   3.647   3.790  14.025 -1.0517  0.0613  0.5170
17937TIP3   OH275225   3.504   1.122  11.266  0.2947  0.1553  0.2317
17937TIP3    H175226   3.542   1.110  11.353  0.4336  2.2359  0.4988
17937TIP3    H275227   3.418   1.081  11.272  1.4894 -2.5585  0.3210
17938TIP3   OH275228   3.531   5.944   1.809 -0.4165 -0.3373 -0.2084
17938TIP3    H175229   3.594   5.923   1.877 -2.2704 -0.6281  1.5359
17938TIP3    H275230   3.535   6.039   1.800 -0.0720 -0.3091  0.2421
17939TIP3   OH275231   0.923   1.622  16.502 -0.2299 -0.4429  0.1919
17939TIP3    H175232   0.931   1.555  16.433 -1.3137 -2.7560  2.1484
17939TIP3    H275233   0.847   1.674  16.476  1.0037  0.5019 -1.6956
17940TIP3   OH275234   0.697   2.635  17.012  1.1985  0.1579 -0.2424
17940TIP3    H175235   0.715   2.604  17.101  1.0054 -1.8515 -0.8523
17940TIP3    H275236   0.776   2.683  16.987  1.4599  0.3068  0.8267
17941TIP3   OH275237   5.365   3.526  14.611 -0.2207  0.4399  0.1887
17941TIP3    H175238   5.318   3.610  14.615 -1.4547 -0.2154 -0.0254
17941TIP3    H275239   5.296   3.461  14.603  0.6998 -0.6483  0.8093
17942TIP3   OH275240   3.026   6.503   0.490 -0.1239  0.4050  0.2204
17942TIP3    H175241   3.023   6.441   0.563 -2.8422 -0.3969 -0.4683
17942TIP3    H275242   3.116   6.497   0.458  0.3487 -1.3714  1.7015
17943TIP3   OH275243   0.345   3.966  12.720  0.0639  0.4460 -0.3140
17943TIP3    H175244   0.379   3.962  12.631 -0.9214 -1.0747 -0.6608
17943TIP3    H275245   0.306   4.053  12.727 -0.8482  0.1933 -1.7789
17944TIP3   OH275246   2.117   1.538   0.806 -0.1820 -0.1338  0.4084
17944TIP3    H175247   2.049   1.500   0.750  0.3241  0.1913 -0.4471
17944TIP3    H275248   2.195   1.538   0.751  0.5643 -0.6817  1.4453
17945TIP3   OH275249   4.273   0.206  11.925 -0.3240  0.2922  0.6430
17945TIP3    H175250   4.322   0.134  11.886 -1.1955  1.6086 -3.4131
17945TIP3    H275251   4.333   0.280  11.925 -0.7406  0.6386  0.5662
17946TIP3   OH275252   1.531   2.327   4.292  0.1098 -0.1822  0.0017
17946TIP3    H175253   1.556   2.365   4.377  1.3724  0.7330 -0.7400
17946TIP3    H275254   1.471   2.391   4.254  2.1468  1.1534 -1.1972
17947TIP3   OH275255   2.274   2.314  11.770  0.0315 -0.2704 -0.3801
17947TIP3    H175256   2.237   2.290  11.685  1.1694  0.3149 -1.0644
17947TIP3    H275257   2.367   2.295  11.762 -0.1084 -2.0815  1.4363
17948TIP3   OH275258   2.494   0.409  13.127 -0.1963 -0.0090 -0.1323
17948TIP3    H175259   2.485   0.424  13.221 -0.6220  0.4993 -0.2494
17948TIP3    H275260   2.508   0.496  13.090  0.6347 -0.2780 -0.4779
17949TIP3   OH275261   0.238   5.856   5.005  0.1596 -0.3904 -0.4651
17949TIP3    H175262   0.296   5.795   4.960 -0.4852 -1.5332  0.2259
17949TIP3    H275263   0.252   5.940   4.960  3.3406 -0.2769  0.5317
17950TIP3   OH275264   0.974   5.620   5.160 -0.1101 -0.0834  0.2599
17950TIP3    H175265   0.924   5.543   5.190  0.2464 -0.2434  0.4439
17950TIP3    H275266   0.991   5.603   5.068  1.3250 -0.9693  0.6676
17951TIP3   OH275267   6.793   0.662  16.126  0.2085  0.2328  0.1561
17951TIP3    H175268   6.825   0.572  16.122  0.6791  0.4278 -0.7782
17951TIP3    H275269   6.809   0.689  16.216  0.3210 -0.5243  0.3704
17952TIP3   OH275270   2.082   6.561  16.081  0.4988 -0.2060 -0.4115
17952TIP3    H175271   2.134   6.522  16.011  0.5625 -2.2673  0.6894
17952TIP3    H275272   1.991   6.538  16.058  0.4126  0.1653 -0.4402
17953TIP3   OH275273   1.719   6.388  17.000 -0.3622  0.3244  0.3739
17953TIP3    H175274   1.807   6.358  16.976 -0.0535  1.6861 -0.2854
17953TIP3    H275275   1.661   6.345  16.937  0.0058  0.6239 -0.1765
17954TIP3   OH275276   5.941   2.324  11.313 -0.4403 -0.2507 -0.8520
17954TIP3    H175277   5.969   2.375  11.389  0.3737 -0.7523 -0.8109
17954TIP3    H275278   5.964   2.234  11.334 -0.9850 -0.5146 -1.3382
17955TIP3   OH275279   0.699   5.223  12.875 -0.1194 -0.8474 -0.3000
17955TIP3    H175280   0.782   5.183  12.901  0.0548  0.0059  0.5470
17955TIP3    H275281   0.651   5.154  12.831  0.6432 -1.6389  0.0901
17956TIP3   OH275282   2.445   2.460   2.779 -0.7418 -0.3244 -0.1377
17956TIP3    H175283   2.527   2.509   2.774 -0.5151 -0.6889 -0.0762
17956TIP3    H275284   2.471   2.375   2.814 -1.1009 -0.5532 -0.4246
17957TIP3   OH275285   1.307   0.792   0.763  0.2025  0.1426  0.1698
17957TIP3    H175286   1.271   0.879   0.747  0.7347  0.2457 -0.5125
17957TIP3    H275287   1.231   0.737   0.778 -0.1159  0.9405  1.8447
17958TIP3   OH275288   0.248   2.762  14.416 -0.1820  0.0777  0.6155
17958TIP3    H175289   0.187   2.834  14.407  0.1699  0.1730 -2.0331
17958TIP3    H275290   0.312   2.777  14.346  0.7984 -1.9293  1.0129
17959TIP3   OH275291   3.041   5.680   5.187 -0.3389  0.6317  0.2680
17959TIP3    H175292   2.951   5.715   5.184  0.0346  1.6114  0.1325
17959TIP3    H275293   3.071   5.700   5.276 -0.9200 -1.4523  0.9754
17960TIP3   OH275294   4.764   4.424  16.976  0.2552 -0.0382  0.4786
17960TIP3    H175295   4.757   4.354  16.912 -0.3676 -0.2993  0.8310
17960TIP3    H275296   4.857   4.450  16.973  0.0513  0.6631 -1.2609
17961TIP3   OH275297   6.699   1.276  16.865  0.2981  0.3524  0.0140
17961TIP3    H175298   6.691   1.345  16.799  2.2560  2.3138  1.6400
17961TIP3    H275299   6.765   1.216  16.830  1.5482  1.5429  0.2387
17962TIP3   OH275300   2.656   1.432   4.064 -0.2054 -0.3706 -0.0744
17962TIP3    H175301   2.732   1.476   4.028  0.4858 -1.3920  0.0996
17962TIP3    H275302   2.647   1.468   4.153  1.8652 -2.2855  1.0088
17963TIP3   OH275303   0.976   3.966   2.425  0.3672 -0.2986 -0.1408
17963TIP3    H175304   0.938   3.991   2.341  0.5953 -0.9809 -0.4507
17963TIP3    H275305   0.906   3.920   2.471  0.4146 -0.4045 -0.1757
17964TIP3   OH275306   0.228   0.010   1.200 -0.2408 -0.6525 -0.0497
17964TIP3    H175307   0.283   0.061   1.141 -0.5059  0.9698  1.0399
17964TIP3    H275308   0.143   0.008   1.157 -0.4740  0.6465  0.3000
17965TIP3   OH275309   2.051   3.384   2.300  0.2779 -0.2205  0.7157
17965TIP3    H175310   2.066   3.435   2.219  1.6828 -1.7313 -0.0246
17965TIP3    H275311   1.965   3.346   2.288 -0.2799  0.9696  0.7436
17966TIP3   OH275312   3.842   1.581  13.719  0.0384 -0.0736 -0.7269
17966TIP3    H175313   3.929   1.566  13.684 -0.1163  0.8374 -1.5437
17966TIP3    H275314   3.857   1.628  13.801  0.4270 -2.7025  0.8227
17967TIP3   OH275315   1.627   0.396  13.519 -0.0620  0.4229  0.4056
17967TIP3    H175316   1.652   0.329  13.455  0.7895  0.5476  0.5897
17967TIP3    H275317   1.554   0.442  13.479 -1.5432 -1.4396  0.8205
17968TIP3   OH275318   5.979   4.463   0.206 -0.0320  0.0981 -0.0162
17968TIP3    H175319   6.028   4.460   0.288  0.5911  1.8364 -0.2790
17968TIP3    H275320   5.969   4.371   0.180  1.5130 -0.3884  0.9861
17969TIP3   OH275321   4.748   0.677   5.205 -0.0402 -0.6584 -0.1073
17969TIP3    H175322   4.689   0.724   5.147 -1.4962  1.8097  3.0825
17969TIP3    H275323   4.809   0.743   5.236 -1.0743 -1.0774  3.2339
17970TIP3   OH275324   0.956   3.555   2.048  0.7199  0.2163 -0.3779
17970TIP3    H175325   1.040   3.517   2.071 -0.6345 -1.1397  2.8098
17970TIP3    H275326   0.910   3.485   2.001  0.0849 -0.3442  1.0480
17971TIP3   OH275327   6.663   1.156  10.031  0.4474  0.1249  0.3666
17971TIP3    H175328   6.685   1.108  10.111 -1.0611 -0.1494  0.6418
17971TIP3    H275329   6.733   1.133   9.970  0.6459 -1.1229  1.0187
17972TIP3   OH275330   5.019   6.340   0.034  0.8251 -0.0739 -0.9903
17972TIP3    H175331   5.002   6.290   0.114  0.2664  0.4652 -0.7549
17972TIP3    H275332   5.009   6.277  -0.037  1.6921 -0.6459 -0.6200
17973TIP3   OH275333   2.598   0.240  12.928 -0.2270 -0.1454  0.0100
17973TIP3    H175334   2.574   0.324  12.968 -1.1272 -0.3146 -0.1440
17973TIP3    H275335   2.579   0.175  12.997 -0.1671 -0.2805 -0.1001
17974TIP3   OH275336   3.934   4.893  13.041 -0.0889 -0.4122 -0.2235
17974TIP3    H175337   3.925   4.985  13.064 -0.7570 -0.0763 -1.6728
17974TIP3    H275338   3.885   4.884  12.959  2.3073 -1.4187 -1.6585
17975TIP3   OH275339   4.100   2.591  14.808 -0.1550  0.0177  0.5624
17975TIP3    H175340   4.176   2.646  14.824 -0.8832  0.7333  1.6968
17975TIP3    H275341   4.128   2.504  14.835  1.3955 -0.5225 -2.3189
17976TIP3   OH275342   3.913   1.468   3.454  0.3910 -0.3943 -0.5889
17976TIP3    H175343   3.890   1.521   3.377 -1.0583 -0.1565 -0.0379
17976TIP3    H275344   3.990   1.419   3.427  1.9959  2.1826 -1.0359
17977TIP3   OH275345   4.117   5.391  12.789 -0.8224 -0.2487 -0.2112
17977TIP3    H175346   4.176   5.348  12.727 -1.2313 -1.2199  0.0408
17977TIP3    H275347   4.165   5.466  12.821  0.3943 -1.1770  0.2042
17978TIP3   OH275348   4.695   2.832   3.833  0.1591  0.5793 -0.1755
17978TIP3    H175349   4.710   2.793   3.918  1.1582  1.3073 -0.0005
17978TIP3    H275350   4.604   2.810   3.812  0.6668 -1.7896 -0.0937
17979TIP3   OH275351   1.639   0.941  15.310 -0.2908  0.4177 -0.4562
17979TIP3    H175352   1.666   1.006  15.375  0.4263  1.1407 -1.4595
17979TIP3    H275353   1.588   0.991  15.246 -0.5531 -0.1921 -0.7257
17980TIP3   OH275354   2.422   2.211  16.798  0.2295  0.7124 -0.0923
17980TIP3    H175355   2.416   2.289  16.852  0.5897  0.5096  0.2519
17980TIP3    H275356   2.331   2.188  16.778  0.1139  1.0766  0.0096
17981TIP3   OH275357   0.374   5.393   1.040 -0.3764 -0.1548 -0.1074
17981TIP3    H175358   0.449   5.438   1.079 -0.2436  0.4197 -0.9959
17981TIP3    H275359   0.306   5.397   1.107  0.5349 -1.1363  0.9090
17982TIP3   OH275360   2.489   2.119   1.498  0.4135 -0.2126  0.7682
17982TIP3    H175361   2.406   2.105   1.545 -0.6812 -2.7287 -1.6497
17982TIP3    H275362   2.489   2.213   1.478 -1.8905 -0.1279  0.8527
17983TIP3   OH275363   5.792   5.332   2.237  0.4070 -0.0197  0.0764
17983TIP3    H175364   5.704   5.328   2.200  0.9358  0.2882 -1.2642
17983TIP3    H275365   5.848   5.293   2.170  1.5544  1.5912  0.0410
17984TIP3   OH275366   3.595   4.518   0.572  0.2646 -0.1184 -0.0464
17984TIP3    H175367   3.554   4.587   0.625  3.2306  1.0454  0.9482
17984TIP3    H275368   3.651   4.471   0.633  1.4669 -0.7309 -1.5538
17985TIP3   OH275369   6.633   0.805  12.515 -0.3638  0.4626  0.2835
17985TIP3    H175370   6.638   0.791  12.610  0.6889 -0.5913  0.0893
17985TIP3    H275371   6.595   0.893  12.506 -0.2842  0.6641  1.6730
17986TIP3   OH275372   5.042   3.494  16.584  0.1821 -0.0745  0.1092
17986TIP3    H175373   5.090   3.415  16.607  0.8055  0.2031 -0.2104
17986TIP3    H275374   4.994   3.471  16.504 -0.2480 -0.3615  0.4460
17987TIP3   OH275375   2.601   4.510  11.301  0.7073 -0.0839  0.2154
17987TIP3    H175376   2.683   4.463  11.312  0.8468  0.2753  0.7855
17987TIP3    H275377   2.545   4.478  11.372  0.2722 -0.4812 -0.2926
17988TIP3   OH275378   1.932   3.892  10.719 -0.5459  0.2663  0.2209
17988TIP3    H175379   1.879   3.867  10.643 -0.3246  0.1783  0.0922
17988TIP3    H275380   1.999   3.949  10.682 -0.7912  0.7027  0.4452
17989TIP3   OH275381   6.237   6.696  12.662 -0.3946  0.1314  0.1540
17989TIP3    H175382   6.174   6.768  12.662  0.0408  0.5426 -0.7883
17989TIP3    H275383   6.264   6.687  12.754 -0.9953  0.6918  0.3917
17990TIP3   OH275384   1.255   2.513  13.241  0.9796  0.1322  0.5772
17990TIP3    H175385   1.244   2.527  13.147  0.4146  0.7300  0.7255
17990TIP3    H275386   1.346   2.485  13.251  0.9903 -0.1081 -0.1657
17991TIP3   OH275387   5.586   1.424   2.441  0.6671 -0.6194  0.2266
17991TIP3    H175388   5.675   1.399   2.418  0.1930 -3.1361  0.7302
17991TIP3    H275389   5.538   1.424   2.358  0.7665 -1.0652  0.1683
17992TIP3   OH275390   6.014   1.806   2.108  0.2390 -0.2068 -0.1977
17992TIP3    H175391   6.102   1.832   2.083  0.2074  1.4801  1.2646
17992TIP3    H275392   5.961   1.885   2.096  0.0112  0.4937  3.8907
17993TIP3   OH275393   1.907   0.294  13.707 -0.1073 -0.1248 -0.4162
17993TIP3    H175394   1.814   0.317  13.706 -0.1126 -0.1614 -1.5649
17993TIP3    H275395   1.925   0.259  13.620  0.8851 -0.5476 -0.0658
17994TIP3   OH275396   0.052   0.242   3.095  0.2045  0.2231 -0.0438
17994TIP3    H175397   0.041   0.330   3.132  1.1273 -0.5517  2.2504
17994TIP3    H275398   0.143   0.240   3.066 -0.0186  0.2464 -0.7526
17995TIP3   OH275399   4.639   5.580   0.437 -0.6452 -0.1956 -0.1275
17995TIP3    H175400   4.727   5.618   0.445 -0.6797 -0.1724  0.1422
17995TIP3    H275401   4.654   5.487   0.421 -0.5763 -0.2642  0.3214
17996TIP3   OH275402   2.666   0.014   4.907 -0.3310  0.4717  0.1703
17996TIP3    H175403   2.732   0.063   4.955  0.0396 -0.2028  0.3566
17996TIP3    H275404   2.671   0.048   4.818  0.7217 -0.0329  0.0303
17997TIP3   OH275405   6.207   3.922  11.305 -0.6822 -0.1595 -0.0774
17997TIP3    H175406   6.130   3.867  11.296 -1.7476  0.8320  2.1905
17997TIP3    H275407   6.204   3.954  11.395  0.3888  2.8315 -0.9742
17998TIP3   OH275408   5.903   2.839   2.098  0.1197  0.0460  0.1653
17998TIP3    H175409   5.825   2.791   2.071  0.8789 -0.5613 -1.0605
17998TIP3    H275410   5.887   2.929   2.070 -0.0494 -0.1263 -0.2973
17999TIP3   OH275411   4.211   5.504  11.986 -0.1226  0.3608  0.1748
17999TIP3    H175412   4.287   5.449  12.003  1.0393  0.5243 -3.5281
17999TIP3    H275413   4.152   5.488  12.060  1.8674 -2.6853  1.2899
18000TIP3   OH275414   0.313   2.451  12.761 -0.4427  0.4576 -0.2139
18000TIP3    H175415   0.250   2.457  12.833 -0.8125  1.4114 -0.6033
18000TIP3    H275416   0.326   2.541  12.733  1.3329  0.3219  0.0351
18001TIP3   OH275417   2.310   2.745   0.138 -0.1919 -0.3066 -0.4508
18001TIP3    H175418   2.325   2.837   0.157  1.9370 -0.5874 -0.5802
18001TIP3    H275419   2.243   2.745   0.070 -1.3909  1.0490  0.6797
18002TIP3   OH275420   5.054   2.896  15.011 -0.4244  0.0021 -0.4030
18002TIP3    H175421   5.048   2.937  15.097  0.6495 -0.2616 -0.1908
18002TIP3    H275422   5.147   2.879  14.998 -0.6149 -0.3671 -1.4299
18003TIP3   OH275423   6.737   2.899   3.631  0.1117  0.3073  0.1571
18003TIP3    H175424   6.718   2.973   3.574  0.7176  0.2558 -0.1183
18003TIP3    H275425   6.788   2.936   3.703 -1.3297  0.5220  1.1212
18004TIP3   OH275426   4.178   0.831  17.074  0.0198 -0.4642  0.0477
18004TIP3    H175427   4.183   0.844  17.169 -0.6725 -0.5062  0.1013
18004TIP3    H275428   4.146   0.914  17.040  5.0781  1.4795 -0.7871
18005TIP3   OH275429   1.664   4.682   4.912 -0.1928 -0.0194 -0.0599
18005TIP3    H175430   1.579   4.641   4.899  0.0428 -2.4396  4.0960
18005TIP3    H275431   1.654   4.733   4.993  2.4289 -1.3103  1.2212
18006TIP3   OH275432   1.995   6.070   4.765 -0.4860  0.6810  0.0396
18006TIP3    H175433   1.955   6.045   4.848  1.0379  1.4586  1.0638
18006TIP3    H275434   2.007   6.165   4.772  2.2166  0.4117  0.1792
18007TIP3   OH275435   3.155   3.093  13.844 -0.6479 -0.0146  0.0254
18007TIP3    H175436   3.123   3.161  13.904  0.4869  0.1093  0.5153
18007TIP3    H275437   3.123   3.011  13.881  0.8264 -0.0271  1.3691
18008TIP3   OH275438   1.077   6.220  14.773 -0.0522  0.2910 -0.1026
18008TIP3    H175439   1.001   6.254  14.818  0.1307 -0.3890  0.7549
18008TIP3    H275440   1.151   6.240  14.830  0.1597 -0.7723  0.0275
18009TIP3   OH275441   6.329   1.348   1.933 -0.2095  0.3294 -0.1946
18009TIP3    H175442   6.330   1.286   2.005 -0.6088  0.7477  0.1802
18009TIP3    H275443   6.420   1.355   1.905 -0.2752 -1.1559 -0.8904
18010TIP3   OH275444   6.001   4.947   1.035 -0.2115  0.4962  0.1824
18010TIP3    H175445   5.936   4.939   0.965  0.7066  0.1768 -0.6492
18010TIP3    H275446   6.007   4.859   1.071 -1.9040  0.9849  1.8253
18011TIP3   OH275447   2.766   4.248   5.103  0.0727 -0.6448  0.2968
18011TIP3    H175448   2.694   4.307   5.125  0.6545  0.2267 -0.0466
18011TIP3    H275449   2.770   4.249   5.007 -0.2068 -1.6234  0.2699
18012TIP3   OH275450   0.403   0.240  14.121 -0.1067 -0.2377 -0.0113
18012TIP3    H175451   0.465   0.255  14.192  1.4075 -1.9996 -0.8665
18012TIP3    H275452   0.388   0.145  14.121 -2.2647  0.0517 -0.3045
18013TIP3   OH275453   6.007   1.894  13.936  0.3074  0.8866 -0.7117
18013TIP3    H175454   6.008   1.809  13.893  0.8274  0.3263  0.3633
18013TIP3    H275455   6.041   1.955  13.871  0.2991  0.2114 -1.3568
18014TIP3   OH275456   4.462   4.075   5.104  0.6412 -0.3288 -0.3698
18014TIP3    H175457   4.554   4.097   5.118  0.2047  0.6156  1.2683
18014TIP3    H275458   4.452   3.989   5.145  0.2622  0.7026  1.8482
18015TIP3   OH275459   5.626   2.768   2.344  0.5091  0.1534 -0.7330
18015TIP3    H175460   5.635   2.834   2.412  0.5951 -0.1629 -0.4374
18015TIP3    H275461   5.538   2.781   2.309 -0.3841 -1.1092  0.9382
18016TIP3   OH275462   2.715   2.669  15.257  0.4111  0.3689 -0.1089
18016TIP3    H175463   2.714   2.595  15.197 -1.1448  1.0066 -0.9242
18016TIP3    H275464   2.671   2.637  15.335  1.5032 -0.1357  0.3296
18017TIP3   OH275465   0.799   5.806   2.672  0.3226  0.7787 -0.0389
18017TIP3    H175466   0.804   5.864   2.596  0.8070  1.7347  0.7079
18017TIP3    H275467   0.890   5.779   2.687  0.0162 -0.8717 -0.8787
18018TIP3   OH275468   1.545   3.565  13.558  0.1756  0.0271 -0.6870
18018TIP3    H175469   1.636   3.535  13.567  0.1891 -0.2642 -1.6777
18018TIP3    H275470   1.540   3.643  13.614  1.3003  0.5810 -1.3035
18019TIP3   OH275471   2.911   3.614   5.308  0.3750  0.7613 -0.1152
18019TIP3    H175472   2.979   3.644   5.249  0.4443 -0.3235 -0.6123
18019TIP3    H275473   2.847   3.570   5.252 -0.8865  1.9574  0.3036
18020TIP3   OH275474   5.730   6.417   5.944 -0.8935 -0.0837 -0.0280
18020TIP3    H175475   5.718   6.431   6.038  0.8359 -1.7608  0.5004
18020TIP3    H275476   5.814   6.371   5.937 -0.6796  0.5543 -2.4508
18021TIP3   OH275477   4.221   0.108   4.019  0.0873  0.0420  0.8707
18021TIP3    H175478   4.196   0.115   4.111  1.2870  0.9966  1.1553
18021TIP3    H275479   4.141   0.080   3.974 -0.0919 -2.1855  2.4194
18022TIP3   OH275480   1.382   6.515  11.067  0.3687  0.3393  0.1412
18022TIP3    H175481   1.354   6.607  11.064  2.7816  1.1285 -0.9553
18022TIP3    H275482   1.384   6.494  11.160  0.9586  1.8240  0.4947
18023TIP3   OH275483   6.085   4.637   1.072  0.1725 -0.2949  0.0939
18023TIP3    H175484   5.995   4.647   1.043 -0.2051  3.1663  1.9119
18023TIP3    H275485   6.138   4.670   0.999 -0.3703  1.7481  0.5453
18024TIP3   OH275486   1.815   3.426  10.812  0.0520  0.2588  0.2517
18024TIP3    H175487   1.722   3.403  10.815 -0.2107  1.3437  0.7776
18024TIP3    H275488   1.826   3.474  10.731  0.0979  0.3393  0.3053
18025TIP3   OH275489   1.209   5.396  14.885 -0.2492 -0.3542 -0.2265
18025TIP3    H175490   1.293   5.402  14.931 -0.0992 -0.8884 -0.4274
18025TIP3    H275491   1.143   5.407  14.954 -0.0227 -1.0125  0.1019
18026TIP3   OH275492   5.326   0.496   5.263 -0.2407 -0.4568  0.0436
18026TIP3    H175493   5.336   0.401   5.256  0.2611 -0.2916 -1.8063
18026TIP3    H275494   5.231   0.510   5.262 -0.3369 -0.9396  0.8315
18027TIP3   OH275495   3.952   6.122   2.563  0.0418  0.3924 -0.4568
18027TIP3    H175496   3.880   6.073   2.525 -0.2594  0.3803  0.1203
18027TIP3    H275497   3.953   6.096   2.655  1.1880 -0.0885 -0.5913
18028TIP3   OH275498   4.760   0.878  14.190  0.1833 -0.6976  0.3181
18028TIP3    H175499   4.679   0.906  14.233  0.3493  0.5439 -0.1301
18028TIP3    H275500   4.800   0.960  14.158  2.0851 -1.1483  1.3434
18029TIP3   OH275501   1.829   0.223   5.303  0.4819  0.1488  0.1140
18029TIP3    H175502   1.756   0.171   5.268  0.6776  0.7841 -1.3078
18029TIP3    H275503   1.790   0.276   5.372 -0.0641 -0.6704  0.4493
18030TIP3   OH275504   1.173   5.789  15.357 -0.1483 -0.7738 -0.4328
18030TIP3    H175505   1.251   5.844  15.360  0.2820 -1.3650 -0.7200
18030TIP3    H275506   1.206   5.699  15.357 -0.8353 -1.3790  4.7920
18031TIP3   OH275507   0.502   2.752   3.372 -0.0914  0.5382  0.5723
18031TIP3    H175508   0.510   2.683   3.305 -0.0277  0.5497  0.5682
18031TIP3    H275509   0.479   2.704   3.452 -1.5597  0.6423  0.2514
18032TIP3   OH275510   4.123   5.882   3.137  0.5465 -0.2195  0.4067
18032TIP3    H175511   4.175   5.810   3.102  0.5108 -0.7183  1.3390
18032TIP3    H275512   4.041   5.879   3.089  0.9742 -0.0805 -0.3489
18033TIP3   OH275513   1.102   6.103  15.813  0.0418 -0.6524  0.1919
18033TIP3    H175514   1.036   6.141  15.755 -0.8940 -2.2664  0.1181
18033TIP3    H275515   1.185   6.137  15.780 -0.6002 -0.2146 -1.0548
18034TIP3   OH275516   0.238   1.110  17.044 -0.0706  0.6797 -0.2463
18034TIP3    H175517   0.245   1.090  16.951  2.7824  0.4433 -0.0707
18034TIP3    H275518   0.248   1.025  17.088  0.3984  1.0040  0.2924
18035TIP3   OH275519   1.606   1.434   2.097 -0.6152 -0.4102 -0.7153
18035TIP3    H175520   1.595   1.515   2.147  0.3414  1.1143 -2.7875
18035TIP3    H275521   1.516   1.406   2.078 -0.9986  1.1029 -1.3030
18036TIP3   OH275522   1.753   0.730   4.612  0.1364 -0.5360 -0.6760
18036TIP3    H175523   1.716   0.647   4.643  0.5485 -1.5864 -2.8184
18036TIP3    H275524   1.823   0.749   4.674 -1.4282 -0.5392  1.1876
18037TIP3   OH275525   3.997   4.570   1.268  0.4172  0.0295  0.0411
18037TIP3    H175526   3.956   4.488   1.238  0.1146 -0.4616  1.6372
18037TIP3    H275527   3.985   4.568   1.363  0.3646  1.9719  0.1128
18038TIP3   OH275528   5.721   0.946  11.406 -0.0178  0.1152  0.2438
18038TIP3    H175529   5.802   0.954  11.457 -0.3471 -0.0725  0.8164
18038TIP3    H275530   5.681   0.866  11.439 -0.1423 -0.1137 -0.4654
18039TIP3   OH275531   0.112   6.350  14.468 -0.2332 -0.3801 -0.1600
18039TIP3    H175532   0.066   6.404  14.404  1.6073 -0.7439 -1.9012
18039TIP3    H275533   0.138   6.411  14.537  0.8600  0.8378 -1.5624
18040TIP3   OH275534   6.340   4.045  13.569 -0.1013  0.2577  0.1140
18040TIP3    H175535   6.390   4.114  13.613 -0.5127  1.7257 -1.5794
18040TIP3    H275536   6.405   3.981  13.542  0.6841  1.3241 -0.6111
18041TIP3   OH275537   5.043   1.909  14.969 -0.0164 -0.1415  0.3284
18041TIP3    H175538   5.100   1.897  14.893 -0.3273 -0.0591  0.0795
18041TIP3    H275539   5.085   1.859  15.039  0.6331  0.3277  0.2894
18042TIP3   OH275540   0.650   1.767   4.204  0.1478 -0.7620 -0.1556
18042TIP3    H175541   0.704   1.688   4.195 -1.8129 -2.1032 -0.9951
18042TIP3    H275542   0.563   1.733   4.228 -0.8825  1.0933 -1.0443
18043TIP3   OH275543   6.152   0.211   4.934  0.0270 -0.0108  0.3301
18043TIP3    H175544   6.096   0.276   4.978 -0.8536  0.2756 -1.1687
18043TIP3    H275545   6.241   0.240   4.954 -0.3552  1.3148  0.2230
18044TIP3   OH275546   3.965   6.785  15.731  0.6322  0.0939  0.2477
18044TIP3    H175547   3.935   6.848  15.665  1.6173  0.3905  0.0659
18044TIP3    H275548   3.942   6.699  15.695  1.9389  0.2022 -0.9183
18045TIP3   OH275549   4.782   2.904  11.584  0.5931  0.1287 -0.4986
18045TIP3    H175550   4.858   2.874  11.633 -0.3359 -1.4279  0.0434
18045TIP3    H275551   4.742   2.824  11.550 -2.0693  0.6767  1.1014
18046TIP3   OH275552   5.290   6.568   5.157 -0.1854  0.4623  0.2725
18046TIP3    H175553   5.257   6.556   5.246  0.1089  0.1681  0.3452
18046TIP3    H275554   5.316   6.480   5.129 -0.6934  0.4746 -0.2727
18047TIP3   OH275555   6.261   4.138   1.527  0.6668  0.5789  0.0863
18047TIP3    H175556   6.351   4.138   1.495  0.2053 -0.3927 -1.2877
18047TIP3    H275557   6.268   4.108   1.618  1.7052  0.2469 -0.0890
18048TIP3   OH275558   1.638   3.569   0.861  0.1714 -0.3381 -0.2122
18048TIP3    H175559   1.622   3.494   0.918  2.5786 -3.1742 -2.9461
18048TIP3    H275560   1.725   3.600   0.886 -0.0508  0.4175 -0.3318
18049TIP3   OH275561   0.393   2.422  14.111  0.3185 -0.7887 -0.2607
18049TIP3    H175562   0.331   2.489  14.141  0.6595 -0.6912  0.2415
18049TIP3    H275563   0.358   2.394  14.026 -1.5820 -2.2249  0.9077
18050TIP3   OH275564   4.574   0.049  11.544 -0.2568  0.2036  0.4861
18050TIP3    H175565   4.478   0.039  11.548 -0.1639 -0.6608  1.0377
18050TIP3    H275566   4.599   0.005  11.463 -0.3608  0.7100  0.1814
18051TIP3   OH275567   0.065   4.256   6.455  0.1905 -0.0554  0.4090
18051TIP3    H175568   0.058   4.164   6.430  1.5129 -0.8000  2.4757
18051TIP3    H275569   0.140   4.288   6.405  0.4487 -0.4435  0.5381
18052TIP3   OH275570   4.786   2.754  12.284 -0.1339 -0.5412  0.5954
18052TIP3    H175571   4.849   2.824  12.301  0.6878 -1.1328  0.0674
18052TIP3    H275572   4.750   2.733  12.370  1.1746 -0.9105  1.0797
18053TIP3   OH275573   1.739   3.303   0.731  0.3393  0.3602 -0.8471
18053TIP3    H175574   1.814   3.297   0.672  1.1493 -1.0221  0.2712
18053TIP3    H275575   1.747   3.390   0.771  0.2309  0.9899 -2.1382
18054TIP3   OH275576   2.155   6.277   0.227 -0.2250  0.7670  0.2694
18054TIP3    H175577   2.150   6.225   0.307  0.0928 -0.4566 -0.4880
18054TIP3    H275578   2.247   6.302   0.220  0.0730 -0.4704 -0.5226
18055TIP3   OH275579   6.394   3.679   2.942 -0.1660 -0.1810 -0.4783
18055TIP3    H175580   6.389   3.705   2.850 -0.4506  0.2388 -0.3469
18055TIP3    H275581   6.451   3.744   2.982 -0.5887  0.0420 -0.2245
18056TIP3   OH275582   3.348   6.029  12.932  0.1647 -0.2187  0.3182
18056TIP3    H175583   3.416   6.069  12.986 -0.9338  0.4619  1.2463
18056TIP3    H275584   3.279   6.095  12.927 -1.6133 -1.8237  1.7072
18057TIP3   OH275585   2.805   3.377   3.550  0.8864  0.2693  0.1732
18057TIP3    H175586   2.851   3.350   3.471  2.9541  0.7132  1.1369
18057TIP3    H275587   2.746   3.447   3.522 -2.0312 -2.6778 -1.7367
18058TIP3   OH275588   5.138   5.407   0.563  0.2809 -0.2145 -0.3764
18058TIP3    H175589   5.190   5.337   0.604 -0.5224  0.9000  2.8940
18058TIP3    H275590   5.203   5.470   0.532  0.9527 -0.9341 -0.4742
18059TIP3   OH275591   3.388   6.246   5.070  0.2480 -0.1286  0.2206
18059TIP3    H175592   3.409   6.264   5.161  0.5497 -0.2900  0.1841
18059TIP3    H275593   3.412   6.326   5.023 -0.6968  0.2741  0.3950
18060TIP3   OH275594   0.305   2.326  13.224 -0.4062  0.1038 -0.6667
18060TIP3    H175595   0.250   2.252  13.249 -1.1228  1.0796  0.8673
18060TIP3    H275596   0.248   2.403  13.238 -0.1512  0.9175 -3.4463
18061TIP3   OH275597   3.753   6.094  16.122  0.5245 -0.3513  0.0613
18061TIP3    H175598   3.695   6.165  16.094 -0.4787 -1.3426 -0.4569
18061TIP3    H275599   3.830   6.101  16.065  1.5034  1.7012  1.5266
18062TIP3   OH275600   6.469   3.213  12.533  0.3927  0.5931 -0.2303
18062TIP3    H175601   6.429   3.169  12.608 -1.3408  0.6577 -1.0695
18062TIP3    H275602   6.395   3.250  12.485  1.6284  2.7521 -0.6282
18063TIP3   OH275603   1.750   2.665  12.995 -0.7766  0.2733  0.4341
18063TIP3    H175604   1.768   2.683  13.087  2.1200  2.1674 -0.3655
18063TIP3    H275605   1.687   2.732  12.969  0.7172  1.7104  0.3820
18064TIP3   OH275606   1.668   0.937  10.429 -0.2539  0.0292  0.0396
18064TIP3    H175607   1.682   0.843  10.438  2.3371  0.5051  2.4052
18064TIP3    H275608   1.573   0.948  10.429 -0.6106 -2.5572 -0.3275
18065TIP3   OH275609   5.189   4.077  12.093  0.9985 -0.5297  0.3218
18065TIP3    H175610   5.113   4.134  12.099  0.5466 -0.9127 -1.3308
18065TIP3    H275611   5.152   3.988  12.090  1.3928 -0.6627 -1.7960
18066TIP3   OH275612   3.061   3.098   1.452 -0.3123 -0.1944  0.4078
18066TIP3    H175613   3.087   3.180   1.410  1.8964 -1.0783 -0.0756
18066TIP3    H275614   3.097   3.105   1.541  0.3983 -0.8631  0.1797
18067TIP3   OH275615   2.372   0.997  12.799 -0.6494  0.8133  0.2177
18067TIP3    H175616   2.323   0.971  12.876  1.2450 -0.9012  0.9470
18067TIP3    H275617   2.464   0.980  12.822  0.0252  0.8244 -2.1671
18068TIP3   OH275618   1.992   1.647  13.488 -0.1246  0.4602  0.2641
18068TIP3    H175619   1.940   1.576  13.527 -0.1644  1.0829  1.3673
18068TIP3    H275620   1.973   1.723  13.541  2.0681  0.6774  0.8304
18069TIP3   OH275621   0.063   4.676  16.332 -0.0032 -0.3722  0.1223
18069TIP3    H175622   0.082   4.711  16.419 -0.9354  1.6019 -0.3961
18069TIP3    H275623   0.137   4.704  16.278 -0.5406  0.4921 -0.1975
18070TIP3   OH275624   2.041   0.811   2.809  0.0871  0.2652 -0.4198
18070TIP3    H175625   2.013   0.801   2.718  0.1876  0.3836 -0.4634
18070TIP3    H275626   1.962   0.793   2.860 -0.2546  1.3227 -0.5619
18071TIP3   OH275627   1.158   2.927  17.086  0.6056  0.1707 -0.0107
18071TIP3    H175628   1.156   2.943  17.180 -1.2720  1.5170 -0.2276
18071TIP3    H275629   1.248   2.946  17.060  0.7385  1.4214  1.2697
18072TIP3   OH275630   2.632   2.751   2.883  0.1431  0.0237  0.1067
18072TIP3    H175631   2.677   2.824   2.927 -0.2869  0.5069 -0.2486
18072TIP3    H275632   2.648   2.676   2.940  0.2538  0.4801  0.6894
18073TIP3   OH275633   3.100   0.900   4.922 -0.3051  0.1863  0.0894
18073TIP3    H175634   3.034   0.969   4.930  0.4748  1.0008 -0.2365
18073TIP3    H275635   3.176   0.944   4.883 -0.5334 -1.3319 -2.3018
18074TIP3   OH275636   2.450   1.231   5.612  0.4224  0.5096  0.4993
18074TIP3    H175637   2.476   1.149   5.655  0.7074  0.0700 -0.4756
18074TIP3    H275638   2.373   1.207   5.560  1.2634  0.5181 -0.8149
18075TIP3   OH275639   2.896   3.497  16.618  0.1867 -0.2881 -0.0366
18075TIP3    H175640   2.951   3.442  16.562  1.8662  0.4933  0.7677
18075TIP3    H275641   2.816   3.511  16.566  1.5049  0.0844 -2.1108
18076TIP3   OH275642   6.332   5.512  15.000  0.2019 -0.1883  0.1267
18076TIP3    H175643   6.377   5.459  14.934 -1.4538 -0.6359 -0.6671
18076TIP3    H275644   6.373   5.485  15.083 -0.9811 -3.2470 -0.1373
18077TIP3   OH275645   0.409   1.789   4.765  0.4767  0.2927 -0.1223
18077TIP3    H175646   0.325   1.835   4.773  1.3549  1.9757 -0.0173
18077TIP3    H275647   0.424   1.783   4.671 -0.3152 -1.1226 -0.1760
18078TIP3   OH275648   6.409   5.333  16.890 -0.1641 -0.6368  0.1088
18078TIP3    H175649   6.323   5.291  16.886  0.7766 -2.6396 -0.0706
18078TIP3    H275650   6.470   5.266  16.859  1.2867  1.3196 -1.5619
18079TIP3   OH275651   4.093   6.234  13.504 -0.3529 -0.2648  0.3070
18079TIP3    H175652   4.031   6.214  13.574 -0.1684  1.9475  1.1623
18079TIP3    H275653   4.039   6.255  13.429 -0.5571 -2.1855 -0.1245
18080TIP3   OH275654   5.994   0.717  17.124  0.3395  0.6880  0.4543
18080TIP3    H175655   5.921   0.708  17.062  1.4135 -1.4254 -0.6562
18080TIP3    H275656   6.071   0.733  17.068  1.0242  0.8572  1.4189
18081TIP3   OH275657   0.518   1.127  16.181  0.0163  0.3483 -0.0736
18081TIP3    H175658   0.494   1.214  16.213 -0.9859 -0.2387  0.8221
18081TIP3    H275659   0.473   1.120  16.096  0.3520  0.8127 -0.2958
18082TIP3   OH275660   5.706   2.006  14.946 -0.0116 -0.1885  0.4066
18082TIP3    H175661   5.635   1.987  14.885 -0.6362 -0.2592  1.1354
18082TIP3    H275662   5.686   2.093  14.980  1.0197  0.3905 -0.4170
18083TIP3   OH275663   0.733   2.091  12.160 -0.1307 -0.2072 -0.0170
18083TIP3    H175664   0.803   2.154  12.140  1.1291 -1.7595 -0.7816
18083TIP3    H275665   0.706   2.112  12.249  0.6546  1.0298 -0.0419
18084TIP3   OH275666   4.931   6.506   2.005 -0.3032  0.3933  0.0052
18084TIP3    H175667   4.970   6.567   1.943  0.2381  0.8693  0.7969
18084TIP3    H275668   4.872   6.560   2.059  0.8223  0.4198  1.2665
18085TIP3   OH275669   3.988   0.695  13.033  0.1138  0.3876 -0.3189
18085TIP3    H175670   3.912   0.637  13.030  0.9555 -0.7579 -0.1312
18085TIP3    H275671   3.999   0.725  12.942 -0.0397 -0.1529 -0.5227
18086TIP3   OH275672   6.271   5.637   4.337 -0.0454  0.4082 -0.4277
18086TIP3    H175673   6.193   5.651   4.283  0.4082 -0.0651 -1.2277
18086TIP3    H275674   6.255   5.553   4.380  1.4948 -1.5274 -3.3352
18087TIP3   OH275675   2.693   3.249  16.420  0.2384 -0.1771  0.2693
18087TIP3    H175676   2.767   3.285  16.468  0.2301  2.3179 -1.4167
18087TIP3    H275677   2.731   3.187  16.358  0.3459 -2.5892  2.5763
18088TIP3   OH275678   4.525   4.467   3.268  0.7939 -0.1149  0.6854
18088TIP3    H175679   4.483   4.480   3.183  0.4580 -3.1690  0.2742
18088TIP3    H275680   4.453   4.462   3.331  0.9976  1.3616  1.0649
18089TIP3   OH275681   2.140   5.545   3.175  0.2839  0.3558 -0.4820
18089TIP3    H175682   2.052   5.527   3.140 -0.1571 -0.0692  0.7978
18089TIP3    H275683   2.126   5.610   3.244  1.1972  1.5028 -1.3332
18090TIP3   OH275684   0.263   5.952   4.521 -0.1280  0.1788 -0.3881
18090TIP3    H175685   0.265   6.008   4.443  0.5660  1.3227  0.4240
18090TIP3    H275686   0.348   5.907   4.519  0.1978  0.7679  0.0991
18091TIP3   OH275687   1.345   0.488   5.000  0.5291  0.9866  0.7878
18091TIP3    H175688   1.369   0.581   4.993  0.9373  0.9693  1.7697
18091TIP3    H275689   1.330   0.474   5.093 -1.0982  0.4279  0.4733
18092TIP3   OH275690   6.305   5.505  12.670  0.3800 -0.5678  0.3069
18092TIP3    H175691   6.359   5.531  12.596  1.1829 -1.5929  0.5194
18092TIP3    H275692   6.266   5.421  12.644 -0.7732 -0.0562  0.3280
18093TIP3   OH275693   0.020   3.879  16.132 -0.2747 -0.3047  0.1837
18093TIP3    H175694   0.059   3.929  16.203 -0.1430  0.5611 -0.4822
18093TIP3    H275695   0.088   3.816  16.108 -0.5691 -1.0563  1.2458
18094TIP3   OH275696   4.179   0.932  16.017  0.6337  0.4994 -0.2224
18094TIP3    H175697   4.176   0.994  15.944 -1.7790  0.8514  0.1032
18094TIP3    H275698   4.129   0.856  15.986  3.1619 -1.1869 -0.4488
18095TIP3   OH275699   1.933   1.852   1.439  0.5082 -0.7201  0.0798
18095TIP3    H175700   1.913   1.904   1.517  0.5676 -2.0688  1.0232
18095TIP3    H275701   2.022   1.878   1.415  0.3832 -0.0882  0.2833
18096TIP3   OH275702   0.586   4.523  15.515  0.1291 -0.2723  0.5035
18096TIP3    H175703   0.604   4.430  15.525 -0.2746 -0.3516  0.4742
18096TIP3    H275704   0.669   4.560  15.483  0.5876 -0.4593  1.4484
18097TIP3   OH275705   2.905   5.331  13.795 -0.3404  0.2836  0.8698
18097TIP3    H175706   2.824   5.374  13.822 -0.2619  1.4304 -0.5690
18097TIP3    H275707   2.882   5.284  13.715  0.4746  0.9340  0.2320
18098TIP3   OH275708   3.249   5.882   3.569  0.3751 -0.3938 -0.0799
18098TIP3    H175709   3.215   5.922   3.489  2.0538 -1.6021 -1.4677
18098TIP3    H275710   3.278   5.956   3.623 -0.8499  0.4373 -0.5223
18099TIP3   OH275711   6.408   1.394   2.446  0.0932 -0.6448 -0.0658
18099TIP3    H175712   6.479   1.422   2.388  1.4664 -1.5694  1.1020
18099TIP3    H275713   6.413   1.299   2.446 -1.1165 -0.7267  0.1153
18100TIP3   OH275714   4.387   3.595  13.749  0.1161  0.0647 -0.1817
18100TIP3    H175715   4.307   3.643  13.727  0.2632  0.1216 -0.6088
18100TIP3    H275716   4.447   3.663  13.782  0.6059  0.3251 -1.5417
18101TIP3   OH275717   5.599   2.127   1.200  0.4813  0.6135 -0.3828
18101TIP3    H175718   5.545   2.117   1.122 -1.6790  0.1815  1.0834
18101TIP3    H275719   5.603   2.039   1.238  0.9255  0.9358  0.3443
18102TIP3   OH275720   5.036   3.834   2.395  0.2980 -0.3837  0.5260
18102TIP3    H175721   5.120   3.791   2.408 -0.2592 -1.4658  0.6734
18102TIP3    H275722   4.989   3.821   2.477  0.6012  1.7111  1.0878
18103TIP3   OH275723   2.196   2.378  15.338  0.0617 -0.1538  0.4849
18103TIP3    H175724   2.126   2.430  15.376  1.5246  1.5690  0.9364
18103TIP3    H275725   2.181   2.289  15.372 -0.3396  0.7348  2.7950
18104TIP3   OH275726   6.630   3.616   4.154  0.4827  0.6756  0.1008
18104TIP3    H175727   6.538   3.624   4.178 -0.0911  1.7163 -2.1306
18104TIP3    H275728   6.675   3.681   4.207 -0.3601  1.4030 -0.0643
18105TIP3   OH275729   1.816   0.550   5.214  0.0248  0.8306 -0.1612
18105TIP3    H175730   1.817   0.621   5.278  0.2753  1.0841 -0.4456
18105TIP3    H275731   1.725   0.520   5.213 -0.1129  1.2454 -0.1502
18106TIP3   OH275732   5.767   1.261   4.554 -0.5562 -0.0540  0.1219
18106TIP3    H175733   5.772   1.318   4.631 -0.3531 -0.4598  0.4127
18106TIP3    H275734   5.766   1.172   4.590 -1.2346 -0.2251 -0.3153
18107TIP3   OH275735   1.278   3.361  17.168  0.0405  0.1284 -0.1956
18107TIP3    H175736   1.306   3.388  17.080 -0.0854  0.3016 -0.1831
18107TIP3    H275737   1.197   3.312  17.153  0.6552 -0.8849 -0.2847
18108TIP3   OH275738   3.774   3.700  12.098  0.0075  0.1778  0.3786
18108TIP3    H175739   3.739   3.734  12.180 -0.7157 -1.3220  0.7397
18108TIP3    H275740   3.816   3.617  12.123  1.4337  0.6036 -0.4832
18109TIP3   OH275741   5.646   1.179  11.272 -0.4847  0.2690 -0.6211
18109TIP3    H175742   5.652   1.098  11.322 -0.8609  0.3183 -0.4889
18109TIP3    H275743   5.735   1.196  11.243 -0.2750  0.1984 -0.0311
18110TIP3   OH275744   4.184   6.556  15.673 -0.0410 -0.2940  0.1636
18110TIP3    H175745   4.157   6.579  15.584  0.0331  0.0248  0.2223
18110TIP3    H275746   4.155   6.465  15.684  0.5571 -0.5592 -0.4257
18111TIP3   OH275747   3.872   2.820   1.300 -0.3518 -0.1883 -0.1238
18111TIP3    H175748   3.855   2.859   1.214 -1.5997  0.4730  0.3926
18111TIP3    H275749   3.961   2.784   1.293 -0.6226 -0.6291 -1.8532
18112TIP3   OH275750   4.884   5.032   2.656  0.4723  0.0432  0.0968
18112TIP3    H175751   4.856   5.039   2.564 -0.3543 -1.7357  0.1704
18112TIP3    H275752   4.818   5.080   2.705  1.6866  2.2522 -0.2932
18113TIP3   OH275753   3.644   3.194   0.619 -0.4727 -0.0649 -0.1153
18113TIP3    H175754   3.563   3.144   0.614 -0.6348  0.3267 -1.6273
18113TIP3    H275755   3.651   3.240   0.535  0.8590  0.6149  0.3252
18114TIP3   OH275756   1.401   2.741   2.788  0.0198  0.7101 -0.4498
18114TIP3    H175757   1.424   2.709   2.876  2.0599 -0.2307 -1.2682
18114TIP3    H275758   1.324   2.691   2.764  1.2611 -1.3615 -0.3889
18115TIP3   OH275759   2.662   3.054  16.157  0.2087  0.3195 -0.1292
18115TIP3    H175760   2.629   2.967  16.178 -0.3262  0.5707  0.0951
18115TIP3    H275761   2.584   3.109  16.156  0.6590  0.9925  0.7446
18116TIP3   OH275762   2.259   4.703   1.078  0.2627 -0.2288  0.3137
18116TIP3    H175763   2.263   4.720   0.984 -0.3325  1.2160  0.5259
18116TIP3    H275764   2.166   4.690   1.096  0.2287  0.7183  0.8838
18117TIP3   OH275765   2.448   5.423   2.581  0.2131 -0.0008  0.0039
18117TIP3    H175766   2.380   5.413   2.647 -1.2693 -0.8072 -1.5600
18117TIP3    H275767   2.511   5.353   2.600  0.3812  0.4703  1.2004
18118TIP3   OH275768   3.691   6.417  17.056 -0.2010  0.2114 -0.5711
18118TIP3    H175769   3.736   6.350  17.005 -0.2172  0.9427 -1.5734
18118TIP3    H275770   3.622   6.449  16.998 -1.6233 -0.4280  0.6980
18119TIP3   OH275771   2.654   4.411   3.508 -0.5302  0.1706 -0.2225
18119TIP3    H175772   2.669   4.451   3.594  1.4256 -2.3077  0.6969
18119TIP3    H275773   2.683   4.477   3.445  2.3231  0.4184  1.2048
18120TIP3   OH275774   4.597   1.437  12.203  0.1558  0.1638  0.3613
18120TIP3    H175775   4.619   1.384  12.126 -0.5515 -0.3021  0.4640
18120TIP3    H275776   4.672   1.426  12.261 -0.0417 -0.8587  0.4426
18121TIP3   OH275777   1.866   1.163  12.723  0.4522 -0.2027  0.2067
18121TIP3    H175778   1.904   1.086  12.680  0.0898  0.0360 -0.5603
18121TIP3    H275779   1.863   1.229  12.655  0.9604  0.5700  0.9209
18122TIP3   OH275780   0.401   2.991  11.572 -0.0632 -0.1399  0.1305
18122TIP3    H175781   0.457   2.937  11.516 -0.2833  0.4057 -0.6297
18122TIP3    H275782   0.332   3.023  11.513 -0.6137 -0.0081  0.8396
18123TIP3   OH275783   1.847   0.047   6.080 -0.1841  0.8249  0.1195
18123TIP3    H175784   1.799   0.015   6.156  0.2960 -1.1135 -0.3347
18123TIP3    H275785   1.911   0.108   6.117  0.8800 -0.9941  1.4937
18124TIP3   OH275786   5.181   3.780  14.343  0.0341 -0.1900 -0.0675
18124TIP3    H175787   5.098   3.826  14.331  0.0703  0.0172  0.4290
18124TIP3    H275788   5.245   3.831  14.293  0.2693  0.9019  1.2840
18125TIP3   OH275789   2.125   3.428   0.703 -0.3746  0.6421  0.2730
18125TIP3    H175790   2.186   3.437   0.776 -0.2392  0.2303  0.2095
18125TIP3    H275791   2.140   3.506   0.650 -0.0386  0.6377  0.3582
18126TIP3   OH275792   6.673   2.482  13.091 -0.2765 -0.7309 -0.5082
18126TIP3    H175793   6.631   2.542  13.031 -1.7791 -1.3101 -0.0786
18126TIP3    H275794   6.628   2.398  13.077 -1.2446 -0.6961  1.9481
18127TIP3   OH275795   6.122   0.944  13.685  0.5967 -0.3039  0.2194
18127TIP3    H175796   6.186   0.908  13.622  0.3930 -0.6003  0.1767
18127TIP3    H275797   6.046   0.886  13.677 -0.4246  1.1550 -1.1027
18128TIP3   OH275798   3.604   0.981   0.573 -0.3738  0.0562  0.5277
18128TIP3    H175799   3.620   0.938   0.489  0.5823  1.1335  0.1201
18128TIP3    H275800   3.536   0.928   0.615 -1.2730 -0.2142 -1.1537
18129TIP3   OH275801   0.538   6.406   3.203 -0.1738 -0.3369 -0.2178
18129TIP3    H175802   0.607   6.385   3.141 -0.3280 -0.8396 -0.2277
18129TIP3    H275803   0.459   6.411   3.150 -0.0656  0.8163 -0.2963
18130TIP3   OH275804   6.684   5.153  11.106 -0.2425  0.0518 -0.6834
18130TIP3    H175805   6.738   5.208  11.048  0.2788  2.0959  1.5964
18130TIP3    H275806   6.745   5.091  11.144  0.1889  1.1292  0.4437
18131TIP3   OH275807   2.283   2.346  10.950  0.2847 -0.5137 -0.5488
18131TIP3    H175808   2.319   2.398  10.878 -0.5073 -1.1075 -1.4094
18131TIP3    H275809   2.191   2.332  10.925 -0.1395 -0.3155  0.8310
18132TIP3   OH275810   6.283   3.338   3.278 -0.0937 -0.0235 -0.4797
18132TIP3    H175811   6.207   3.289   3.244 -1.0283  0.6918  0.4999
18132TIP3    H275812   6.288   3.416   3.223 -1.5996  1.1289  0.8948
18133TIP3   OH275813   6.655   2.528   1.807 -0.1206 -0.2300 -0.1220
18133TIP3    H175814   6.678   2.554   1.718  2.1943 -2.3105 -0.2471
18133TIP3    H275815   6.672   2.606   1.860 -1.0612  0.8841 -1.3827
18134TIP3   OH275816   3.805   5.177   4.962 -0.2316  0.5283  0.5162
18134TIP3    H175817   3.739   5.139   4.904  0.1617 -0.9363  0.9812
18134TIP3    H275818   3.759   5.247   5.007 -0.8893  0.8773 -0.6419
18135TIP3   OH275819   4.089   2.585  13.848 -0.0111 -0.2040 -0.5579
18135TIP3    H175820   4.030   2.660  13.854  0.8181  0.5225 -1.1569
18135TIP3    H275821   4.035   2.515  13.812 -0.8304  0.0723  0.1188
18136TIP3   OH275822   0.572   0.593  12.749  0.8114 -0.1452 -0.5357
18136TIP3    H175823   0.540   0.664  12.694 -0.1376  0.0171  0.2115
18136TIP3    H275824   0.611   0.637  12.825  1.6450 -0.3845 -0.8088
18137TIP3   OH275825   0.904   1.896   3.409 -0.0425 -0.6347 -0.1387
18137TIP3    H175826   0.964   1.847   3.352  0.2544 -1.3317  0.7383
18137TIP3    H275827   0.838   1.831   3.435 -1.0989  0.0839 -0.9565
18138TIP3   OH275828   4.931   0.971   0.658  0.0938 -0.2261 -0.3625
18138TIP3    H175829   4.940   1.031   0.732 -2.2663  0.8258 -0.8173
18138TIP3    H275830   4.919   1.028   0.582 -2.4517 -1.1628 -0.7771
18139TIP3   OH275831   6.682   4.076  13.910 -0.5194 -0.1542  0.0105
18139TIP3    H175832   6.647   3.998  13.954  2.0154 -1.4185 -0.0090
18139TIP3    H275833   6.711   4.043  13.824  0.0167  0.9453 -0.2455
18140TIP3   OH275834   2.476   2.115   6.146  0.2143  0.5511  0.1990
18140TIP3    H175835   2.555   2.061   6.151 -0.1730 -0.2168 -1.3593
18140TIP3    H275836   2.438   2.094   6.061 -1.9904  0.4352  1.1367
18141TIP3   OH275837   0.543   6.257  11.652  0.5481 -0.3203 -0.0419
18141TIP3    H175838   0.529   6.163  11.661 -1.0937  0.0649  1.9295
18141TIP3    H275839   0.559   6.289  11.741  1.5969  1.2253 -0.7237
18142TIP3   OH275840   3.291   5.866  14.010 -0.4015 -0.0353  0.4568
18142TIP3    H175841   3.385   5.884  14.015 -0.5607  0.7330  0.8028
18142TIP3    H275842   3.264   5.904  13.927 -0.1416 -1.5635 -0.3559
18143TIP3   OH275843   5.757   6.416  16.559  0.5140  0.2025  0.0492
18143TIP3    H175844   5.725   6.465  16.634  0.8661  0.2731  0.1585
18143TIP3    H275845   5.841   6.457  16.538  0.4798  0.0975 -0.2980
18144TIP3   OH275846   2.439   3.976   2.645 -0.4200  0.3866 -0.1227
18144TIP3    H175847   2.364   4.034   2.642 -0.3653  0.4293 -1.5164
18144TIP3    H275848   2.492   4.001   2.569  1.5448  1.0558  1.3732
18145TIP3   OH275849   5.210   5.548  13.773 -0.5617  0.5924  0.1306
18145TIP3    H175850   5.287   5.566  13.827 -0.8189  2.9917 -0.1685
18145TIP3    H275851   5.148   5.506  13.832  0.0043  1.1005  1.1154
18146TIP3   OH275852   4.364   4.420  14.211  0.5129  0.2662 -0.1378
18146TIP3    H175853   4.382   4.390  14.122 -1.2685 -0.7958 -0.1894
18146TIP3    H275854   4.360   4.339  14.263  1.7677  0.8850  0.9833
18147TIP3   OH275855   0.395   4.041  16.024 -1.0391 -0.0349  0.6373
18147TIP3    H175856   0.420   4.132  16.010  0.1249 -0.3512  0.5470
18147TIP3    H275857   0.311   4.032  15.979 -0.8939  0.8475  0.1657
18148TIP3   OH275858   2.157   3.034   2.496 -0.0022  0.2479 -0.4361
18148TIP3    H175859   2.229   3.063   2.441  0.0787  0.5570 -0.1708
18148TIP3    H275860   2.199   2.980   2.563  0.4114  2.7713  1.4703
18149TIP3   OH275861   1.336   3.888  11.582 -0.5946  0.2073  0.1835
18149TIP3    H175862   1.303   3.934  11.504 -3.0089 -0.7557  0.5660
18149TIP3    H275863   1.354   3.799  11.551  5.2310  1.3350 -0.8625
18150TIP3   OH275864   2.786   2.748   4.471 -0.3274 -0.5013 -0.3079
18150TIP3    H175865   2.697   2.713   4.463 -0.1194 -0.7812 -1.4331
18150TIP3    H275866   2.813   2.722   4.559 -0.8604 -1.5843 -0.4464
18151TIP3   OH275867   4.884   5.096   1.920  0.1594 -0.0819 -0.3969
18151TIP3    H175868   4.955   5.115   1.858 -0.5807  1.3166 -0.8625
18151TIP3    H275869   4.805   5.127   1.876 -0.5914 -0.5201  0.6135
18152TIP3   OH275870   6.459   1.543  15.892 -0.0769 -0.3373  0.1805
18152TIP3    H175871   6.399   1.477  15.926 -1.4475  0.8826  0.2229
18152TIP3    H275872   6.470   1.605  15.964 -0.4034  0.5214 -0.4924
18153TIP3   OH275873   1.171   2.722  14.989  0.2405  0.0202 -0.2280
18153TIP3    H175874   1.123   2.736  15.071 -0.1777  0.1212 -0.4879
18153TIP3    H275875   1.130   2.783  14.927 -0.9557 -1.6028 -1.1349
18154TIP3   OH275876   5.420   1.346  16.097 -0.1943 -0.0594 -0.2215
18154TIP3    H175877   5.477   1.402  16.150  0.2718 -0.2772 -0.4889
18154TIP3    H275878   5.444   1.366  16.006  1.9654 -2.6717 -0.3515
18155TIP3   OH275879   1.529   0.846  12.530  0.1305  0.1879  0.1445
18155TIP3    H175880   1.518   0.801  12.446  0.9092  1.2154 -0.5264
18155TIP3    H275881   1.446   0.892  12.543 -0.5848 -1.1926  0.7233
18156TIP3   OH275882   2.848   6.605   4.819  0.6887  0.9116  0.1983
18156TIP3    H175883   2.866   6.620   4.726 -1.5090  0.3051 -0.3657
18156TIP3    H275884   2.774   6.662   4.838  0.7866  0.6389  1.4715
18157TIP3   OH275885   5.821   0.977   1.403  0.2201 -0.3338 -0.5172
18157TIP3    H175886   5.807   0.962   1.310  0.6032 -0.7803 -0.5088
18157TIP3    H275887   5.911   0.947   1.419 -0.0092 -0.7211  0.0887
18158TIP3   OH275888   2.070   4.957  10.387  0.1934  0.4660  0.2742
18158TIP3    H175889   1.988   4.910  10.404 -0.5436  1.6089 -0.0479
18158TIP3    H275890   2.061   5.040  10.433  2.2496 -0.3600  2.4137
18159TIP3   OH275891   6.507   3.554   0.157  0.1078 -0.2313  0.3234
18159TIP3    H175892   6.485   3.628   0.214 -0.7694  1.5176 -2.1459
18159TIP3    H275893   6.422   3.513   0.137  0.3011 -0.2855 -0.4032
18160TIP3   OH275894   5.773   0.109  17.063  0.1454  0.4328 -0.4937
18160TIP3    H175895   5.726   0.045  17.011  1.0726  0.4552 -1.3770
18160TIP3    H275896   5.812   0.058  17.134 -0.1849  0.2300 -0.4544
18161TIP3   OH275897   2.659   6.559  11.065 -0.5504  0.1094 -0.0030
18161TIP3    H175898   2.601   6.584  10.993 -1.6855  3.7077  1.9299
18161TIP3    H275899   2.601   6.519  11.130  0.0679 -0.9631 -0.0910
18162TIP3   OH275900   1.322   0.329  13.389  0.0874 -0.3474  0.5114
18162TIP3    H175901   1.240   0.355  13.346  0.6395  0.2947 -0.1745
18162TIP3    H275902   1.294   0.297  13.475 -0.8681  0.0302  0.3625
18163TIP3   OH275903   2.250   2.977  13.550  0.0022  0.5828 -0.3134
18163TIP3    H175904   2.262   2.899  13.496  0.6471 -0.1733  0.8719
18163TIP3    H275905   2.329   3.029  13.538  0.0795  0.4874 -0.2173
18164TIP3   OH275906   5.359   1.400   1.420  0.7524  0.0005 -0.0302
18164TIP3    H175907   5.302   1.327   1.445  1.2514  0.0152  1.1910
18164TIP3    H275908   5.439   1.358   1.389  0.3526  0.0010 -1.1328
18165TIP3   OH275909   5.524   3.503   5.255 -0.3237 -0.0643  0.4166
18165TIP3    H175910   5.582   3.436   5.219 -0.0197  0.0254  0.7285
18165TIP3    H275911   5.474   3.535   5.180  0.0381 -0.1367  0.1402
18166TIP3   OH275912   2.318   4.253  13.415  0.4328  0.1777  0.1625
18166TIP3    H175913   2.305   4.186  13.347  1.7952 -0.5215  0.5533
18166TIP3    H275914   2.302   4.336  13.370 -1.3455 -0.3824 -0.3220
18167TIP3   OH275915   6.419   3.625  12.766 -0.4059 -0.1669  0.8508
18167TIP3    H175916   6.395   3.671  12.686 -0.6267 -1.2777  0.2590
18167TIP3    H275917   6.514   3.636  12.772 -0.1265 -1.4852 -0.5090
18168TIP3   OH275918   0.968   3.835  16.680  0.1704 -0.2792  0.2283
18168TIP3    H175919   0.878   3.859  16.703 -0.8149  0.0776 -3.3847
18168TIP3    H275920   1.022   3.875  16.749 -2.2960  0.6801  1.7574
18169TIP3   OH275921   4.171   4.516  13.863 -0.3906 -0.0061  0.2910
18169TIP3    H175922   4.146   4.505  13.955 -1.8977  0.5220 -0.0220
18169TIP3    H275923   4.265   4.529  13.865 -0.2371 -1.1124  1.6585
18170TIP3   OH275924   1.714   1.051  14.653 -0.2081  0.0756  0.2238
18170TIP3    H175925   1.666   1.093  14.724 -0.3229 -0.8551  0.7154
18170TIP3    H275926   1.702   0.957  14.668  3.4036 -0.3486  1.5779
18171TIP3   OH275927   5.026   4.171   3.919 -0.1573  0.6416  0.3622
18171TIP3    H175928   5.005   4.142   3.830 -0.1720  0.4266  0.4374
18171TIP3    H275929   5.030   4.091   3.971  1.1944  0.6470  0.2874
18172TIP3   OH275930   6.429   4.128   1.167 -0.3913  0.1229 -0.1942
18172TIP3    H175931   6.366   4.191   1.131 -1.0918 -0.2746  0.3112
18172TIP3    H275932   6.486   4.107   1.094 -0.8288  0.5100 -0.6560
18173TIP3   OH275933   1.555   0.108  14.059 -0.3534  0.2609  0.2876
18173TIP3    H175934   1.545   0.074  13.969  0.5026  1.6600 -0.3747
18173TIP3    H275935   1.481   0.168  14.070  0.1629  0.9471  0.0835
18174TIP3   OH275936   4.948   1.742  15.931 -0.3479 -1.0156  0.3964
18174TIP3    H175937   4.992   1.811  15.882 -1.9671 -0.2878 -0.1101
18174TIP3    H275938   5.004   1.665  15.919  1.1018  0.0015  0.3598
18175TIP3   OH275939   5.854   5.131   5.572 -0.0458 -0.2466  0.5615
18175TIP3    H175940   5.821   5.061   5.515 -1.1565  1.0624 -0.4801
18175TIP3    H275941   5.776   5.179   5.599  0.7627  1.1746  0.4698
18176TIP3   OH275942   4.332   2.480  14.439 -0.6065 -0.3667 -0.2430
18176TIP3    H175943   4.293   2.453  14.356 -0.8461 -0.6063 -0.0533
18176TIP3    H275944   4.276   2.551  14.470 -0.1332  0.1727 -0.6093
18177TIP3   OH275945   5.505   0.635   2.615  0.7603 -0.3341  0.1155
18177TIP3    H175946   5.541   0.634   2.526 -0.3704  0.0458 -0.3673
18177TIP3    H275947   5.426   0.581   2.610  0.7235 -0.3612  0.9088
18178TIP3   OH275948   6.583   1.492   2.261 -0.6323  0.3039 -0.0429
18178TIP3    H175949   6.515   1.529   2.206 -1.3747  2.7131  2.2662
18178TIP3    H275950   6.653   1.557   2.261  0.9371 -1.2869 -0.9040
18179TIP3   OH275951   4.675   0.984  16.369  0.1618 -0.4884  0.2977
18179TIP3    H175952   4.592   0.941  16.390 -0.2851 -0.6875 -1.6526
18179TIP3    H275953   4.664   1.073  16.402  0.2587 -1.2265  2.4507
18180TIP3   OH275954   0.188   0.476  12.331  0.5907 -0.1080  0.6555
18180TIP3    H175955   0.271   0.523  12.337  1.4509 -1.1898 -1.5094
18180TIP3    H275956   0.184   0.447  12.240 -1.2155 -1.8295  1.2163
18181TIP3   OH275957   2.154   0.890   0.106 -0.0268 -0.1984  0.6004
18181TIP3    H175958   2.119   0.801   0.109  1.0081 -0.6075  1.2052
18181TIP3    H275959   2.090   0.943   0.153 -1.6791 -0.2247 -1.4799
18182TIP3   OH275960   2.310   6.331  14.925 -0.1506  0.1052 -0.4254
18182TIP3    H175961   2.323   6.367  14.838  0.9610  0.7070 -0.0238
18182TIP3    H275962   2.222   6.293  14.922  0.9720 -2.6914 -2.7904
18183TIP3   OH275963   1.982   0.243  12.909  0.2901 -0.3180 -0.2964
18183TIP3    H175964   1.947   0.223  12.822  0.1628 -0.9714 -0.1024
18183TIP3    H275965   2.077   0.248  12.896  0.3001 -0.7368 -0.4232
18184TIP3   OH275966   2.730   6.240   3.458  0.4026  0.4090 -0.0674
18184TIP3    H175967   2.818   6.277   3.455  0.5407  0.4389  2.4441
18184TIP3    H275968   2.676   6.304   3.411  1.7562  0.0472 -2.2750
18185TIP3   OH275969   4.277   3.345   4.696 -0.0752 -0.5850  0.2238
18185TIP3    H175970   4.372   3.338   4.684 -0.0743 -0.4797  0.1649
18185TIP3    H275971   4.248   3.399   4.622  0.0420  0.7766  1.1429
18186TIP3   OH275972   1.431   4.502  14.949 -0.0873 -0.2499  0.3014
18186TIP3    H175973   1.384   4.586  14.952  1.9227  0.9346  3.3471
18186TIP3    H275974   1.368   4.441  14.911 -2.0170  2.3726 -1.0513
18187TIP3   OH275975   6.756   1.773   1.559 -0.0968 -0.6026  0.0625
18187TIP3    H175976   6.753   1.710   1.487  0.7910 -0.5683 -0.0161
18187TIP3    H275977   6.664   1.793   1.578 -0.3473 -0.9827 -0.7307
18188TIP3   OH275978   2.770   2.289   5.070 -0.1155  0.5185 -0.0787
18188TIP3    H175979   2.700   2.267   5.008 -1.1863  0.3998  1.1411
18188TIP3    H275980   2.746   2.243   5.150  1.4433  0.3773  0.3358
18189TIP3   OH275981   6.290   1.137   5.392 -0.1351 -0.4854  0.5249
18189TIP3    H175982   6.210   1.183   5.366  0.2744 -0.9514 -1.7589
18189TIP3    H275983   6.266   1.044   5.389  0.5792 -0.6572 -0.6884
18190TIP3   OH275984   5.081   4.443   2.100 -0.1912 -0.2872  0.2822
18190TIP3    H175985   5.168   4.479   2.118 -0.1530 -0.3811  0.2851
18190TIP3    H275986   5.033   4.455   2.181 -0.0341 -0.6639  0.4307
18191TIP3   OH275987   5.581   3.017  11.109 -0.4423 -0.2957 -0.4209
18191TIP3    H175988   5.502   2.963  11.112 -1.5019  1.1961 -0.1755
18191TIP3    H275989   5.628   2.996  11.190 -1.6818  0.3347  0.4920
18192TIP3   OH275990   3.542   1.209   3.998  0.0948 -0.2481 -0.4184
18192TIP3    H175991   3.522   1.288   4.049 -0.4699 -0.6797  0.0420
18192TIP3    H275992   3.632   1.222   3.968 -0.4240  1.1960 -1.4935
18193TIP3   OH275993   6.164   2.367  17.176 -0.1864  0.3021  0.2453
18193TIP3    H175994   6.106   2.340  17.104  0.7146 -0.1192 -0.3466
18193TIP3    H275995   6.109   2.362  17.254 -1.1565  0.6558 -0.3933
18194TIP3   OH275996   5.079   0.074   5.675 -0.0210 -0.2860  0.3455
18194TIP3    H175997   5.148   0.017   5.640 -0.3246 -0.4793  0.0582
18194TIP3    H275998   5.080   0.151   5.619  0.2276 -0.1135  0.5860
18195TIP3   OH275999   2.710   6.685   0.247  0.0430  0.2346  0.4182
18195TIP3    H176000   2.652   6.696   0.322 -1.6764  0.3955 -0.8790
18195TIP3    H276001   2.788   6.736   0.270 -1.0655  1.5424  1.4362
18196TIP3   OH276002   4.979   2.193   1.786  0.5858 -0.3180  0.5353
18196TIP3    H176003   4.972   2.113   1.734 -1.7631  0.8441 -1.1441
18196TIP3    H276004   4.897   2.197   1.835 -0.0317  1.6874 -0.5258
18197TIP3   OH276005   2.408   6.032  15.114  0.0795  0.1815 -0.3959
18197TIP3    H176006   2.374   5.948  15.143  1.5248  0.1660  1.3867
18197TIP3    H276007   2.347   6.096  15.152 -0.7039  0.0015 -1.2989
18198TIP3   OH276008   3.133   2.268   0.991 -0.6772  0.1560  0.4195
18198TIP3    H176009   3.123   2.236   1.081  0.2033  0.9471  0.8161
18198TIP3    H276010   3.212   2.323   0.994 -0.1855 -0.4260 -1.0089
18199TIP3   OH276011   3.383   1.192  14.416  0.2368  0.4318  0.4435
18199TIP3    H176012   3.477   1.209  14.427  1.1216 -2.7681 -0.9052
18199TIP3    H276013   3.343   1.221  14.498  2.5785  0.9271  1.4874
18200TIP3   OH276014   5.419   5.965  10.853  0.5334 -0.4329 -0.4732
18200TIP3    H176015   5.419   5.908  10.776  0.9032  0.0561 -0.8480
18200TIP3    H276016   5.508   5.957  10.889  0.6160 -0.0378 -0.5797
18201TIP3   OH276017   3.547   5.600   2.106  0.0667 -0.1755  0.4894
18201TIP3    H176018   3.532   5.543   2.182 -2.8653 -1.0376 -0.5818
18201TIP3    H276019   3.499   5.680   2.127 -1.0383 -0.5455 -0.5166
18202TIP3   OH276020   3.782   6.607  12.699  0.3585 -0.0190  0.2735
18202TIP3    H176021   3.816   6.604  12.788  1.5959 -1.0417 -0.2048
18202TIP3    H276022   3.781   6.700  12.676 -0.4116  0.2924  1.4970
18203TIP3   OH276023   6.538   2.228  12.698  0.3396 -0.4619 -0.7044
18203TIP3    H176024   6.598   2.293  12.662  2.1796 -1.2691  0.6998
18203TIP3    H276025   6.571   2.144  12.667  0.5622 -0.9966  0.8659
18204TIP3   OH276026   5.833   4.280  13.349  0.1028 -0.7847  0.4970
18204TIP3    H176027   5.737   4.278  13.354  0.0249 -0.5754 -0.6152
18204TIP3    H276028   5.856   4.203  13.298  0.4067  0.0020 -0.5849
18205TIP3   OH276029   3.864   0.893  15.501 -0.0464 -0.2851 -0.9555
18205TIP3    H176030   3.803   0.904  15.428 -0.7771  0.8043 -0.2081
18205TIP3    H276031   3.863   0.977  15.546  1.4959 -0.4770 -0.5138
18206TIP3   OH276032   4.286   3.591   5.872 -0.1526 -0.2191 -0.3331
18206TIP3    H176033   4.338   3.653   5.923  0.2310 -0.5699 -0.2836
18206TIP3    H276034   4.289   3.624   5.783  1.7880 -1.2329 -0.7093
18207TIP3   OH276035   2.495   3.351  14.579 -0.2685  0.2265  0.2520
18207TIP3    H176036   2.554   3.359  14.504  0.5923 -1.0382  0.7526
18207TIP3    H276037   2.470   3.259  14.580  1.2088 -0.2315  2.5391
18208TIP3   OH276038   5.494   2.574   2.683  0.3633 -0.5066 -0.0224
18208TIP3    H176039   5.444   2.542   2.758  0.7803 -2.7769 -0.6477
18208TIP3    H276040   5.477   2.668   2.681 -0.1700 -0.4933  2.5077
18209TIP3   OH276041   2.204   4.846  13.231  0.1733 -0.2540  0.2471
18209TIP3    H176042   2.113   4.841  13.200  0.1242 -0.7093  0.4593
18209TIP3    H276043   2.220   4.939  13.243 -0.5278 -0.2180  0.9894
18210TIP3   OH276044   3.617   6.555  13.378  0.1705 -0.0230  0.9953
18210TIP3    H176045   3.548   6.577  13.315  1.1226  1.9937  0.5779
18210TIP3    H276046   3.674   6.632  13.379  2.0882 -1.3776  1.7804
18211TIP3   OH276047   0.421   2.080   5.700 -0.0819 -0.8468 -0.4059
18211TIP3    H176048   0.335   2.065   5.660 -1.5129  0.5025  1.9641
18211TIP3    H276049   0.465   2.139   5.638 -2.2637  1.2895 -0.0882
18212TIP3   OH276050   3.292   2.483   2.837  0.2336  0.0432  0.0592
18212TIP3    H176051   3.306   2.391   2.817  2.3776  0.3600 -0.1119
18212TIP3    H276052   3.333   2.495   2.923  1.7673  1.2219 -0.7851
18213TIP3   OH276053   6.461   4.388   2.840 -0.1988 -0.2404  0.1440
18213TIP3    H176054   6.411   4.398   2.920 -1.1898 -0.8432 -0.3818
18213TIP3    H276055   6.424   4.452   2.779 -0.0504 -0.3965 -0.1168
18214TIP3   OH276056   2.404   2.663  13.808 -0.1481  0.0250 -0.1258
18214TIP3    H176057   2.320   2.709  13.813 -1.4318 -2.0575 -1.0638
18214TIP3    H276058   2.457   2.716  13.749 -1.1184  0.9027 -0.2387
18215TIP3   OH276059   3.387   4.281  16.019  0.5443  0.1679 -0.2008
18215TIP3    H176060   3.323   4.216  15.989  1.6806  0.0227 -2.5316
18215TIP3    H276061   3.472   4.240  16.001  1.2851  2.0400 -1.1682
18216TIP3   OH276062   4.982   6.437  16.236  0.4002  0.2216 -0.2257
18216TIP3    H176063   5.028   6.495  16.298  0.1488  0.2075 -0.0214
18216TIP3    H276064   4.897   6.422  16.277  0.4885 -0.3484 -0.2473
18217TIP3   OH276065   2.531   1.254  11.414 -0.5513  0.3380  0.2639
18217TIP3    H176066   2.523   1.241  11.320  0.4130 -1.4059  0.3837
18217TIP3    H276067   2.466   1.322  11.434 -1.6821 -0.1739 -1.4433
18218TIP3   OH276068   1.090   4.675   4.424  0.4919 -0.1140 -0.2441
18218TIP3    H176069   1.089   4.590   4.467 -0.4585 -0.7416 -1.4563
18218TIP3    H276070   1.106   4.656   4.332 -0.4103  0.9626 -0.6459
18219TIP3   OH276071   1.528   3.438  11.090  0.0608 -0.1310  0.2117
18219TIP3    H176072   1.473   3.502  11.044  0.5711  0.9795  1.1005
18219TIP3    H276073   1.519   3.358  11.038 -1.8400  0.1996 -0.0517
18220TIP3   OH276074   4.425   6.505  13.818 -0.7839 -0.1195  0.1863
18220TIP3    H176075   4.468   6.428  13.780  0.1465  0.1230  0.7242
18220TIP3    H276076   4.439   6.574  13.754 -1.4142 -0.3329 -0.1869
18221TIP3   OH276077   6.448   5.460  17.155  0.1862  0.5913  0.0596
18221TIP3    H176078   6.446   5.405  17.077 -0.4968 -0.1287  0.5662
18221TIP3    H276079   6.509   5.530  17.134  2.1543 -1.0977 -0.0901
18222TIP3   OH276080   6.756   0.943   5.036  0.2642 -0.2565  0.0255
18222TIP3    H176081   6.838   0.914   5.075  0.1143  0.3684  0.8349
18222TIP3    H276082   6.730   0.872   4.978  1.7671 -0.1496 -0.8315
18223TIP3   OH276083   3.844   4.645  14.802  0.1311  0.0901 -0.9926
18223TIP3    H176084   3.758   4.686  14.801  0.9804  2.0585  0.0146
18223TIP3    H276085   3.855   4.614  14.892  0.3802 -0.3739 -1.1785
18224TIP3   OH276086   5.059   1.139  15.932 -0.1159  0.2283 -0.4637
18224TIP3    H176087   5.019   1.201  15.992 -0.0869  1.3095 -1.5262
18224TIP3    H276088   5.143   1.118  15.972 -0.5016  0.1959  0.3382
18225TIP3   OH276089   3.294   1.571  12.410 -0.2841 -0.3817  0.1714
18225TIP3    H176090   3.282   1.662  12.383 -0.3997 -0.8116 -1.3007
18225TIP3    H276091   3.210   1.529  12.390 -0.0068 -0.9616  0.2169
18226TIP3   OH276092   2.511   1.071  14.386 -0.0347 -0.0107 -0.0618
18226TIP3    H176093   2.481   1.053  14.475  2.5666 -0.9017  0.7339
18226TIP3    H276094   2.445   1.030  14.329 -2.1634  1.2599  1.3616
18227TIP3   OH276095   4.540   3.744  13.337  0.0223  0.1774  0.3226
18227TIP3    H176096   4.447   3.724  13.324  0.1552 -1.0681  1.1585
18227TIP3    H276097   4.541   3.834  13.370 -0.9632 -0.1574  1.3186
18228TIP3   OH276098   5.560   2.877  11.545 -0.5003 -0.1110  0.1200
18228TIP3    H176099   5.575   2.803  11.604 -0.7201 -0.3358 -0.1055
18228TIP3    H276100   5.484   2.852  11.493 -0.2055  0.0131 -0.3815
18229TIP3   OH276101   6.521   0.415   2.535  0.4176 -0.4392  0.2814
18229TIP3    H176102   6.596   0.375   2.577 -0.5052 -2.0643  0.4405
18229TIP3    H276103   6.545   0.421   2.443  0.5265 -1.4759  0.2403
18230TIP3   OH276104   0.233   4.912   4.511 -0.4671  0.3542 -0.6226
18230TIP3    H176105   0.305   4.851   4.529 -0.6632  0.3484  0.1918
18230TIP3    H276106   0.162   4.882   4.568 -0.9733  0.6107 -1.1169
18231TIP3   OH276107   6.213   1.422   4.066 -0.1675 -0.1233  0.1267
18231TIP3    H176108   6.216   1.389   3.976 -1.0653  0.6142 -0.1881
18231TIP3    H276109   6.120   1.436   4.083 -0.2414 -2.2531  1.9262
18232TIP3   OH276110   4.690   6.042   0.554 -0.1867  0.2311  0.3482
18232TIP3    H176111   4.713   6.109   0.618  0.4344  0.0373  0.3351
18232TIP3    H276112   4.767   5.985   0.549  0.5128  1.2703 -1.9077
18233TIP3   OH276113   0.221   1.691  13.546  0.2145 -0.1033  0.1812
18233TIP3    H176114   0.208   1.599  13.572  1.4218 -0.7280 -1.2722
18233TIP3    H276115   0.304   1.716  13.588  0.3415  0.0218 -0.1383
18234TIP3   OH276116   0.604   5.818   2.870  0.0068 -0.0969 -0.4843
18234TIP3    H176117   0.648   5.796   2.788 -0.6100 -1.6382 -0.4283
18234TIP3    H276118   0.511   5.814   2.849 -0.1656 -1.0248  0.4060
18235TIP3   OH276119   1.816   3.743  12.547  0.1261  0.3366  0.3548
18235TIP3    H176120   1.871   3.785  12.613  1.1949  0.7926 -0.7952
18235TIP3    H276121   1.848   3.654  12.540  1.0754  0.7366 -0.6572
18236TIP3   OH276122   1.788   6.150   0.797  0.0144  0.2220  0.4413
18236TIP3    H176123   1.772   6.057   0.780 -2.0321  0.7798 -1.0224
18236TIP3    H276124   1.795   6.190   0.711 -0.1329  1.5772  1.0241
18237TIP3   OH276125   2.640   5.732   2.102  0.8320  0.3712 -0.0656
18237TIP3    H176126   2.643   5.659   2.039  1.7080  0.1402  0.2368
18237TIP3    H276127   2.546   5.747   2.116  0.4306 -3.2109  2.7408
18238TIP3   OH276128   4.618   2.603   4.813 -0.0934 -0.4728  0.1893
18238TIP3    H176129   4.664   2.541   4.870 -0.6913 -0.7995  0.3227
18238TIP3    H276130   4.577   2.665   4.873 -0.4562 -0.6279  0.1032
18239TIP3   OH276131   5.964   2.241  14.877  0.3188 -0.0536 -0.0548
18239TIP3    H176132   6.051   2.277  14.862  0.4746  0.5496  2.0307
18239TIP3    H276133   5.948   2.186  14.800  2.1679  0.4701 -0.8883
18240TIP3   OH276134   2.931   6.383   0.765  0.5551 -0.5479  0.0881
18240TIP3    H176135   2.879   6.317   0.719 -0.4053 -1.0950  1.8803
18240TIP3    H276136   2.887   6.466   0.744 -2.5138 -1.1469  3.1786
18241TIP3   OH276137   4.374   4.758  14.868 -0.1049  0.7571  0.7005
18241TIP3    H176138   4.333   4.676  14.843  0.7906  0.1734  1.0896
18241TIP3    H276139   4.357   4.765  14.962 -0.3207  1.1072  0.6379
18242TIP3   OH276140   1.276   3.256  10.852 -0.2641 -0.3109 -0.0304
18242TIP3    H176141   1.297   3.218  10.767  1.2365 -1.9413  0.9861
18242TIP3    H276142   1.275   3.350  10.837  0.0305 -0.5695 -1.8401
18243TIP3   OH276143   5.492   4.788  11.184  0.0837  0.1609  0.0580
18243TIP3    H176144   5.434   4.766  11.111  0.8158  1.4345 -0.9549
18243TIP3    H276145   5.574   4.813  11.142  0.0052  2.6103  1.1860
18244TIP3   OH276146   1.165   5.233  15.279 -0.4879 -0.8302  0.1290
18244TIP3    H176147   1.138   5.144  15.298 -0.0762 -0.9812  0.0140
18244TIP3    H276148   1.212   5.227  15.195 -2.7137 -0.1059 -1.2462
18245TIP3   OH276149   1.693   1.878  12.556 -0.1729  0.0011  0.1504
18245TIP3    H176150   1.737   1.962  12.542 -0.3519  0.5066  2.3301
18245TIP3    H276151   1.633   1.871  12.482  0.3077  1.4681 -0.4304
18246TIP3   OH276152   1.013   0.164  15.607  0.1951  0.2229  0.3495
18246TIP3    H176153   1.004   0.105  15.532 -0.1129 -0.0645  0.6093
18246TIP3    H276154   0.928   0.208  15.614 -0.8791 -1.9147  2.3221
18247TIP3   OH276155   2.987   1.653  10.584  0.2329  0.1079 -0.0592
18247TIP3    H176156   3.073   1.694  10.579  0.3465  0.1883  1.8053
18247TIP3    H276157   2.987   1.607  10.668 -1.9368  1.0322  0.5201
18248TIP3   OH276158   0.775   0.733  15.053  0.3620  0.3003 -0.2382
18248TIP3    H176159   0.775   0.773  14.966 -0.4464  0.1560 -0.3165
18248TIP3    H276160   0.785   0.806  15.114 -1.4257  0.7064 -0.3592
18249TIP3   OH276161   6.265   2.029   3.826 -0.0388  0.5864  0.4465
18249TIP3    H176162   6.322   1.961   3.860  0.7559 -0.3010 -2.4072
18249TIP3    H276163   6.321   2.106   3.820  0.3508  0.2302 -0.5822
18250TIP3   OH276164   3.588   1.374  15.195  0.4156  0.0897  0.0613
18250TIP3    H176165   3.522   1.434  15.230 -0.1171 -0.0534 -0.6774
18250TIP3    H276166   3.606   1.407  15.107 -0.9154 -1.6006 -0.8995
18251TIP3   OH276167   5.184   1.487  10.488 -0.1452 -0.2261 -0.1590
18251TIP3    H176168   5.189   1.392  10.502 -0.0171  0.0696  2.2023
18251TIP3    H276169   5.260   1.522  10.534  0.1366  1.0134 -1.5026
18252TIP3   OH276170   5.149   2.840   1.810 -0.1684 -1.0730  0.6537
18252TIP3    H176171   5.184   2.768   1.757  0.4639  0.0028 -0.4490
18252TIP3    H276172   5.129   2.909   1.746 -1.8410 -0.6676  1.5457
18253TIP3   OH276173   4.896   0.260  14.568 -0.0631  0.4820 -0.1090
18253TIP3    H176174   4.894   0.165  14.555  0.9840  0.4267  0.0471
18253TIP3    H276175   4.972   0.275  14.624  1.2955  1.6286 -2.1242
18254TIP3   OH276176   3.562   5.970   0.180  0.0159 -0.7644  0.1500
18254TIP3    H176177   3.648   5.988   0.140  0.5249 -1.8805  0.7051
18254TIP3    H276178   3.523   6.057   0.193  1.8721 -0.0936  1.6582
18255TIP3   OH276179   3.501   6.383  15.700 -0.2658  1.1022  0.4278
18255TIP3    H176180   3.497   6.398  15.795  0.6791  2.5682  0.2773
18255TIP3    H276181   3.434   6.318  15.683 -2.3332  2.7508  1.7556
18256TIP3   OH276182   6.267   1.354  13.177  0.1849 -0.1196  0.4992
18256TIP3    H176183   6.173   1.343  13.189  0.5897 -2.5547  2.3312
18256TIP3    H276184   6.299   1.383  13.263  0.9098  3.3336 -0.7631
18257TIP3   OH276185   1.150   4.656   5.653  0.2708  0.0134 -0.0673
18257TIP3    H176186   1.141   4.703   5.570 -1.5450  1.6008  0.9556
18257TIP3    H276187   1.118   4.717   5.719  1.8683 -1.1273  1.8709
18258TIP3   OH276188   2.622   2.171  14.414  0.6581  0.0816  0.5645
18258TIP3    H176189   2.616   2.119  14.494  0.3584  0.0342  0.5145
18258TIP3    H276190   2.712   2.159  14.383  0.9476  0.5439  1.1908
18259TIP3   OH276191   5.398   2.838   2.906 -0.1554  0.7851  0.1634
18259TIP3    H176192   5.483   2.794   2.902 -0.7829 -0.3874 -1.5379
18259TIP3    H276193   5.405   2.911   2.845 -0.8914 -0.4259 -1.4671
18260TIP3   OH276194   4.790   4.413  15.431  0.1085 -0.1190 -0.4441
18260TIP3    H176195   4.736   4.491  15.444  2.6350  1.5603  0.7434
18260TIP3    H276196   4.739   4.342  15.469 -1.6389  1.2097 -0.1949
18261TIP3   OH276197   3.622   1.449   0.187  0.1218  0.7116 -0.2495
18261TIP3    H176198   3.639   1.400   0.268  3.2869  1.6916 -0.1945
18261TIP3    H276199   3.545   1.407   0.149  0.1065 -1.4510  1.9622
18262TIP3   OH276200   4.361   4.756   1.724 -0.2896 -0.5303  0.3970
18262TIP3    H176201   4.418   4.714   1.789 -0.1905 -0.1751  0.5410
18262TIP3    H276202   4.421   4.806   1.668 -0.5616  0.8572  1.3037
18263TIP3   OH276203   4.342   6.212   3.637  0.3024  0.5445 -0.2765
18263TIP3    H176204   4.372   6.303   3.633 -1.6753  1.2970  0.2808
18263TIP3    H276205   4.319   6.199   3.729 -1.3979  0.2026 -0.7142
18264TIP3   OH276206   6.248   1.449  12.608  0.0091 -0.0501  0.0545
18264TIP3    H176207   6.158   1.479  12.594 -0.2677 -0.6539  0.5338
18264TIP3    H276208   6.254   1.367  12.560 -0.0657 -0.6382  1.0330
18265TIP3   OH276209   5.781   5.155  11.334  0.3217  0.6964 -0.3535
18265TIP3    H176210   5.806   5.067  11.365  2.1768  1.8294  1.6598
18265TIP3    H276211   5.822   5.163  11.248  3.0131  0.7099  0.8436
18266TIP3   OH276212   2.759   3.715  11.581 -0.1871 -0.0189 -0.0875
18266TIP3    H176213   2.676   3.703  11.627  0.5348 -0.6776  1.1030
18266TIP3    H276214   2.737   3.708  11.488 -1.2106 -1.9585  0.2469
18267TIP3   OH276215   5.530   3.740   0.746  0.1235 -0.0914 -0.0255
18267TIP3    H176216   5.515   3.784   0.662  0.4425 -1.2397 -0.7085
18267TIP3    H276217   5.586   3.801   0.795 -0.0063  0.5628 -0.6649
18268TIP3   OH276218   4.461   2.434   2.982  0.2071  0.2763 -0.3417
18268TIP3    H176219   4.480   2.492   3.056  1.8765 -0.6510  0.0151
18268TIP3    H276220   4.461   2.492   2.906  0.0031  1.0180  0.2081
18269TIP3   OH276221   5.485   3.892  13.142 -0.4110  0.3887  0.5470
18269TIP3    H176222   5.555   3.827  13.147 -0.1110  0.7935  1.8643
18269TIP3    H276223   5.407   3.847  13.173 -0.7239 -0.0043 -0.7385
18270TIP3   OH276224   0.443   6.096  11.391 -0.6014  0.1555 -0.2029
18270TIP3    H176225   0.468   6.053  11.473 -0.9905  0.0232 -0.1538
18270TIP3    H276226   0.485   6.044  11.323 -0.5076  0.1015 -0.1033
18271TIP3   OH276227   1.877   3.034   1.638  0.4718  0.2798  0.2364
18271TIP3    H176228   1.965   2.996   1.637  1.1516  1.6930  1.9739
18271TIP3    H276229   1.848   3.025   1.728 -0.6292  1.0577 -0.0216
18272TIP3   OH276230   3.496   1.927   5.915  0.5389 -0.0254  0.3390
18272TIP3    H176231   3.500   1.991   5.986 -1.2110 -0.1839  0.6165
18272TIP3    H276232   3.513   1.843   5.957 -0.8650 -0.1662  0.6789
18273TIP3   OH276233   6.515   3.776  16.651  0.3783  0.0623  0.1104
18273TIP3    H176234   6.571   3.809  16.721 -0.0936 -0.1017  0.5742
18273TIP3    H276235   6.569   3.780  16.572  1.2068 -0.5964  0.6351
18274TIP3   OH276236   6.458   5.420  12.184  0.4465  0.1678 -0.3365
18274TIP3    H176237   6.458   5.504  12.139 -1.3835  0.7059  0.5307
18274TIP3    H276238   6.459   5.355  12.115 -0.5523  0.9502 -1.1179
18275TIP3   OH276239   2.639   4.166  11.177 -0.6062  0.0849  0.3324
18275TIP3    H176240   2.618   4.074  11.160 -0.1745  0.2520 -1.2328
18275TIP3    H276241   2.554   4.210  11.176 -0.6901 -0.0844 -0.3714
18276TIP3   OH276242   1.719   4.191  15.624 -0.4358  0.3190 -0.1181
18276TIP3    H176243   1.673   4.273  15.605 -1.2892 -0.5064 -1.9395
18276TIP3    H276244   1.732   4.151  15.538  1.2571 -0.7908  0.6143
18277TIP3   OH276245   1.658   4.058   2.609 -0.2742 -0.2871  0.5565
18277TIP3    H176246   1.750   4.080   2.624  0.7671 -2.0954 -2.3487
18277TIP3    H276247   1.640   3.986   2.669  0.9757 -1.4547 -0.4072
18278TIP3   OH276248   0.372   4.921   2.235 -0.2188 -0.5335  0.0043
18278TIP3    H176249   0.323   5.000   2.256 -1.8774 -1.4670 -0.1775
18278TIP3    H276250   0.459   4.952   2.210 -0.6764  1.1715  0.4279
18279TIP3   OH276251   2.494   3.805   1.174 -0.1454 -0.5285  0.1456
18279TIP3    H176252   2.556   3.878   1.164  0.6605 -0.9425  1.7427
18279TIP3    H276253   2.545   3.738   1.220 -1.4667 -1.3278  0.4672
18280TIP3   OH276254   6.473   4.420  14.081  0.6162  0.2759 -0.1192
18280TIP3    H176255   6.400   4.462  14.128 -1.1944 -1.5471 -1.1316
18280TIP3    H276256   6.521   4.493  14.041 -0.9675  1.5345  0.1589
18281TIP3   OH276257   2.617   0.631   1.136  0.0183  0.0224 -0.4917
18281TIP3    H176258   2.630   0.597   1.224  3.0876  2.3731  0.1350
18281TIP3    H276259   2.618   0.554   1.080  0.2671 -1.3665  1.3431
18282TIP3   OH276260   3.319   5.717  10.710 -0.0594  0.1541  0.3635
18282TIP3    H176261   3.302   5.779  10.782 -0.2630  2.1681 -1.3398
18282TIP3    H276262   3.257   5.743  10.642  0.7574 -1.1256 -0.8961
18283TIP3   OH276263   2.358   3.145   2.133 -0.3196 -0.2608 -0.3023
18283TIP3    H176264   2.350   3.217   2.195 -2.2652  0.4763 -1.3287
18283TIP3    H276265   2.318   3.177   2.052  0.1448 -1.9639 -1.2700
18284TIP3   OH276266   5.729   1.245  13.572 -0.5114  0.4273  0.1764
18284TIP3    H176267   5.763   1.164  13.609  0.5024  1.7213  2.2653
18284TIP3    H276268   5.804   1.305  13.572 -1.7138  1.9968  0.6778
18285TIP3   OH276269   3.945   5.986  15.502  0.1592  0.2089  0.5523
18285TIP3    H176270   3.910   5.963  15.588  2.8903 -0.5744  1.5608
18285TIP3    H276271   3.959   5.903  15.458  0.7283  0.4672  0.2224
18286TIP3   OH276272   4.827   6.002  12.829 -0.0480 -0.0588  0.2132
18286TIP3    H176273   4.819   5.929  12.891  0.5244  0.9050  1.4579
18286TIP3    H276274   4.898   5.975  12.770 -1.3565 -1.4879 -0.7891
18287TIP3   OH276275   3.884   5.084  13.878 -0.2174 -0.4339  0.0289
18287TIP3    H176276   3.833   5.161  13.905  0.1063 -0.3554  0.4204
18287TIP3    H276277   3.973   5.103  13.906 -0.4409 -1.7334  1.8220
18288TIP3   OH276278   0.733   1.432   5.474  0.1890  1.0056 -0.7418
18288TIP3    H176279   0.723   1.432   5.570 -0.4424 -1.5678 -0.7540
18288TIP3    H276280   0.660   1.485   5.443 -0.6051  0.4649  0.1438
18289TIP3   OH276281   5.994   0.008   2.809  0.2724  0.5218 -0.2520
18289TIP3    H176282   5.933   0.073   2.774 -2.3065 -0.7028  1.6183
18289TIP3    H276283   6.029   0.049   2.889  0.4783  0.5141 -0.3382
18290TIP3   OH276284   1.599   5.454  12.172  0.2063 -0.2246  0.2465
18290TIP3    H176285   1.562   5.516  12.109 -0.8006 -0.8755  0.1784
18290TIP3    H276286   1.687   5.487  12.189  0.3773  0.1352 -1.2516
18291TIP3   OH276287   3.394   6.528  12.301  0.7229 -0.2303 -0.6027
18291TIP3    H176288   3.304   6.533  12.335  0.4146 -0.8726 -1.2842
18291TIP3    H276289   3.430   6.615  12.317  0.9702 -0.7599  2.3077
18292TIP3   OH276290   2.581   3.427  12.040  0.6459  0.2747  0.3778
18292TIP3    H176291   2.543   3.341  12.056  0.8048 -0.1827 -1.4677
18292TIP3    H276292   2.675   3.412  12.036  0.6289  0.3717 -0.7150
18293TIP3   OH276293   2.034   0.404  11.571  0.2323 -0.2510 -0.0465
18293TIP3    H176294   1.947   0.365  11.580 -0.4373  0.3717 -3.0582
18293TIP3    H276295   2.086   0.339  11.524  0.8673  0.1368  0.0888
18294TIP3   OH276296   1.393   3.282  14.540  0.3938 -0.8309  0.5246
18294TIP3    H176297   1.460   3.302  14.606  1.2672 -0.3572 -0.4793
18294TIP3    H276298   1.413   3.340  14.467 -0.4189 -1.4985 -0.2548
18295TIP3   OH276299   1.695   0.182  16.468  0.0001 -0.0776 -0.0537
18295TIP3    H176300   1.616   0.192  16.416 -0.8581 -0.0408  1.2165
18295TIP3    H276301   1.716   0.089  16.462  1.2986  0.2876 -2.3601
18296TIP3   OH276302   6.137   6.037  13.257 -0.2950 -0.5693  0.6094
18296TIP3    H176303   6.189   6.112  13.287 -0.5163  0.1469 -0.7338
18296TIP3    H276304   6.047   6.060  13.281 -0.4925  0.0716 -0.6258
18297TIP3   OH276305   1.449   4.702   5.219  0.1138  0.2614 -0.1656
18297TIP3    H176306   1.475   4.689   5.311 -0.1913 -0.7312 -0.1998
18297TIP3    H276307   1.426   4.794   5.213  2.9132  1.0653  0.0525
18298TIP3   OH276308   5.360   5.417  13.131  0.6260  0.0826  0.3588
18298TIP3    H176309   5.410   5.397  13.210 -1.1686 -0.8469  1.3084
18298TIP3    H276310   5.314   5.498  13.153  2.7988  1.8200 -1.0802
18299TIP3   OH276311   2.208   3.132  17.151 -0.1897 -0.5348  0.0004
18299TIP3    H176312   2.161   3.074  17.212 -0.5977  0.9965  1.2112
18299TIP3    H276313   2.144   3.154  17.084  0.4212 -2.6803 -1.3938
18300TIP3   OH276314   6.094   3.786   0.644  0.0849  0.1041  0.0869
18300TIP3    H176315   6.063   3.779   0.734  0.4183  0.0657  0.1997
18300TIP3    H276316   6.021   3.826   0.597 -0.0207  0.3029  0.4120
18301TIP3   OH276317   4.718   1.648   2.130 -0.0196  0.0127 -0.2867
18301TIP3    H176318   4.800   1.695   2.147  0.5684 -1.0004 -0.2089
18301TIP3    H276319   4.663   1.669   2.205  0.0514  0.9363 -0.4788
18302TIP3   OH276320   3.095   2.689  16.361 -0.3444  0.1881 -0.1383
18302TIP3    H176321   3.143   2.617  16.319  0.0817 -0.8827  2.0206
18302TIP3    H276322   3.004   2.659  16.361 -0.1087 -0.5979  1.1401
18303TIP3   OH276323   5.229   5.902   3.967 -0.2488 -0.2704 -0.1527
18303TIP3    H176324   5.165   5.973   3.970  0.4220  0.6042 -2.9673
18303TIP3    H276325   5.177   5.823   3.954 -0.9341 -0.2093  1.8653
18304TIP3   OH276326   2.909   6.255  10.632 -0.6835 -0.2828  0.1296
18304TIP3    H176327   2.905   6.337  10.680 -0.2711  1.2619 -2.2657
18304TIP3    H276328   3.000   6.250  10.601 -1.1060 -0.7348 -1.1321
18305TIP3   OH276329   3.345   3.496  14.561  0.3543  0.1147  0.2139
18305TIP3    H176330   3.338   3.532  14.473 -0.5407 -2.0621 -0.6718
18305TIP3    H276331   3.274   3.539  14.610 -1.0063 -0.7331 -0.9363
18306TIP3   OH276332   6.721   6.103   5.663 -0.4197  0.3198  0.0608
18306TIP3    H176333   6.785   6.124   5.595 -0.0275  2.8198  1.1298
18306TIP3    H276334   6.650   6.166   5.649 -0.3358  0.8702  1.9372
18307TIP3   OH276335   0.155   2.237  15.325 -0.7075 -0.7700 -0.4091
18307TIP3    H176336   0.232   2.260  15.378 -0.7973  1.3903 -1.1307
18307TIP3    H276337   0.166   2.143  15.308  0.7122 -0.9528  1.1523
18308TIP3   OH276338   5.383   2.598  10.628 -0.1671 -0.3741  0.9181
18308TIP3    H176339   5.452   2.596  10.561  1.5032  0.0047  2.5494
18308TIP3    H276340   5.372   2.507  10.654 -1.1194 -0.5742 -0.1344
18309TIP3   OH276341   2.803   1.495  12.199 -0.2149  0.0985 -0.0475
18309TIP3    H176342   2.776   1.468  12.112 -2.0620  1.0680  0.1690
18309TIP3    H276343   2.721   1.505  12.248  0.6326  1.5792  1.1882
18310TIP3   OH276344   1.367   2.252  11.383 -0.0964  0.1711  0.5517
18310TIP3    H176345   1.305   2.234  11.455 -0.0388 -1.7535  0.1695
18310TIP3    H276346   1.315   2.298  11.317 -0.8225 -0.4103  0.7151
18311TIP3   OH276347   6.564   5.219   2.591  0.1610 -0.1898 -0.0780
18311TIP3    H176348   6.544   5.292   2.649 -4.6722 -1.4123  0.2026
18311TIP3    H276349   6.566   5.142   2.648  0.2695 -0.8503 -0.9452
18312TIP3   OH276350   6.195   4.507  11.534  0.1292  0.0114 -0.2486
18312TIP3    H176351   6.142   4.580  11.564  0.0076 -0.6306  1.1890
18312TIP3    H276352   6.230   4.535  11.449 -1.7088  0.8273 -0.7859
18313TIP3   OH276353   6.512   1.587  14.389 -0.5726  1.1098  0.4600
18313TIP3    H176354   6.519   1.681  14.406  0.6595  1.4975 -1.7179
18313TIP3    H276355   6.503   1.581  14.294  0.3579 -1.0112  0.4433
18314TIP3   OH276356   0.186   3.778  13.886  0.7415 -0.1227 -0.2313
18314TIP3    H176357   0.097   3.790  13.919  0.2607  1.7827 -1.9888
18314TIP3    H276358   0.182   3.698  13.833 -0.7241  1.3516 -2.5108
18315TIP3   OH276359   3.367   1.702   2.226  0.0580 -0.0355 -0.1624
18315TIP3    H176360   3.389   1.767   2.160 -0.3877 -0.8271 -1.1132
18315TIP3    H276361   3.452   1.670   2.257  0.2757  0.6856  0.0213
18316TIP3   OH276362   5.528   5.711  12.006  0.3745 -0.1475 -0.1732
18316TIP3    H176363   5.612   5.729  11.964  1.7742 -2.5085  1.3739
18316TIP3    H276364   5.499   5.796  12.039  1.3220  0.9963 -2.1153
18317TIP3   OH276365   6.428   3.258  14.960 -0.0184 -0.0406  0.1661
18317TIP3    H176366   6.338   3.289  14.971  0.3313  0.3761  2.1254
18317TIP3    H276367   6.428   3.169  14.995  0.2257 -0.2301 -0.3059
18318TIP3   OH276368   3.552   5.195  10.832  0.2592 -0.9845  0.0340
18318TIP3    H176369   3.489   5.219  10.764  1.5061 -0.7426 -1.0812
18318TIP3    H276370   3.592   5.278  10.858  1.8811 -1.3514 -1.0984
18319TIP3   OH276371   0.581   5.962  15.772 -0.5008 -0.1433 -0.3309
18319TIP3    H176372   0.653   5.907  15.741 -0.2217  0.4080 -0.6687
18319TIP3    H276373   0.536   5.990  15.692 -0.0544  0.9075 -0.2363
18320TIP3   OH276374   6.117   2.661  16.395  0.2854  0.1843 -0.2466
18320TIP3    H176375   6.105   2.749  16.361 -0.8907 -0.1455 -0.7365
18320TIP3    H276376   6.187   2.669  16.460  0.7399  1.3130 -0.8670
18321TIP3   OH276377   4.420   4.824   2.765  0.3113 -0.0866 -0.3169
18321TIP3    H176378   4.381   4.774   2.836  0.2536  0.1538 -0.1765
18321TIP3    H276379   4.350   4.836   2.701 -0.2410  1.4452  0.5138
18322TIP3   OH276380   6.787   5.024  15.751  0.2653  0.2330  0.8687
18322TIP3    H176381   6.880   5.037  15.772 -0.2014 -1.4021  4.8293
18322TIP3    H276382   6.748   5.111  15.762  1.4249  1.4022 -2.7515
18323TIP3   OH276383   0.088   4.745  14.772 -0.0062 -0.1390 -0.3596
18323TIP3    H176384   0.103   4.818  14.712  0.1251  0.1628  0.0392
18323TIP3    H276385   0.068   4.786  14.856  1.8192 -0.5265  0.3271
18324TIP3   OH276386   1.116   3.869   4.637  0.2139  0.0462 -0.7585
18324TIP3    H176387   1.050   3.879   4.569  1.3808 -3.4389 -2.6585
18324TIP3    H276388   1.080   3.802   4.696  1.5896 -1.2945 -1.3681
18325TIP3   OH276389   3.553   3.057  10.995  0.9172  0.4536 -0.4331
18325TIP3    H176390   3.633   3.106  10.974  2.0061 -0.9910  0.1797
18325TIP3    H276391   3.577   2.965  10.983 -0.8312 -0.0004 -0.7622
18326TIP3   OH276392   4.957   0.808  10.357  0.1137  0.1761  0.0663
18326TIP3    H176393   4.991   0.817  10.446 -0.6238  0.6388  0.3136
18326TIP3    H276394   4.939   0.715  10.347  0.9947 -0.0107  0.0903
18327TIP3   OH276395   3.780   3.466   5.656 -0.5511 -0.1261 -0.3544
18327TIP3    H176396   3.743   3.526   5.591 -1.0295 -0.5313 -0.4665
18327TIP3    H276397   3.844   3.415   5.608 -0.6774 -0.2088 -0.4372
18328TIP3   OH276398   5.061   5.437  10.831  0.5416  0.0929 -0.4056
18328TIP3    H176399   5.152   5.417  10.807  0.5146 -0.3048 -0.1695
18328TIP3    H276400   5.068   5.511  10.891  0.6269  0.9452 -1.4286
18329TIP3   OH276401   5.607   1.047   0.161 -0.0496  0.2908 -0.8399
18329TIP3    H176402   5.681   1.002   0.122 -0.9185 -1.6150 -0.3927
18329TIP3    H276403   5.600   1.011   0.249 -2.5414 -0.9228 -1.4417
18330TIP3   OH276404   3.451   2.585  12.905  0.1861 -0.2912  0.4216
18330TIP3    H176405   3.506   2.639  12.962  0.5897 -0.9099  0.6270
18330TIP3    H276406   3.487   2.597  12.818  1.3919 -1.5667  0.7044
18331TIP3   OH276407   6.180   4.385  15.946  0.0656 -0.4718  0.0294
18331TIP3    H176408   6.144   4.300  15.972  0.1789 -0.2814  0.8451
18331TIP3    H276409   6.271   4.366  15.922  0.1367 -0.5643  0.3575
18332TIP3   OH276410   2.397   2.095  17.131  0.2354  0.2777  0.4990
18332TIP3    H176411   2.315   2.120  17.087 -0.2838  0.1970  1.3993
18332TIP3    H276412   2.369   2.047  17.208  1.1353  0.4241  0.9282
18333TIP3   OH276413   5.131   4.912   0.170 -0.8492  0.3698 -0.1437
18333TIP3    H176414   5.045   4.892   0.209  0.1605 -0.9848  1.5388
18333TIP3    H276415   5.180   4.831   0.180  0.7995  1.2770 -0.6411
18334TIP3   OH276416   0.038   2.318   1.814 -0.0896 -0.0539  0.2704
18334TIP3    H176417  -0.009   2.344   1.894  0.0024  0.8677  0.0264
18334TIP3    H276418  -0.010   2.240   1.783 -0.2754 -0.2731  1.0828
18335TIP3   OH276419   1.202   1.193  16.680  0.3666  0.0831  0.6131
18335TIP3    H176420   1.119   1.233  16.654  0.6960  0.2801 -0.1502
18335TIP3    H276421   1.183   1.152  16.765 -0.7159 -0.4940  0.1191
18336TIP3   OH276422   6.553   0.596   4.293  0.1242 -0.0366  0.0773
18336TIP3    H176423   6.633   0.595   4.240 -0.2516  0.3095 -0.5007
18336TIP3    H276424   6.563   0.673   4.350  0.8714 -0.8316  1.0684
18337TIP3   OH276425   5.808   6.317   3.723 -0.7497  0.1156 -0.6276
18337TIP3    H176426   5.901   6.295   3.718 -0.3582  1.6799 -0.8844
18337TIP3    H276427   5.763   6.242   3.685  0.4181 -0.5842 -0.6753
18338TIP3   OH276428   5.784   3.243  14.348  0.0007  0.4610  0.0174
18338TIP3    H176429   5.736   3.160  14.344 -1.6142  1.2830  1.3020
18338TIP3    H276430   5.811   3.259  14.258  1.2580 -1.9328 -0.1150
18339TIP3   OH276431   4.547   5.333   1.458  0.0874  0.6196 -0.2004
18339TIP3    H176432   4.635   5.371   1.457  0.1950  0.4068 -2.1410
18339TIP3    H276433   4.507   5.367   1.538  2.1000  0.3024  0.9944
18340TIP3   OH276434   1.486   0.053   0.506  0.3416  0.0160  0.2966
18340TIP3    H176435   1.397   0.066   0.539  0.8594 -0.0342  1.7911
18340TIP3    H276436   1.537   0.031   0.584  1.3624 -1.5657 -0.7713
18341TIP3   OH276437   0.409   5.468  13.851  0.3606 -0.0588 -0.5479
18341TIP3    H176438   0.313   5.459  13.850  0.2497  0.6980  0.6169
18341TIP3    H276439   0.425   5.543  13.909  1.7863 -2.9757  3.2822
18342TIP3   OH276440   4.226   3.030   1.343  0.6361 -0.3890 -0.0204
18342TIP3    H176441   4.164   2.958   1.360 -0.3500  1.0375  3.1848
18342TIP3    H276442   4.297   3.015   1.406 -0.3124  2.1218  1.7949
18343TIP3   OH276443   2.844   6.780   3.844  0.0447 -0.0797 -0.2452
18343TIP3    H176444   2.871   6.750   3.757 -0.3126 -2.1421  0.3152
18343TIP3    H276445   2.753   6.753   3.852  0.9303 -2.9374  1.9323
18344TIP3   OH276446   6.022   0.554   1.479 -0.5280  0.6033 -0.7505
18344TIP3    H176447   6.039   0.569   1.572 -1.4658  0.5882 -0.5704
18344TIP3    H276448   5.968   0.629   1.452 -1.7237 -0.2674 -0.8537
18345TIP3   OH276449   5.389   4.463   3.514 -0.3909  0.4382 -0.0921
18345TIP3    H176450   5.340   4.530   3.467  0.5880  1.6698  0.5956
18345TIP3    H276451   5.359   4.470   3.605 -0.1533  0.0610  0.0180
18346TIP3   OH276452   0.562   2.211   0.801  0.1836  0.0631 -0.3602
18346TIP3    H176453   0.558   2.163   0.718 -0.8926  0.4488 -0.5514
18346TIP3    H276454   0.473   2.205   0.836  0.8985 -1.2395  1.4455
18347TIP3   OH276455   3.919   2.725  11.700 -0.5221 -0.1173  0.1075
18347TIP3    H176456   3.954   2.712  11.788  1.4525  0.3302 -0.5705
18347TIP3    H276457   3.874   2.643  11.681 -0.1329 -0.5990  1.1510
18348TIP3   OH276458   2.658   5.059   2.853 -0.8271 -0.4413 -0.1891
18348TIP3    H176459   2.570   5.079   2.884 -0.0397 -0.8848  2.5951
18348TIP3    H276460   2.715   5.120   2.900  0.5824 -1.9967  0.2272
18349TIP3   OH276461   1.237   3.189  14.247 -0.5910 -0.1137 -0.1085
18349TIP3    H176462   1.182   3.147  14.180  0.7266 -0.6133 -0.9127
18349TIP3    H276463   1.320   3.205  14.203  0.5189 -0.9601  1.5679
18350TIP3   OH276464   0.491   4.395   5.398 -0.6064  0.5208 -0.1691
18350TIP3    H176465   0.573   4.395   5.447 -1.4508 -0.2501  1.3149
18350TIP3    H276466   0.478   4.304   5.372 -0.5620  0.7921 -1.1597
18351TIP3   OH276467   6.632   4.558  10.869  0.2214  0.0484  0.0446
18351TIP3    H176468   6.554   4.537  10.818  0.2876 -1.0150  0.3667
18351TIP3    H276469   6.685   4.612  10.810 -0.8218  0.9393 -0.1135
18352TIP3   OH276470   3.262   2.985  16.148  0.4386 -0.0882 -0.3680
18352TIP3    H176471   3.238   2.986  16.241 -0.0399 -1.3708 -0.4634
18352TIP3    H276472   3.181   3.008  16.102  0.2966 -0.8463 -0.5180
18353TIP3   OH276473   3.385   3.461  14.991  0.0602  0.2349 -0.4154
18353TIP3    H176474   3.474   3.427  14.999  0.0753  0.5808  1.1394
18353TIP3    H276475   3.386   3.543  15.040 -1.2917 -0.1293  0.2863
18354TIP3   OH276476   2.900   0.788  11.563 -0.2659  0.2703  0.5412
18354TIP3    H176477   2.820   0.840  11.559  0.0127  0.6143 -3.0527
18354TIP3    H276478   2.870   0.701  11.589 -1.4275  0.9360  1.5334
18355TIP3   OH276479   6.461   5.611  12.458  0.3269  0.2403 -0.4880
18355TIP3    H176480   6.513   5.689  12.438 -1.3624  0.8004 -3.1680
18355TIP3    H276481   6.502   5.541  12.407 -0.1809  0.1816 -0.8251
18356TIP3   OH276482   2.955   0.439  16.722 -0.1710 -0.0786  0.0146
18356TIP3    H176483   2.907   0.484  16.792 -1.0111  2.6864 -2.0945
18356TIP3    H276484   2.975   0.353  16.757  0.5498  1.5309  4.0511
18357TIP3   OH276485   1.878   3.032   4.263 -0.1376  0.1580 -0.4729
18357TIP3    H176486   1.945   3.003   4.202 -0.6077 -1.8652 -0.0947
18357TIP3    H276487   1.796   2.999   4.226 -1.0854  3.0494 -1.2245
18358TIP3   OH276488   0.992   6.700  12.293 -0.4028  0.4695 -0.1651
18358TIP3    H176489   1.078   6.664  12.270 -0.3836  1.2006 -1.2898
18358TIP3    H276490   0.930   6.653  12.236 -0.5234  1.2713 -0.7121
18359TIP3   OH276491   2.672   1.091   2.189 -0.5606  0.0242 -0.1463
18359TIP3    H176492   2.725   1.014   2.205 -0.2352  0.2443 -0.1522
18359TIP3    H276493   2.625   1.071   2.107  1.1794  0.6913 -1.3731
18360TIP3   OH276494   4.839   1.346   5.441  0.0102 -0.0196  0.5836
18360TIP3    H176495   4.746   1.326   5.456 -0.1421  0.0789 -0.1829
18360TIP3    H276496   4.859   1.303   5.357  0.9941 -1.0953  1.3354
18361TIP3   OH276497   3.785   2.296   2.035  0.1141 -0.3833 -0.0719
18361TIP3    H176498   3.868   2.307   2.082  0.2873  1.7607 -0.7685
18361TIP3    H276499   3.800   2.338   1.951 -1.1826 -1.4283 -0.8536
18362TIP3   OH276500   6.587   2.678   2.396 -0.2779  0.1409 -0.8797
18362TIP3    H176501   6.599   2.756   2.342  0.8094 -0.5102 -1.6335
18362TIP3    H276502   6.675   2.641   2.404 -0.3300  0.4225  1.6960
18363TIP3   OH276503   5.816   6.633   5.706  0.0559  0.4663 -0.3223
18363TIP3    H176504   5.902   6.676   5.703 -0.2619  1.0722 -1.1699
18363TIP3    H276505   5.835   6.540   5.696  0.5964  0.6169 -0.7454
18364TIP3   OH276506   1.452   5.570   2.673 -0.7144 -0.2310  0.9013
18364TIP3    H176507   1.472   5.476   2.666 -1.1074 -0.3674  1.5080
18364TIP3    H276508   1.383   5.584   2.609  1.1487  0.2264 -1.1471
18365TIP3   OH276509   3.616   4.274  12.287 -0.5676 -0.2980  0.6800
18365TIP3    H176510   3.579   4.214  12.222 -0.4716 -0.7116  1.0078
18365TIP3    H276511   3.702   4.239  12.307  0.7315  1.5434 -1.2686
18366TIP3   OH276512   3.163   3.931   3.220  0.0907 -0.0674  0.0247
18366TIP3    H176513   3.121   3.888   3.295 -0.0647 -0.5255 -0.3163
18366TIP3    H276514   3.207   4.007   3.257 -2.0864  1.1509  0.2205
18367TIP3   OH276515   1.075   1.585  15.333  0.7395 -0.1407  0.3515
18367TIP3    H176516   1.170   1.591  15.322  0.7829 -2.1794 -0.9649
18367TIP3    H276517   1.057   1.491  15.328 -1.3953  0.2393  0.2392
18368TIP3   OH276518   1.073   0.515  11.849  0.5571  0.1233  0.3301
18368TIP3    H176519   1.150   0.569  11.868  0.3976  1.0193 -1.4423
18368TIP3    H276520   1.059   0.525  11.755 -1.7017 -0.0738  0.6018
18369TIP3   OH276521   0.666   6.399  10.808  0.3357 -0.3385 -0.4008
18369TIP3    H176522   0.663   6.368  10.898 -1.5581  0.0024 -0.2994
18369TIP3    H276523   0.710   6.483  10.812  0.6223 -0.5130  0.1373
18370TIP3   OH276524   5.759   1.160   1.065  0.4458 -0.3314 -0.5591
18370TIP3    H176525   5.791   1.089   1.120  0.1475  0.5299  0.7900
18370TIP3    H276526   5.837   1.211   1.043  0.4805 -0.3187 -0.4031
18371TIP3   OH276527   6.251   3.060  15.037 -0.4263  0.6229 -0.2185
18371TIP3    H176528   6.215   3.063  15.126  1.5711  0.2421  0.6372
18371TIP3    H276529   6.173   3.063  14.981 -1.7021  1.9605  1.4917
18372TIP3   OH276530   4.553   2.347   3.279  0.0934 -0.4975  0.1344
18372TIP3    H176531   4.482   2.365   3.341 -1.5510  1.1998 -2.0737
18372TIP3    H276532   4.632   2.346   3.333 -1.4677 -1.6086  2.5710
18373TIP3   OH276533   4.882   1.947   2.684  0.7443 -0.0773 -0.2222
18373TIP3    H176534   4.931   1.994   2.751  0.5962  0.9594 -0.8202
18373TIP3    H276535   4.822   2.012   2.648  0.2385 -0.8404 -0.7854
18374TIP3   OH276536   1.121   5.804   4.414  0.2614  0.8066 -0.2725
18374TIP3    H176537   1.189   5.772   4.355  0.4900  1.1044 -0.1727
18374TIP3    H276538   1.039   5.770   4.377  0.4794  0.2872 -0.2857
18375TIP3   OH276539   1.234   5.038  11.101  0.0585  0.1860  0.1756
18375TIP3    H176540   1.201   4.949  11.088  0.8278  0.1793 -2.2389
18375TIP3    H276541   1.330   5.028  11.101  0.1726  1.1025 -1.1757
18376TIP3   OH276542   4.062   6.619   0.321 -0.4478  0.0903 -0.0757
18376TIP3    H176543   4.115   6.698   0.320  0.4886 -0.5201 -1.1111
18376TIP3    H276544   4.065   6.587   0.231 -0.1812 -1.5344  0.4788
18377TIP3   OH276545   4.019   4.206  12.895 -0.2271  0.4095  0.5664
18377TIP3    H176546   3.946   4.174  12.948  0.5941 -0.4425  1.2154
18377TIP3    H276547   4.088   4.225  12.959  1.1355 -1.5911 -0.2143
18378TIP3   OH276548   2.590   5.274   3.220  0.4546  0.5278  0.2447
18378TIP3    H176549   2.563   5.261   3.129 -0.2636 -0.2646  0.5539
18378TIP3    H276550   2.632   5.191   3.244 -0.5944  0.2032  1.0438
18379TIP3   OH276551   0.682   3.775   4.447  0.8647  0.2080 -0.2604
18379TIP3    H176552   0.618   3.844   4.430  0.8275  0.0259 -0.8504
18379TIP3    H276553   0.631   3.694   4.447  0.9516  0.1498  0.1677
18380TIP3   OH276554   3.972   3.931  14.215 -0.3794 -0.4617  0.4718
18380TIP3    H176555   4.034   3.919  14.143 -0.4203 -1.7428  0.6347
18380TIP3    H276556   4.008   4.004  14.266  1.2136 -1.4285  0.7840
18381TIP3   OH276557   1.128   1.094  13.973  0.2320 -0.0795  0.3122
18381TIP3    H176558   1.152   1.030  13.906  0.1058  1.3373 -1.1575
18381TIP3    H276559   1.042   1.127  13.944 -0.2920 -0.1448  1.7274
18382TIP3   OH276560   2.833   2.070  12.901 -0.5088  0.2020  0.0293
18382TIP3    H176561   2.833   2.163  12.877  0.6695  0.0389 -0.6910
18382TIP3    H276562   2.925   2.044  12.891 -0.1321 -0.2201  3.4526
18383TIP3   OH276563   6.164   1.574  11.688 -0.1183  0.0414  0.3691
18383TIP3    H176564   6.126   1.514  11.624  1.2555  0.7339 -1.1593
18383TIP3    H276565   6.194   1.518  11.759  0.0583 -0.9625 -0.4797
18384TIP3   OH276566   3.957   2.493  15.426  0.1307 -0.0157  0.0152
18384TIP3    H176567   3.942   2.501  15.332  0.3361  1.0046  0.0578
18384TIP3    H276568   4.038   2.542  15.441 -0.8407  1.3661  0.9813
18385TIP3   OH276569   3.284   1.711  13.006  0.4157  0.1595 -0.6247
18385TIP3    H176570   3.347   1.777  13.036 -0.1283  0.2106  0.4785
18385TIP3    H276571   3.200   1.757  13.008  0.3195  0.0651 -1.9803
18386TIP3   OH276572   2.354   0.022  11.106  0.2074 -0.0567 -0.0901
18386TIP3    H176573   2.424  -0.013  11.051  0.8507 -0.1058  0.7358
18386TIP3    H276574   2.274  -0.015  11.070  0.8396 -2.2249  0.6178
18387TIP3   OH276575   6.049   0.646  12.495 -0.0587 -0.3607  0.0656
18387TIP3    H176576   6.084   0.630  12.407 -1.3617  0.5125 -0.6379
18387TIP3    H276577   6.126   0.672  12.546  0.5840 -0.0229 -1.0376
18388TIP3   OH276578   5.240   4.100   0.978 -0.6209  0.0808  0.2220
18388TIP3    H176579   5.202   4.159   0.913  0.4610 -1.1562 -1.6044
18388TIP3    H276580   5.199   4.015   0.961  0.9193 -0.6490 -0.0023
18389TIP3   OH276581   1.892   6.763   1.235  0.2974  0.4101 -0.4359
18389TIP3    H176582   1.825   6.737   1.172 -0.0059  1.8375 -0.7352
18389TIP3    H276583   1.842   6.800   1.308  0.7269  3.1630 -1.4165
18390TIP3   OH276584   3.014   1.079   0.140 -0.1349 -0.1286  0.2385
18390TIP3    H176585   3.077   1.123   0.197 -2.5019  0.9353  2.2522
18390TIP3    H276586   3.014   1.131   0.060  1.3444 -0.0222  0.2863
18391TIP3   OH276587   2.906   4.068   0.135  0.2741 -0.7409 -0.2799
18391TIP3    H176588   2.984   4.059   0.081  0.1617 -1.0507 -0.3907
18391TIP3    H276589   2.919   4.006   0.206 -0.2775 -1.4472 -0.7821
18392TIP3   OH276590   5.993   5.915  11.927  0.1922 -0.6160  0.4073
18392TIP3    H176591   6.059   5.948  11.988 -0.6415  1.7057  0.1660
18392TIP3    H276592   6.035   5.917  11.841  0.1216 -0.0353  0.3821
18393TIP3   OH276593   0.817   3.261   4.728  1.0119 -0.5565 -0.2524
18393TIP3    H176594   0.811   3.192   4.795  0.0121 -1.0168 -0.7878
18393TIP3    H276595   0.879   3.227   4.664 -0.5534 -1.6556 -1.2567
18394TIP3   OH276596   5.146   2.538  15.936  0.6134  0.0558  0.1743
18394TIP3    H176597   5.100   2.531  16.020  0.0738 -1.1288 -0.2002
18394TIP3    H276598   5.076   2.542  15.871  1.0249 -0.3106 -0.3016
18395TIP3   OH276599   5.849   0.663   3.132 -0.0862 -0.3977 -0.3663
18395TIP3    H176600   5.925   0.621   3.091  1.1183  2.2478 -1.0808
18395TIP3    H276601   5.887   0.724   3.195 -1.6103  0.7001 -0.4538
18396TIP3   OH276602   4.814   5.143   1.430  0.0553  0.8231 -0.0437
18396TIP3    H176603   4.793   5.098   1.348 -0.9657  0.8941  0.1644
18396TIP3    H276604   4.782   5.084   1.498  2.0251  0.1793  0.3742
18397TIP3   OH276605   0.758   5.124   3.035  0.2930 -0.2610 -0.0100
18397TIP3    H176606   0.773   5.132   3.129  0.0460  0.2274 -0.0100
18397TIP3    H276607   0.663   5.110   3.026 -0.0193  1.7983 -0.2947
18398TIP3   OH276608   5.524   1.648   5.397  0.5804  0.2411 -0.3752
18398TIP3    H176609   5.540   1.630   5.490  0.4747  0.0678 -0.3903
18398TIP3    H276610   5.456   1.715   5.397 -0.1862 -0.5164 -0.3405
18399TIP3   OH276611   5.962   6.706  15.383  0.1805 -0.3875  0.3513
18399TIP3    H176612   5.974   6.787  15.334 -1.3463  0.6246  1.5977
18399TIP3    H276613   6.014   6.642  15.334  0.4507  1.0404 -1.3498
18400TIP3   OH276614   4.358   4.862  15.481 -0.6479  0.4974 -0.3231
18400TIP3    H176615   4.279   4.813  15.458  0.1540 -0.8660 -0.2830
18400TIP3    H276616   4.383   4.827  15.567  2.0856 -1.9192 -1.9215
18401TIP3   OH276617   3.584   5.592  17.121  0.1461 -0.1956 -0.0447
18401TIP3    H176618   3.547   5.594  17.209  0.0366  0.4226 -0.1005
18401TIP3    H276619   3.513   5.557  17.067 -0.6667  1.6696 -0.2712
18402TIP3   OH276620   2.466   0.647   5.705 -0.5355 -0.5066 -0.0921
18402TIP3    H176621   2.489   0.733   5.742 -1.1622 -0.4274  0.1190
18402TIP3    H276622   2.505   0.584   5.765  1.8990 -0.4241 -1.4240
18403TIP3   OH276623   0.988   3.761  11.375 -0.3589  0.1428  0.3080
18403TIP3    H176624   1.053   3.784  11.308  1.6662 -0.1812  2.0593
18403TIP3    H276625   0.990   3.665  11.377 -0.8519  0.1372  0.4240
18404TIP3   OH276626   1.473   0.161  16.320 -0.3784 -0.0982  0.3706
18404TIP3    H176627   1.379   0.151  16.305 -0.4942 -0.0060  0.9954
18404TIP3    H276628   1.511   0.079  16.290 -0.5571  0.1963 -0.6869
18405TIP3   OH276629   4.495   1.058  13.929 -0.1334  0.2630 -0.2761
18405TIP3    H176630   4.439   1.075  13.854  0.1976  0.3432 -0.5101
18405TIP3    H276631   4.582   1.043  13.891  0.2107  1.1459  0.1391
18406TIP3   OH276632   2.532   0.405   5.848  0.5598  0.1296  0.3296
18406TIP3    H176633   2.564   0.368   5.930 -0.5777 -0.5724  0.4688
18406TIP3    H276634   2.500   0.329   5.799 -0.2694  0.7346 -0.0772
18407TIP3   OH276635   4.982   4.044   0.408  0.1039  0.2087  0.0540
18407TIP3    H176636   4.904   4.003   0.444  0.5700  0.2929  1.2141
18407TIP3    H276637   5.055   4.005   0.457  0.8796 -0.5101 -1.5988
18408TIP3   OH276638   6.502   0.748   3.583 -0.9731  0.4236  0.2909
18408TIP3    H176639   6.577   0.802   3.558 -2.2670  1.9803 -0.3678
18408TIP3    H276640   6.465   0.790   3.660 -2.4269  0.9355 -0.6573
18409TIP3   OH276641   6.012   4.530   5.173  0.9272  0.6422 -0.7795
18409TIP3    H176642   6.071   4.456   5.193  1.2823  1.1243  0.0384
18409TIP3    H276643   5.976   4.509   5.087  1.1856 -0.3810 -0.6609
18410TIP3   OH276644   5.875   3.785  14.891  0.5997 -0.1792 -0.3523
18410TIP3    H176645   5.880   3.881  14.895 -0.2972 -0.1619  0.6567
18410TIP3    H276646   5.905   3.764  14.803  1.3068  0.9958 -0.4165
18411TIP3   OH276647   5.354   4.356   5.187 -0.1840 -0.2002  0.2350
18411TIP3    H176648   5.293   4.296   5.143 -1.6413  1.6959 -0.4806
18411TIP3    H276649   5.339   4.441   5.144  4.1770  0.0880 -1.1755
18412TIP3   OH276650   1.400   5.115   1.032  0.1180  0.5611 -0.4189
18412TIP3    H176651   1.353   5.198   1.024 -0.2178  0.4921  0.7072
18412TIP3    H276652   1.404   5.081   0.942  1.0608  2.2089 -1.0457
18413TIP3   OH276653   3.023   3.115   0.761 -0.0924  0.1043 -0.1639
18413TIP3    H176654   3.063   3.034   0.793  0.3460  0.3661 -0.0306
18413TIP3    H276655   2.972   3.088   0.684 -0.2212 -0.3467  0.0749
18414TIP3   OH276656   1.227   2.164   2.229 -0.0586 -0.5750  0.6388
18414TIP3    H176657   1.278   2.238   2.263  0.5972 -0.5047 -0.4407
18414TIP3    H276658   1.224   2.101   2.301  1.2571 -0.4206  0.8496
18415TIP3   OH276659   1.694   0.642   4.362  0.3079  0.1088  0.2559
18415TIP3    H176660   1.781   0.641   4.320  0.0800  0.2947 -0.2276
18415TIP3    H276661   1.707   0.692   4.443  0.3395  1.4083 -0.5166
18416TIP3   OH276662   2.814   1.792  16.870 -0.0574  0.7687 -0.1804
18416TIP3    H176663   2.739   1.846  16.897 -0.8135 -0.8334  1.1628
18416TIP3    H276664   2.845   1.832  16.789 -1.9710  1.8681 -0.4344
18417TIP3   OH276665   5.969   5.985   2.577 -0.6196 -0.3582  0.6212
18417TIP3    H176666   5.927   5.911   2.533 -0.9665  0.2664 -0.1217
18417TIP3    H276667   6.041   5.946   2.627 -0.3125 -1.1090 -0.3810
18418TIP3   OH276668   0.186   0.125  13.897 -0.4306  0.1472 -0.6340
18418TIP3    H176669   0.227   0.070  13.830  0.6872 -0.8692  0.8109
18418TIP3    H276670   0.171   0.065  13.971 -1.3485  1.2845  0.1307
18419TIP3   OH276671   3.083   3.365  12.717 -0.9219  0.1472 -0.3327
18419TIP3    H176672   3.155   3.361  12.655 -0.8826  0.3559 -0.3006
18419TIP3    H276673   3.004   3.355  12.664 -0.8756  0.0442 -0.3817
18420TIP3   OH276674   2.775   6.156  12.163 -0.0534 -0.5971 -0.0378
18420TIP3    H176675   2.721   6.102  12.220 -0.7273  1.1168  1.0387
18420TIP3    H276676   2.712   6.210  12.115  0.6149 -0.3569 -0.6639
18421TIP3   OH276677   1.970   0.956   1.409 -0.1662  0.3455  0.0892
18421TIP3    H176678   1.927   1.039   1.426 -0.7502  0.9992 -3.7337
18421TIP3    H276679   1.910   0.890   1.444 -0.2805  1.4181  2.0524
18422TIP3   OH276680   3.907   4.304  16.114  0.3285 -0.3903 -0.3597
18422TIP3    H176681   3.919   4.340  16.202 -1.5690  0.5838 -0.4423
18422TIP3    H276682   3.842   4.234  16.125  1.1352 -1.2231 -0.7896
18423TIP3   OH276683   1.673   4.593  14.529  0.1973  0.1464 -0.1809
18423TIP3    H176684   1.598   4.555  14.482  0.1986 -0.4908  0.3210
18423TIP3    H276685   1.735   4.616  14.460  0.3476 -1.1063 -0.4838
18424TIP3   OH276686   0.241   3.805   2.575 -0.3490 -0.3686  0.3566
18424TIP3    H176687   0.155   3.806   2.615 -0.9228  1.4576 -0.7957
18424TIP3    H276688   0.276   3.893   2.589  0.9751 -0.8134  0.0664
18425TIP3   OH276689   1.681   4.854  15.438 -0.6428 -0.1941  0.3818
18425TIP3    H176690   1.733   4.801  15.378 -0.9676 -0.9660  0.7673
18425TIP3    H276691   1.696   4.815  15.524 -0.1390  0.9300  0.8234
18426TIP3   OH276692   1.767   3.519  15.192 -0.2977 -0.3811  0.5038
18426TIP3    H176693   1.792   3.430  15.166  1.1006 -0.0413  0.6195
18426TIP3    H276694   1.847   3.570  15.185 -1.0675  0.8787  0.4888
18427TIP3   OH276695   3.684   0.390  11.056 -0.3635  0.6489  0.6616
18427TIP3    H176696   3.755   0.363  11.114 -0.6256  1.5494  1.4204
18427TIP3    H276697   3.680   0.485  11.065 -0.5859  0.7804 -0.6433
18428TIP3   OH276698   2.802   3.294   3.240  0.0361 -0.1542 -1.2080
18428TIP3    H176699   2.707   3.285   3.244 -0.4788  3.8336  0.1712
18428TIP3    H276700   2.822   3.288   3.146 -1.8383  0.6401 -1.7122
18429TIP3   OH276701   5.613   3.204   2.081 -0.5694 -0.3740  0.8079
18429TIP3    H176702   5.557   3.212   2.158 -1.6050  0.5292  0.0009
18429TIP3    H276703   5.604   3.288   2.036 -0.0529 -0.9063 -0.3396
18430TIP3   OH276704   4.367   1.095   5.098 -0.5131  0.0588  0.1379
18430TIP3    H176705   4.447   1.068   5.144 -0.3896  1.6350  0.9183
18430TIP3    H276706   4.296   1.049   5.145 -0.3546  1.3656  1.7632
18431TIP3   OH276707   6.427   4.355   3.823  0.0358 -0.3022 -0.1556
18431TIP3    H176708   6.466   4.423   3.768  1.6659 -0.8925  0.2074
18431TIP3    H276709   6.468   4.274   3.793 -2.6235 -1.3489 -1.2907
18432TIP3   OH276710   0.416   5.689  14.580  0.1309 -0.4805 -0.0240
18432TIP3    H176711   0.399   5.600  14.547  0.7718  0.5279 -3.5294
18432TIP3    H276712   0.373   5.746  14.517  1.6839  1.7337  0.7951
18433TIP3   OH276713   1.580   5.549   3.229 -0.1505  0.2117 -0.2295
18433TIP3    H176714   1.527   5.478   3.266  2.2097 -1.4174  0.2597
18433TIP3    H276715   1.570   5.539   3.134  1.9562 -2.3829 -0.2814
18434TIP3   OH276716   6.758   6.319   3.100  0.0645  0.0091 -0.1538
18434TIP3    H176717   6.822   6.381   3.135 -0.5957 -0.2319  1.6089
18434TIP3    H276718   6.714   6.285   3.178 -1.8847 -0.1728 -1.2803
18435TIP3   OH276719   0.797   5.767  15.385  0.1641 -0.7039  0.3604
18435TIP3    H176720   0.890   5.783  15.370 -0.1295  0.1934 -0.6362
18435TIP3    H276721   0.783   5.677  15.355 -0.0346  0.4325 -3.3792
18436TIP3   OH276722   1.937   5.410   0.272 -0.1881 -0.4290  0.0829
18436TIP3    H176723   2.016   5.456   0.244 -1.1261  1.2706  0.1282
18436TIP3    H276724   1.968   5.323   0.297  1.3928 -0.3945 -1.5622
18437TIP3   OH276725   4.172   0.525  15.041  0.3617  0.0721  0.0061
18437TIP3    H176726   4.169   0.452  15.103 -0.0064 -0.0292 -0.1299
18437TIP3    H276727   4.232   0.587  15.081  2.7681 -1.4018 -1.0876
18438TIP3   OH276728   2.797   2.851  16.557  0.3055  0.3467 -0.0672
18438TIP3    H176729   2.706   2.831  16.537  1.1333 -0.4946 -3.6649
18438TIP3    H276730   2.834   2.768  16.586  0.3086  0.2707 -0.2884
18439TIP3   OH276731   2.205   0.533   1.873  0.2936  0.1618 -0.1449
18439TIP3    H176732   2.118   0.499   1.895  0.6163  0.1562  1.1790
18439TIP3    H276733   2.256   0.522   1.953  1.6570 -0.2762 -1.0442
18440TIP3   OH276734   2.767   4.013  12.763 -0.8225  0.1539 -0.0524
18440TIP3    H176735   2.783   3.983  12.853 -0.9747  0.3461  0.0390
18440TIP3    H276736   2.845   3.985  12.714 -0.4171  0.6640  0.2880
18441TIP3   OH276737   5.975   0.963   4.060  0.7632  0.0778  0.0149
18441TIP3    H176738   6.009   1.052   4.048  1.8053 -0.2244  0.5800
18441TIP3    H276739   5.905   0.972   4.124  0.3813  0.5808 -0.4577
18442TIP3   OH276740   6.072   0.503   3.774  0.1176 -0.5657 -0.3265
18442TIP3    H176741   6.098   0.570   3.838 -3.0063  0.9704 -0.4916
18442TIP3    H276742   6.073   0.550   3.690 -1.6493 -0.8103 -0.5154
18443TIP3   OH276743   3.364   1.469   1.954  0.2173  0.3402 -0.1223
18443TIP3    H176744   3.309   1.448   2.030  0.9533  1.1059  0.6588
18443TIP3    H276745   3.367   1.389   1.903 -0.6728 -0.0544  0.4161
18444TIP3   OH276746   4.178   3.662   4.432  0.0329  0.2941 -0.1025
18444TIP3    H176747   4.246   3.671   4.365 -0.5189  1.3761 -0.5492
18444TIP3    H276748   4.133   3.747   4.431 -2.1240 -0.7847 -0.7070
18445TIP3   OH276749   4.846   4.177  11.188  0.0196 -0.2705 -0.0653
18445TIP3    H176750   4.781   4.107  11.192  1.8828 -2.1950 -1.1756
18445TIP3    H276751   4.798   4.252  11.152 -1.8563 -1.2172  0.3418
18446TIP3   OH276752   0.296   0.586  13.377 -0.0545  0.0026  0.3246
18446TIP3    H176753   0.333   0.543  13.455  0.8763 -0.8153 -0.5452
18446TIP3    H276754   0.340   0.544  13.303 -0.5541  1.1193 -0.6383
18447TIP3   OH276755   6.411   3.495   5.901  0.1812  0.0405 -0.1504
18447TIP3    H176756   6.378   3.416   5.942  1.8582 -1.6816 -1.9354
18447TIP3    H276757   6.402   3.563   5.969 -1.1291 -1.6739  1.4810
18448TIP3   OH276758   0.632   3.819   5.220 -0.4712  0.6043  0.0748
18448TIP3    H176759   0.692   3.853   5.287 -0.9460  1.0011  0.3079
18448TIP3    H276760   0.572   3.892   5.202 -0.4564  0.4426 -0.6617
18449TIP3   OH276761   1.417   3.047   3.373  0.0581  0.1290  0.4773
18449TIP3    H176762   1.425   2.955   3.349  0.0581  0.2116  0.1489
18449TIP3    H276763   1.324   3.058   3.396  0.1974 -0.0999  1.1616
18450TIP3   OH276764   2.111   4.999   1.312 -0.4996 -0.8970  0.2594
18450TIP3    H176765   2.189   5.054   1.303  0.0359 -1.8761 -1.5990
18450TIP3    H276766   2.114   4.968   1.402  1.6433 -1.4342  0.0662
18451TIP3   OH276767   2.898   5.469  16.070 -0.3120  0.2719 -0.3995
18451TIP3    H176768   2.872   5.434  16.155  0.2658 -0.7416 -0.6223
18451TIP3    H276769   2.980   5.515  16.088 -0.6536  0.8280 -0.2513
18452TIP3   OH276770   4.260   5.145  11.897 -0.4905 -0.0553  0.6315
18452TIP3    H176771   4.288   5.159  11.807 -2.3057 -0.0689  0.0101
18452TIP3    H276772   4.169   5.177  11.899 -0.3374  0.3923  2.5786
18453TIP3   OH276773   4.373   1.231  16.689  0.3306 -0.0255  0.5865
18453TIP3    H176774   4.291   1.274  16.663  0.1861 -0.3919  0.4349
18453TIP3    H276775   4.401   1.183  16.611  0.3643 -0.4086  0.8350
18454TIP3   OH276776   1.001   3.230   0.453  0.2271  0.2882 -0.4367
18454TIP3    H176777   0.966   3.190   0.533 -0.5380  0.8897 -0.4511
18454TIP3    H276778   0.955   3.185   0.382 -0.2132  0.7818 -0.4724
18455TIP3   OH276779   4.988   4.561  17.022 -0.4157 -0.5965  0.0292
18455TIP3    H176780   5.067   4.541  17.072 -0.6606  1.3922  1.3499
18455TIP3    H276781   5.020   4.614  16.948 -0.3771 -0.8689 -0.1488
18456TIP3   OH276782   1.549   0.560  11.856 -0.2739 -0.7160  0.4591
18456TIP3    H176783   1.562   0.612  11.935  0.0844 -1.0619  0.6332
18456TIP3    H276784   1.637   0.549  11.820 -0.6037  0.8554 -0.9162
18457TIP3   OH276785   3.826   4.488   3.898  0.3477 -0.0175  0.1642
18457TIP3    H176786   3.891   4.526   3.839  0.9143  2.9730  2.5224
18457TIP3    H276787   3.808   4.556   3.962 -3.5903 -1.4626  0.9048
18458TIP3   OH276788   2.651   6.722  14.452  0.7123  0.1247 -0.6925
18458TIP3    H176789   2.687   6.754  14.369  0.7492 -0.7346 -1.0206
18458TIP3    H276790   2.724   6.676  14.494  0.8622  1.0615  0.1019
18459TIP3   OH276791   2.679   1.756   5.144  0.0408 -0.2620 -0.7179
18459TIP3    H176792   2.655   1.833   5.093 -1.3053 -1.5306 -2.0838
18459TIP3    H276793   2.775   1.759   5.146  0.0216  1.6066 -0.4207
18460TIP3   OH276794   6.154   1.260  12.369 -0.5061  0.0879  0.4563
18460TIP3    H176795   6.098   1.246  12.445 -0.4633  1.7099  0.8326
18460TIP3    H276796   6.093   1.287  12.299 -0.6444 -2.1480 -0.3650
18461TIP3   OH276797   0.987   2.164   3.435 -0.0925 -0.0982  0.5881
18461TIP3    H176798   1.063   2.107   3.420 -0.7757 -0.6307 -1.1515
18461TIP3    H276799   0.911   2.107   3.421 -0.7933  0.9159  0.1251
18462TIP3   OH276800   2.883   2.067  17.114 -0.4483 -0.2252 -0.3903
18462TIP3    H176801   2.796   2.070  17.072 -0.8616  2.4130  0.4774
18462TIP3    H276802   2.929   2.142  17.077  0.1989  0.4673  1.7125
18463TIP3   OH276803   4.372   6.127   0.794 -0.2572  0.0419 -0.4607
18463TIP3    H176804   4.337   6.117   0.705 -0.6006 -0.0241 -0.3189
18463TIP3    H276805   4.454   6.175   0.782 -1.7344  2.7091 -0.5645
18464TIP3   OH276806   0.446   1.609  10.752  0.3871  0.0853  0.1726
18464TIP3    H176807   0.352   1.595  10.735  0.2141  2.7031 -1.6893
18464TIP3    H276808   0.477   1.525  10.785 -2.6258 -0.8481  0.9623
18465TIP3   OH276809   3.807   2.444   6.769  0.4028  0.0888 -0.3674
18465TIP3    H176810   3.740   2.399   6.717  0.3909 -0.3041 -0.0271
18465TIP3    H276811   3.847   2.506   6.709  1.3440 -1.3063 -1.2622
18466TIP3   OH276812   3.815   1.889   5.337 -0.1925 -0.4736  0.7021
18466TIP3    H176813   3.857   1.959   5.387  0.3824  1.1779 -1.9271
18466TIP3    H276814   3.747   1.856   5.396 -0.3601  2.1748  2.1410
18467TIP3   OH276815   2.396   1.285   3.272  0.4058  0.2205 -0.3017
18467TIP3    H176816   2.339   1.249   3.341 -0.2916  0.8286 -0.5544
18467TIP3    H276817   2.484   1.261   3.300 -0.0403 -2.4843 -0.8965
18468TIP3   OH276818   3.900   6.467   1.942  0.4946 -0.2134  0.3086
18468TIP3    H176819   3.867   6.556   1.953  0.4043  0.0021 -1.4657
18468TIP3    H276820   3.833   6.411   1.982 -1.0134  0.3429 -1.3171
18469TIP3   OH276821   0.811   2.259   5.614 -0.1109 -0.7080 -0.6131
18469TIP3    H176822   0.737   2.260   5.676 -0.4633 -1.2538 -1.0187
18469TIP3    H276823   0.772   2.285   5.531  0.5982  1.2953 -0.3726
18470TIP3   OH276824   3.239   2.667   5.556 -0.5136  0.0599 -0.0307
18470TIP3    H176825   3.329   2.671   5.587 -0.3056 -1.1522 -0.4047
18470TIP3    H276826   3.219   2.756   5.526  0.1991  0.5811  0.9949
18471TIP3   OH276827   1.977   2.401  16.730  0.2109  0.1802  0.5099
18471TIP3    H176828   1.893   2.368  16.702  1.5451 -2.1250 -1.0459
18471TIP3    H276829   2.000   2.468  16.666  0.2288 -0.2598  0.0581
18472TIP3   OH276830   0.562   0.890   1.923 -0.0334  0.0699  0.1649
18472TIP3    H176831   0.566   0.824   1.992 -0.6055 -0.8874 -0.6942
18472TIP3    H276832   0.653   0.905   1.898  0.0196 -1.9768 -1.0744
18473TIP3   OH276833   4.096   1.060  15.173  0.0849 -0.0130 -0.3242
18473TIP3    H176834   4.187   1.075  15.148 -0.0711  0.6636 -0.4993
18473TIP3    H276835   4.053   1.144  15.159 -0.4840 -0.2232  0.1260
18474TIP3   OH276836   2.439   5.133  15.468  0.1963  0.0749 -0.4374
18474TIP3    H176837   2.515   5.075  15.472  1.1286  1.3184  1.1022
18474TIP3    H276838   2.412   5.142  15.560  1.6018  3.9352 -0.2236
18475TIP3   OH276839   3.374   2.158   0.599  0.5486  0.3156  0.0769
18475TIP3    H176840   3.299   2.147   0.658  0.5536 -1.4801 -0.1923
18475TIP3    H276841   3.449   2.167   0.658  0.3770 -0.0276  0.3544
18476TIP3   OH276842   3.754   1.143  12.888 -0.4561  0.3736 -0.1659
18476TIP3    H176843   3.695   1.145  12.964  0.4814 -2.1072  0.7528
18476TIP3    H276844   3.840   1.161  12.924 -0.0784 -0.2370 -0.7456
18477TIP3   OH276845   1.760   1.176  10.497 -0.5377 -0.5847  0.1579
18477TIP3    H176846   1.722   1.091  10.475  0.6441 -1.2146  0.4508
18477TIP3    H276847   1.814   1.199  10.422  1.2493 -1.3946  1.1129
18478TIP3   OH276848   5.816   0.835   1.804  0.3849 -0.4152  0.0894
18478TIP3    H176849   5.905   0.841   1.838  0.1220 -0.9453  0.8968
18478TIP3    H276850   5.772   0.773   1.862 -0.5581 -0.0385 -0.2037
18479TIP3   OH276851   1.137   6.724  12.850  0.5113 -0.1957  0.1024
18479TIP3    H176852   1.171   6.685  12.931 -1.5229  0.5191  1.3715
18479TIP3    H276853   1.167   6.814  12.852  0.3681 -0.1485  0.1150
18480TIP3   OH276854   4.618   0.476  13.219  0.2717  0.1058 -0.9390
18480TIP3    H176855   4.573   0.553  13.254  0.2342 -0.4461  0.2706
18480TIP3    H276856   4.671   0.510  13.147 -0.3354  1.1324 -0.9171
18481TIP3   OH276857   2.726   6.392   1.055  0.5621 -0.0988 -0.5174
18481TIP3    H176858   2.819   6.369   1.047  0.9423  1.7102 -1.9005
18481TIP3    H276859   2.681   6.315   1.021  1.5159 -1.0755  0.3263
18482TIP3   OH276860   4.899   5.818   2.587  0.2490  0.4122  0.1982
18482TIP3    H176861   4.923   5.835   2.496  0.5198  1.2396  0.4173
18482TIP3    H276862   4.982   5.825   2.635  0.0698  0.2062  0.5446
18483TIP3   OH276863   1.094   0.058  14.142 -0.0977  0.1429 -0.0010
18483TIP3    H176864   1.108  -0.025  14.097 -0.4967  0.4723 -0.7580
18483TIP3    H276865   1.043   0.035  14.220 -0.1000 -0.3380 -0.1397
18484TIP3   OH276866   1.920   5.496  11.765 -0.0047 -0.3663 -0.5478
18484TIP3    H176867   1.933   5.456  11.679  0.0018 -0.3517 -0.5536
18484TIP3    H276868   1.921   5.590  11.747  0.2472 -0.3593 -0.4952
18485TIP3   OH276869   2.119   3.119  14.214  0.7354  0.5532 -0.1734
18485TIP3    H176870   2.032   3.086  14.236  0.8089 -1.1005 -2.0682
18485TIP3    H276871   2.163   3.130  14.298 -0.1751 -1.9009  0.7192
18486TIP3   OH276872   5.113   3.506   4.588  0.1413  0.5686  0.0956
18486TIP3    H176873   5.081   3.437   4.646 -1.5239  0.9798 -0.2958
18486TIP3    H276874   5.074   3.587   4.621 -2.3229  0.6151 -2.5276
18487TIP3   OH276875   6.772   0.147  11.711  0.3300  0.3187 -0.1153
18487TIP3    H176876   6.845   0.208  11.720  1.3327 -0.9851  1.2233
18487TIP3    H276877   6.788   0.101  11.628  1.9567 -1.0186  0.8677
18488TIP3   OH276878   3.014   4.573   4.157  0.5098  0.2606 -0.1135
18488TIP3    H176879   2.986   4.664   4.171 -0.2689  0.0249 -0.0663
18488TIP3    H276880   3.073   4.578   4.082  1.8634  1.0352  0.9408
18489TIP3   OH276881   2.772   1.068   5.179 -0.6180 -1.1535 -0.4735
18489TIP3    H176882   2.704   1.117   5.226  0.7310 -1.1618  1.6003
18489TIP3    H276883   2.788   1.118   5.100 -1.0079  0.4344  0.4238
18490TIP3   OH276884   5.159   1.322  13.076  0.2477 -0.0853  0.4364
18490TIP3    H176885   5.187   1.380  13.147 -2.3403  0.2821  1.2892
18490TIP3    H276886   5.114   1.380  13.015 -0.9139 -0.9217  0.4658
18491TIP3   OH276887   6.466   2.920  16.484 -0.2598 -0.4166  0.0119
18491TIP3    H176888   6.491   2.899  16.574 -1.8184 -0.9766  0.3520
18491TIP3    H276889   6.437   3.011  16.487 -1.3531 -0.7537  0.3474
18492TIP3   OH276890   5.937   4.574  11.198  0.0559 -0.7095  0.2728
18492TIP3    H176891   6.023   4.544  11.227 -0.4978 -1.3653  1.2673
18492TIP3    H276892   5.951   4.666  11.174  1.4726 -1.3154 -1.5156
18493TIP3   OH276893   0.913   4.085   2.818 -0.0996 -0.0846 -0.2533
18493TIP3    H176894   0.928   4.142   2.894 -1.0272  1.0649 -0.9002
18493TIP3    H276895   0.975   4.115   2.752 -0.3098 -0.0914 -0.4561
18494TIP3   OH276896   1.135   4.391   2.447  0.0572  0.3259  0.2226
18494TIP3    H176897   1.199   4.371   2.378 -0.5456 -1.8197  0.2071
18494TIP3    H276898   1.074   4.451   2.407  1.1170  1.0898 -0.2971
18495TIP3   OH276899   5.479   2.509  14.455  0.3788 -0.8238 -0.3064
18495TIP3    H176900   5.499   2.603  14.454 -1.6886 -0.3140  1.3629
18495TIP3    H276901   5.462   2.488  14.363 -1.9900  1.1474 -0.4159
18496TIP3   OH276902   5.842   4.855  11.392  0.3399 -0.1243 -0.1665
18496TIP3    H176903   5.927   4.841  11.433  0.3087 -0.8295 -0.3236
18496TIP3    H276904   5.804   4.767  11.385 -0.1696  0.1218 -0.5922
18497TIP3   OH276905   6.213   2.665   1.136  0.1445 -0.5098  0.4769
18497TIP3    H176906   6.163   2.589   1.107 -1.6387  0.5685  0.6283
18497TIP3    H276907   6.176   2.687   1.222 -0.3699  1.3849 -0.1978
18498TIP3   OH276908   1.821   1.090  16.389  0.0077  0.4547  0.6805
18498TIP3    H176909   1.824   1.029  16.315  0.4812  1.3709 -0.0791
18498TIP3    H276910   1.747   1.147  16.369  0.5361  1.1120  0.5700
18499TIP3   OH276911   3.575   1.835  14.924  0.0443 -0.2300 -0.0331
18499TIP3    H176912   3.590   1.786  15.005  0.9264  1.0018  0.5727
18499TIP3    H276913   3.481   1.854  14.925 -0.1463 -1.1206  0.1660
18500TIP3   OH276914   2.437   4.105   1.869 -0.1798  0.2412 -0.2385
18500TIP3    H176915   2.466   4.061   1.790  0.5204 -1.8149  1.0794
18500TIP3    H276916   2.349   4.070   1.886  0.5134 -1.0151  0.9994
18501TIP3   OH276917   0.556   4.031  11.871 -0.1335  1.0336 -0.3517
18501TIP3    H176918   0.616   4.069  11.807  1.4837 -0.0095  0.4738
18501TIP3    H276919   0.604   3.956  11.907 -1.5018  0.8373  1.1582
18502TIP3   OH276920   3.431   0.739  13.813  0.1225  0.1483  0.7511
18502TIP3    H176921   3.405   0.804  13.749 -0.1345 -0.5897  0.0887
18502TIP3    H276922   3.350   0.694  13.837  0.0595  1.0275  2.3107
18503TIP3   OH276923   4.870   4.885  16.339 -0.2767  0.0119  0.5542
18503TIP3    H176924   4.915   4.934  16.270  0.3272  0.9707  1.5908
18503TIP3    H276925   4.889   4.793  16.320 -1.4505  0.1172 -1.4486
18504TIP3   OH276926   4.010   0.309  14.848 -0.2556 -0.2886  0.7104
18504TIP3    H176927   4.032   0.390  14.894  0.8925  0.4693 -1.0542
18504TIP3    H276928   3.937   0.272  14.899 -0.9942  1.9648  1.4500
18505TIP3   OH276929   3.744   1.234  11.850 -0.2763 -0.3202  0.0291
18505TIP3    H176930   3.703   1.174  11.787  1.1475 -2.6061  1.1491
18505TIP3    H276931   3.675   1.252  11.914 -0.8365 -0.4567 -0.5212
18506TIP3   OH276932   2.728   3.139  17.135 -0.2361  0.1004  0.6033
18506TIP3    H176933   2.743   3.202  17.206 -2.3373  1.8974 -0.4290
18506TIP3    H276934   2.699   3.192  17.061 -0.8704 -1.9866 -0.7426
18507TIP3   OH276935   1.845   0.649  15.756 -0.4627  0.2815  0.0292
18507TIP3    H176936   1.827   0.581  15.691  0.4312  0.1821 -0.1338
18507TIP3    H276937   1.768   0.704  15.756 -0.7853 -0.1618 -0.5665
18508TIP3   OH276938   1.525   5.291  11.410  0.0665  0.0410 -0.0353
18508TIP3    H176939   1.567   5.328  11.488 -0.1917 -0.2969  0.2702
18508TIP3    H276940   1.440   5.335  11.406 -0.4180 -0.7975  0.5714
18509TIP3   OH276941   0.413   5.852  14.344 -0.5065  0.4779  0.3304
18509TIP3    H176942   0.419   5.885  14.255  1.1990  0.3177  0.3580
18509TIP3    H276943   0.333   5.800  14.345  0.0859 -0.5504 -1.4763
18510TIP3   OH276944   1.024   2.347  10.684 -0.1025 -0.1357  0.2294
18510TIP3    H176945   1.103   2.299  10.707 -0.7911 -1.8691 -0.8197
18510TIP3    H276946   0.961   2.279  10.661 -0.7834  1.3090 -2.5247
18511TIP3   OH276947   1.733   4.222  16.987 -0.4690 -0.3289  0.2991
18511TIP3    H176948   1.752   4.265  17.070  2.2289 -0.8924  0.0650
18511TIP3    H276949   1.818   4.214  16.944 -1.3598 -2.6638 -1.2325
18512TIP3   OH276950   3.466   1.270  11.014  1.0661  0.3132 -0.3497
18512TIP3    H176951   3.545   1.252  10.964  1.1782 -4.9025  1.1663
18512TIP3    H276952   3.488   1.247  11.104 -1.2399  2.1972  0.8279
18513TIP3   OH276953   3.916   2.921   5.088 -0.9983 -0.2339  0.2267
18513TIP3    H176954   3.965   2.873   5.021  0.4694 -0.7999  1.6274
18513TIP3    H276955   3.830   2.937   5.049 -0.5388 -1.4446 -1.3730
18514TIP3   OH276956   5.488   4.063   1.191  0.6933  0.4218  0.4922
18514TIP3    H176957   5.397   4.093   1.197  0.4607 -0.0665 -0.3474
18514TIP3    H276958   5.483   3.986   1.134  2.0392  2.3448 -2.4609
18515TIP3   OH276959   2.495   4.097  12.909  0.2868 -0.3026  0.1562
18515TIP3    H176960   2.563   4.031  12.895  2.0311  1.5333 -0.4632
18515TIP3    H276961   2.414   4.046  12.916  1.7317 -2.6273  1.4802
18516TIP3   OH276962   3.556   6.386   1.535  0.0594  0.2166  0.2604
18516TIP3    H176963   3.610   6.308   1.545  2.8553  1.6432 -2.2851
18516TIP3    H276964   3.609   6.457   1.572 -0.9235  1.4260 -0.5746
18517TIP3   OH276965   6.155   3.732  12.871 -0.2972 -0.5371 -0.6224
18517TIP3    H176966   6.139   3.724  12.965 -2.7622 -0.6887 -0.9733
18517TIP3    H276967   6.248   3.711  12.860  0.6316  1.6448  1.9851
18518TIP3   OH276968   4.435   2.828  13.766  0.0242 -0.0300 -0.3829
18518TIP3    H176969   4.359   2.811  13.822 -0.3560  1.5274 -0.3730
18518TIP3    H276970   4.499   2.869  13.823 -0.1774  1.1147 -0.9300
18519TIP3   OH276971   1.909   5.401  11.490  0.2200 -0.3109 -0.1246
18519TIP3    H176972   1.849   5.404  11.416 -1.0957 -0.8332  0.8683
18519TIP3    H276973   1.956   5.485  11.487  0.9818 -0.7599 -2.1262
18520TIP3   OH276974   2.079   0.880   5.416 -0.1454 -0.1523 -0.0646
18520TIP3    H176975   2.040   0.948   5.470  2.5319 -0.4068  2.4090
18520TIP3    H276976   2.032   0.800   5.441 -1.5478  0.3087 -1.0873
18521TIP3   OH276977   4.094   1.235  11.230 -0.8708 -0.1015 -0.8702
18521TIP3    H176978   4.159   1.180  11.186  0.1684  2.1074 -2.3054
18521TIP3    H276979   4.012   1.216  11.186 -0.5482 -0.5788 -1.2705
18522TIP3   OH276980   1.398   6.293  12.440 -0.1818  0.3677  0.1422
18522TIP3    H176981   1.375   6.375  12.483 -3.5532 -0.9642  1.2565
18522TIP3    H276982   1.360   6.225  12.497  1.6806 -1.9278 -1.1742
18523TIP3   OH276983   4.074   1.480   4.638 -0.1532 -0.7992  0.3881
18523TIP3    H176984   4.082   1.498   4.731  1.1197 -0.9954  0.3347
18523TIP3    H276985   4.058   1.566   4.598 -0.9713 -0.7500  0.7992
18524TIP3   OH276986   2.680   0.482  10.641 -0.3061 -0.2870 -0.3287
18524TIP3    H176987   2.629   0.462  10.562 -0.2834  2.3425 -1.1087
18524TIP3    H276988   2.661   0.574  10.659  2.5574  0.2341  0.5571
18525TIP3   OH276989   0.656   2.165   5.810 -0.0401 -0.0500  0.2385
18525TIP3    H176990   0.679   2.181   5.902 -2.0270 -1.7188  1.0875
18525TIP3    H276991   0.562   2.149   5.811  0.1680 -1.7990 -1.8550
18526TIP3   OH276992   5.724   5.418   4.646  0.2521  0.2233  1.4140
18526TIP3    H176993   5.684   5.499   4.613  0.7831 -0.1662 -0.2707
18526TIP3    H276994   5.731   5.432   4.741 -2.0169  1.1000  1.5169
18527TIP3   OH276995   0.531   3.712   4.749  0.0768 -0.0038 -0.6174
18527TIP3    H176996   0.596   3.650   4.716  0.1694  0.3708 -1.1676
18527TIP3    H276997   0.555   3.795   4.707 -0.3469  0.2901 -0.2853
18528TIP3   OH276998   6.807   1.989   3.119  0.3605 -0.3942  0.2179
18528TIP3    H176999   6.744   1.962   3.053  0.7173  1.4924 -0.9888
18528TIP3    H277000   6.891   1.954   3.087  0.4947  0.3123 -0.2281
18529TIP3   OH277001   3.478   3.411   4.018  0.0249  0.2784 -0.1147
18529TIP3    H177002   3.454   3.481   3.957 -0.9361  1.2639  1.3401
18529TIP3    H277003   3.474   3.331   3.965  2.8545  1.3893 -2.2839
18530TIP3   OH277004   0.769   6.738  15.665 -0.2777 -0.1602 -0.2658
18530TIP3    H177005   0.697   6.783  15.709  0.1794  0.4457 -0.1271
18530TIP3    H277006   0.813   6.689  15.734 -0.0089  0.1989 -0.1798
18531TIP3   OH277007   1.416   3.859  15.699 -0.5801  0.1651  0.5284
18531TIP3    H177008   1.511   3.852  15.711 -0.1952  0.3585 -1.9224
18531TIP3    H277009   1.400   3.953  15.692 -1.1579  0.2061  2.0103
18532TIP3   OH277010   2.756   1.539   5.328  0.0889  0.0157 -0.3671
18532TIP3    H177011   2.845   1.571   5.343  0.2066 -0.8923  1.0467
18532TIP3    H277012   2.733   1.494   5.409 -1.1915 -0.8549 -1.1856
18533TIP3   OH277013   2.951   3.107   5.886  0.4923  0.6014  0.0483
18533TIP3    H177014   2.903   3.052   5.948 -1.3458  0.2793 -1.5491
18533TIP3    H277015   2.972   3.048   5.814  1.9236  1.1357  0.0112
18534TIP3   OH277016   0.542   4.671  13.089 -0.2511 -0.5159 -0.3949
18534TIP3    H177017   0.594   4.663  13.010 -0.1798  1.4443 -0.5834
18534TIP3    H277018   0.589   4.734  13.143 -0.2337 -1.8812  1.2976
18535TIP3   OH277019   2.276   0.817   4.370 -0.3687 -0.0165 -0.1943
18535TIP3    H177020   2.353   0.866   4.339 -0.5937  1.3904  1.3342
18535TIP3    H277021   2.261   0.751   4.302  0.7222  1.2368 -1.7339
18536TIP3   OH277022   4.955   0.701   4.586  0.1505 -0.7668  0.4206
18536TIP3    H177023   4.928   0.613   4.562 -0.0011 -0.7027  0.3510
18536TIP3    H277024   4.898   0.758   4.535  1.5473 -0.6000 -1.0407
18537TIP3   OH277025   6.549   3.391   2.944 -0.1059 -0.1995 -0.0994
18537TIP3    H177026   6.569   3.303   2.974 -0.0218  0.0130  0.4844
18537TIP3    H277027   6.461   3.385   2.906 -0.8817 -0.1655  1.6019
18538TIP3   OH277028   1.336   5.516   0.805 -0.2491 -0.1273  0.1932
18538TIP3    H177029   1.402   5.506   0.735  0.3477  0.6496  0.6281
18538TIP3    H277030   1.264   5.458   0.778  0.9061 -1.5737  0.0746
18539TIP3   OH277031   0.465   3.987  12.478 -0.7466 -0.0774  0.8230
18539TIP3    H177032   0.546   3.990  12.428 -0.3566 -1.2598  1.3628
18539TIP3    H277033   0.436   4.079  12.482 -0.0993  0.1938 -0.4179
18540TIP3   OH277034   0.490   1.710  12.837 -0.6837 -0.9389  0.0021
18540TIP3    H177035   0.464   1.699  12.928 -1.5711  1.9316  0.2028
18540TIP3    H277036   0.581   1.739  12.842 -0.4819 -1.5426 -0.0935
18541TIP3   OH277037   0.593   0.185  13.232  0.2629  0.5227  0.0319
18541TIP3    H177038   0.547   0.189  13.316  0.3717 -0.8018  0.1620
18541TIP3    H277039   0.557   0.108  13.188 -1.0000  2.0858 -1.8743
18542TIP3   OH277040   0.939   1.118  17.117  0.1173 -0.1443  0.0774
18542TIP3    H177041   0.896   1.145  17.197  0.6259 -0.0298  0.3170
18542TIP3    H277042   1.021   1.169  17.116 -1.1785  2.1308 -1.9721
18543TIP3   OH277043   5.573   3.363   1.427 -0.6101  0.2675 -0.6747
18543TIP3    H177044   5.556   3.318   1.510  0.2533 -0.0573 -0.6660
18543TIP3    H277045   5.668   3.365   1.420 -0.6498  1.5140 -1.0068
18544TIP3   OH277046   3.914   5.167  11.961  0.4768 -0.0795  0.3871
18544TIP3    H177047   3.848   5.228  11.992 -0.2525 -0.6120 -0.1004
18544TIP3    H277048   3.957   5.135  12.041 -1.1773 -1.2196  0.8656
18545TIP3   OH277049   0.766   2.326   0.920 -0.6457  0.0973 -0.1246
18545TIP3    H177050   0.708   2.273   0.866 -2.5441  1.8080  0.1300
18545TIP3    H277051   0.711   2.358   0.991  0.5608  1.9050  0.0647
18546TIP3   OH277052   6.033   1.911   4.302  0.3100  0.0614  0.2849
18546TIP3    H177053   6.121   1.915   4.340  0.3817  0.8673  0.0543
18546TIP3    H277054   6.036   1.973   4.229 -0.7615  0.8984  0.9212
18547TIP3   OH277055   0.341   2.797   4.205  0.4749  0.0853  0.0083
18547TIP3    H177056   0.398   2.824   4.133  1.8572  0.1818  1.0945
18547TIP3    H277057   0.387   2.724   4.246 -0.8435 -0.7192  0.1281
18548TIP3   OH277058   0.862   1.654   5.307 -0.2909  0.0646 -0.0754
18548TIP3    H177059   0.814   1.622   5.384  0.7701 -0.0495  0.5527
18548TIP3    H277060   0.949   1.615   5.316 -0.4235 -0.7314 -1.8394
18549TIP3   OH277061   3.153   5.252   0.902 -0.0702  0.4314 -0.2741
18549TIP3    H177062   3.069   5.212   0.921  0.1013  0.4666  0.6434
18549TIP3    H277063   3.211   5.219   0.971  0.7453  0.1742 -1.0604
18550TIP3   OH277064   2.080   5.320  11.918  0.0199 -0.5641  0.2263
18550TIP3    H177065   2.016   5.366  11.864  1.6039  0.8666 -0.5037
18550TIP3    H277066   2.096   5.238  11.870  0.8544  0.3598 -1.1457
18551TIP3   OH277067   1.484   5.200  11.757  0.6377  0.1657 -0.3683
18551TIP3    H177068   1.513   5.198  11.848  1.1578  1.0622 -0.4982
18551TIP3    H277069   1.398   5.242  11.760  0.3101 -0.5203 -0.2067
18552TIP3   OH277070   1.315   0.365  16.494  0.4812 -0.5264  0.3743
18552TIP3    H177071   1.365   0.307  16.437  3.3567 -0.3139  2.4676
18552TIP3    H277072   1.308   0.317  16.576 -1.9298 -0.0773  0.4950
18553TIP3   OH277073   4.639   4.300   3.471 -0.3084 -0.9187  0.1140
18553TIP3    H177074   4.701   4.362   3.510  0.6151 -0.7694 -1.4919
18553TIP3    H277075   4.602   4.348   3.396 -1.8365 -1.2780  0.5953
18554TIP3   OH277076   1.314   3.424   3.529 -0.6849 -0.2030  0.0683
18554TIP3    H177077   1.220   3.441   3.539 -0.7170  0.3504 -1.0385
18554TIP3    H277078   1.338   3.469   3.449  0.7290  0.4047  0.7970
18555TIP3   OH277079   0.366   2.962  12.807 -0.0648 -0.5365 -0.1234
18555TIP3    H177080   0.443   2.978  12.862  1.0241 -1.9716 -1.1602
18555TIP3    H277081   0.295   3.008  12.852  1.1713 -0.0367  1.4219
18556TIP3   OH277082   5.407   5.182   0.096 -0.4563 -0.0610  0.4645
18556TIP3    H177083   5.341   5.155   0.032 -1.0957  2.2670  0.0677
18556TIP3    H277084   5.356   5.205   0.174  0.1347 -0.7397  1.0627
18557TIP3   OH277085   6.802   4.017   5.958 -0.4566  0.1771  0.2185
18557TIP3    H177086   6.762   3.992   5.875 -1.3251  3.6537 -0.5651
18557TIP3    H277087   6.743   3.982   6.025 -2.4770  1.4307 -0.8192
18558TIP3   OH277088   0.409   3.030   4.001 -0.1629  0.1928 -0.3285
18558TIP3    H177089   0.460   3.008   3.923 -0.8225  0.1682 -0.7515
18558TIP3    H277090   0.404   3.125   4.000  1.6598  0.3550  0.8550
18559TIP3   OH277091   0.293   5.243  13.212 -0.3268 -0.1752  0.1721
18559TIP3    H177092   0.227   5.308  13.190 -0.2471 -0.2217 -0.2136
18559TIP3    H277093   0.376   5.282  13.182 -0.1698 -0.0956  0.6929
18560TIP3   OH277094   0.913   5.781   0.356  0.0225  0.0605  0.2394
18560TIP3    H177095   0.854   5.829   0.413  3.2617  3.6997  0.9650
18560TIP3    H277096   0.961   5.721   0.414  0.2907  0.5670  0.5429
18561TIP3   OH277097   5.560   0.534   3.213 -0.1693 -0.1524  0.7709
18561TIP3    H177098   5.641   0.584   3.219 -0.7059  1.2809 -2.2459
18561TIP3    H277099   5.507   0.567   3.286  0.8332  1.1223  0.9640
18562TIP3   OH277100   6.695   4.106  15.986 -0.2225 -0.2236 -0.0847
18562TIP3    H177101   6.773   4.087  16.037 -0.4780  2.4299  1.5271
18562TIP3    H277102   6.641   4.028  15.993  0.7035 -0.7287  1.9474
18563TIP3   OH277103   2.381   5.619   5.347  0.0502 -0.1478  0.1479
18563TIP3    H177104   2.476   5.610   5.338  0.2713  1.7414  0.1386
18563TIP3    H277105   2.368   5.649   5.437 -0.6692 -1.5665  0.5531
18564TIP3   OH277106   5.394   1.800  14.485  0.3413  0.2584 -0.6086
18564TIP3    H177107   5.481   1.789  14.448  0.7941  1.4041  0.0831
18564TIP3    H277108   5.362   1.882  14.448  0.2446  0.7067  0.4306
18565TIP3   OH277109   6.312   0.040   2.749 -0.1175  0.1261 -0.6196
18565TIP3    H177110   6.292  -0.029   2.812  0.4592 -0.2096 -0.8004
18565TIP3    H277111   6.376   0.002   2.690 -0.1929  0.6428 -1.0473
18566TIP3   OH277112   5.690   4.861   3.774  0.3056  0.0823 -0.0284
18566TIP3    H177113   5.750   4.806   3.723  1.9152  0.3640  1.4840
18566TIP3    H277114   5.729   4.865   3.861 -1.5016  0.9699  0.7884
18567TIP3   OH277115   0.561   1.236  14.626 -0.2600 -0.6048  0.0406
18567TIP3    H177116   0.623   1.214  14.556  0.5093 -2.6634  1.3052
18567TIP3    H277117   0.485   1.273  14.580  0.8502 -0.4292 -1.7335
18568TIP3   OH277118   4.888   3.546  12.223  0.1517 -0.3002  0.1066
18568TIP3    H177119   4.931   3.631  12.232 -0.0298 -0.2987  0.9907
18568TIP3    H277120   4.830   3.556  12.148  0.4350  0.2260 -0.0432
18569TIP3   OH277121   1.634   5.268  17.185 -0.0072  0.4359  0.1192
18569TIP3    H177122   1.700   5.204  17.210 -1.0365  0.5490  3.6978
18569TIP3    H277123   1.680   5.353  17.189  0.6170  0.2460 -1.7675
18570TIP3   OH277124   6.395   3.955   6.186  0.1750 -0.0451  0.2070
18570TIP3    H177125   6.375   3.978   6.277  1.0199 -1.8860  0.8975
18570TIP3    H277126   6.343   3.878   6.168 -1.0955  1.1130 -1.4090
18571TIP3   OH277127   2.767   0.493   5.711  0.5089  0.4691 -0.1993
18571TIP3    H177128   2.788   0.585   5.729  2.9591  0.0675 -0.6300
18571TIP3    H277129   2.697   0.472   5.772 -0.4462  2.7390 -0.4060
18572TIP3   OH277130   5.782   3.931  11.889  0.0162  0.1772 -0.0587
18572TIP3    H177131   5.838   3.955  11.963 -2.4866  1.0285  1.6878
18572TIP3    H277132   5.828   3.965  11.812  1.6409  1.2463  1.3086
18573TIP3   OH277133   6.362   6.047  12.342 -0.0880 -0.1929 -0.2355
18573TIP3    H177134   6.430   5.988  12.373  0.2486  0.7294  0.8312
18573TIP3    H277135   6.399   6.088  12.264 -0.0821 -0.9279 -0.6204
18574TIP3   OH277136   6.595   0.880   3.170 -0.1575  0.0931 -0.1859
18574TIP3    H177137   6.624   0.858   3.082  2.7032 -0.1095  0.6910
18574TIP3    H277138   6.649   0.825   3.227 -1.0129  1.1411  1.7309
18575TIP3   OH277139   2.831   4.027   1.916 -0.4026  0.1096  0.2149
18575TIP3    H177140   2.831   4.063   1.828 -4.4789 -0.8194 -0.3366
18575TIP3    H277141   2.885   3.947   1.909  2.1321  1.7533 -0.4452
18576TIP3   OH277142   6.336   2.326   3.568  0.6982 -0.4378 -0.2092
18576TIP3    H177143   6.283   2.299   3.492 -0.1163 -1.4123  0.6637
18576TIP3    H277144   6.413   2.368   3.530  0.1523 -0.6099 -1.5685
18577TIP3   OH277145   1.008   3.866   5.230  0.3358  0.1324  0.2242
18577TIP3    H177146   0.978   3.826   5.311 -0.1231  0.0348  0.0090
18577TIP3    H277147   1.072   3.803   5.195 -0.4475 -0.4706 -0.1552
18578TIP3   OH277148   6.017   1.221   3.945 -0.2338 -0.3169  0.2974
18578TIP3    H177149   5.987   1.311   3.957  0.0807  0.2400 -2.4208
18578TIP3    H277150   5.945   1.178   3.897  0.4769 -0.8915 -0.2771
18579TIP3   OH277151   3.407   2.377   3.765  0.2831 -0.2223  0.7401
18579TIP3    H177152   3.457   2.432   3.705 -0.4882  0.9186  1.0968
18579TIP3    H277153   3.317   2.380   3.731  0.2024 -1.1825  0.8362
18580TIP3   OH277154   4.485   0.973  11.806 -0.3760  0.1252 -0.2753
18580TIP3    H177155   4.395   0.989  11.831 -0.8083 -0.0027 -1.6680
18580TIP3    H277156   4.480   0.937  11.717  1.0400  0.1771 -0.4110
18581TIP3   OH277157   2.555   0.482  15.514 -0.0952 -0.0931 -0.0547
18581TIP3    H177158   2.603   0.412  15.471  1.1334 -0.1482  1.3159
18581TIP3    H277159   2.508   0.527  15.444  0.2961 -1.3430 -1.1487
18582TIP3   OH277160   1.175   5.947  13.383 -0.9889  0.0268 -0.0629
18582TIP3    H177161   1.222   5.908  13.310  0.8209  0.6146  0.7336
18582TIP3    H277162   1.084   5.919  13.371 -0.2113 -2.3787 -0.8586
18583TIP3   OH277163   6.384   2.567  12.509 -0.0673  0.3002  0.0443
18583TIP3    H177164   6.367   2.562  12.604  0.9312  1.8642  0.3452
18583TIP3    H277165   6.371   2.478  12.478  0.6060 -0.4888  1.8449
18584TIP3   OH277166   6.399   3.146   4.661 -0.7525  0.5739  0.1286
18584TIP3    H177167   6.314   3.101   4.670 -0.7376  0.1121 -1.6467
18584TIP3    H277168   6.449   3.118   4.737 -1.9155  0.2265  0.7968
18585TIP3   OH277169   3.757   1.761  14.751  0.0435 -0.2373 -0.0336
18585TIP3    H177170   3.801   1.841  14.723 -0.1235 -0.5063 -1.1173
18585TIP3    H277171   3.692   1.790  14.815  0.3974  0.4115  0.0340
18586TIP3   OH277172   2.468   1.659  13.320  0.3408  0.0747 -0.4772
18586TIP3    H177173   2.434   1.619  13.400  0.7104  0.1720 -0.2720
18586TIP3    H277174   2.556   1.688  13.342  0.2331  0.6358 -0.7439
18587TIP3   OH277175   2.729   6.617   3.031  0.0022 -0.2171  0.3452
18587TIP3    H177176   2.645   6.600   3.075  0.0079 -0.7435  0.1650
18587TIP3    H277177   2.706   6.623   2.938 -0.1648  1.9253  0.4884
18588TIP3   OH277178   3.294   5.558   3.026  0.1640 -0.3287  0.1716
18588TIP3    H177179   3.351   5.635   3.023 -0.4457  0.1254  0.0202
18588TIP3    H277180   3.341   5.496   3.082  0.9402 -0.0786 -0.1785
18589TIP3   OH277181   1.240   5.183  14.732  0.6587  0.1644  0.4679
18589TIP3    H177182   1.209   5.211  14.646 -0.4747 -1.1091  0.4269
18589TIP3    H277183   1.248   5.265  14.782  0.5062  0.8419 -0.5777
18590TIP3   OH277184   4.640   2.051  11.396  0.1582  0.1269 -0.0176
18590TIP3    H177185   4.629   1.987  11.466 -0.3026  1.4160  1.1279
18590TIP3    H277186   4.554   2.055  11.353  0.6697 -1.3072 -1.2938
18591TIP3   OH277187   4.341   6.231   1.168  0.0351 -0.3343 -0.7812
18591TIP3    H177188   4.265   6.204   1.117  0.5843  0.7006 -2.1983
18591TIP3    H277189   4.413   6.177   1.135  0.4276  0.4549 -1.2364
18592TIP3   OH277190   3.863   4.151  12.255 -0.7190  0.3574  0.0617
18592TIP3    H177191   3.957   4.159  12.243 -0.5788 -0.0196  0.8570
18592TIP3    H277192   3.832   4.113  12.173  0.2403 -2.3482  0.8305
18593TIP3   OH277193   3.227   3.801   3.527 -0.1173  0.2797 -0.3918
18593TIP3    H177194   3.159   3.735   3.510  1.3466 -1.8655  1.5480
18593TIP3    H277195   3.178   3.878   3.556 -1.8177 -0.3776 -1.3336
18594TIP3   OH277196   1.976   2.554   4.082 -0.0282 -0.1523  0.6438
18594TIP3    H177197   2.035   2.479   4.081  3.0657  2.0445  1.8229
18594TIP3    H277198   1.977   2.586   3.992  1.9550  0.7108  0.9073
18595TIP3   OH277199   5.689   5.823   1.686  0.1261 -0.3659  0.2480
18595TIP3    H177200   5.702   5.880   1.762  0.0364  0.6321 -0.4686
18595TIP3    H277201   5.715   5.736   1.717 -0.9190 -0.1879  1.7456
18596TIP3   OH277202   1.012   3.320   1.790  0.5233 -0.1995 -0.4808
18596TIP3    H177203   0.974   3.294   1.874  0.1766  0.9660 -0.2630
18596TIP3    H277204   0.936   3.339   1.734  0.7519  1.3019 -0.3125
18597TIP3   OH277205   2.762   6.464  15.261  0.1391  0.2512 -0.5517
18597TIP3    H177206   2.699   6.530  15.229 -1.1635 -1.2994 -1.3273
18597TIP3    H277207   2.813   6.441  15.184  0.0980 -0.1714 -0.4525
18598TIP3   OH277208   2.653   0.188   2.241  0.0061 -0.1670 -0.1488
18598TIP3    H177209   2.591   0.117   2.225 -1.7144  0.6952  2.0884
18598TIP3    H277210   2.622   0.229   2.322  2.0562  1.9306 -0.3100
18599TIP3   OH277211   6.525   2.906   5.279  0.1515  0.1016 -0.2859
18599TIP3    H177212   6.528   2.960   5.358 -0.0756 -0.0777 -0.1538
18599TIP3    H277213   6.603   2.933   5.229 -0.9522  1.9115 -1.1366
18600TIP3   OH277214   0.648   5.965  14.437 -0.3437 -0.3181  0.6121
18600TIP3    H177215   0.560   5.928  14.441  0.1564 -1.6720 -0.2372
18600TIP3    H277216   0.699   5.912  14.499 -0.1592  0.5976  1.2612
18601TIP3   OH277217   1.981   3.036   2.239 -0.2147 -0.9399  0.1108
18601TIP3    H177218   2.071   3.028   2.271  0.0387 -1.1116 -0.6266
18601TIP3    H277219   1.975   3.125   2.205 -0.9458 -0.2280  1.9980
18602TIP3   OH277220   1.439   3.023  16.273  0.1221 -0.3425  0.5610
18602TIP3    H177221   1.372   2.955  16.276 -0.1279 -0.0777  1.7053
18602TIP3    H277222   1.507   2.992  16.334  1.2239 -0.7740 -0.8322
18603TIP3   OH277223   4.540   1.660   1.222 -0.2521 -0.7148 -0.2340
18603TIP3    H177224   4.633   1.672   1.239  0.4077 -1.8408 -2.7255
18603TIP3    H277225   4.506   1.621   1.303  0.9867  1.4183  1.4246
18604TIP3   OH277226   1.765   0.332   6.186 -0.2339 -0.3370 -0.1498
18604TIP3    H177227   1.838   0.270   6.178  1.1405  1.4241 -2.3588
18604TIP3    H277228   1.690   0.284   6.152  0.6984 -1.0312 -1.3355
18605TIP3   OH277229   2.100   6.529   2.910  0.2697  0.3892 -0.2365
18605TIP3    H177230   2.192   6.514   2.889  0.5675  3.4457 -1.6048
18605TIP3    H277231   2.061   6.556   2.827 -1.5630  0.4923  0.6162
18606TIP3   OH277232   3.947   4.030   3.833 -0.2864  0.1454 -0.7578
18606TIP3    H177233   3.853   4.031   3.856  0.0128  2.3678  0.7557
18606TIP3    H277234   3.953   3.973   3.757 -2.5931 -1.5652  0.2309
18607TIP3   OH277235   1.187   3.691  15.436  0.1022 -0.0523 -0.0654
18607TIP3    H177236   1.221   3.660  15.520 -0.1701 -1.0850 -0.3314
18607TIP3    H277237   1.256   3.748  15.402 -0.1168  1.0555  1.2236
18608TIP3   OH277238   5.159   6.392  14.351  0.5196 -0.1259 -0.0046
18608TIP3    H177239   5.218   6.318  14.337  1.6228  0.8491 -0.6333
18608TIP3    H277240   5.071   6.356  14.334  1.1058 -1.0758 -1.1292
18609TIP3   OH277241   0.756   6.348  12.139  0.4842 -0.3416  0.2861
18609TIP3    H177242   0.763   6.256  12.114  0.1631 -0.0059 -1.1736
18609TIP3    H277243   0.769   6.349  12.234  2.3740 -1.6579  0.0819
18610TIP3   OH277244   4.180   0.332  16.560 -0.3666 -0.1092 -0.3776
18610TIP3    H177245   4.230   0.389  16.618 -2.3829  2.6602 -1.1596
18610TIP3    H277246   4.243   0.301  16.495  0.5863  2.4515 -0.7765
18611TIP3   OH277247   0.813   5.536   5.988  0.0020 -0.3426 -0.4390
18611TIP3    H177248   0.749   5.607   6.002  1.3530  0.8591 -0.1123
18611TIP3    H277249   0.833   5.505   6.076  1.0315  0.3864 -0.3957
18612TIP3   OH277250   6.370   1.025   5.132  0.0572 -0.4078  0.0255
18612TIP3    H177251   6.308   1.088   5.167 -1.0660 -1.2958 -0.3100
18612TIP3    H277252   6.428   1.005   5.206 -0.4430 -0.0422  0.5211
18613TIP3   OH277253   3.156   6.066  11.124  0.0752 -0.1835  0.3868
18613TIP3    H177254   3.130   6.006  11.054  0.5006 -1.2857  1.1380
18613TIP3    H277255   3.076   6.078  11.175  0.4732 -1.9593  1.5305
18614TIP3   OH277256   5.740   2.611   3.981  0.9684  0.1775 -0.3818
18614TIP3    H177257   5.762   2.699   3.952  0.6032  0.1103 -0.8743
18614TIP3    H277258   5.765   2.555   3.908  2.3587 -0.2720  0.4075
18615TIP3   OH277259   3.332   0.212   5.378  0.0879  0.0998  0.3743
18615TIP3    H177260   3.371   0.213   5.291 -0.0270  1.6367  0.3235
18615TIP3    H277261   3.242   0.183   5.364  0.0979  0.2498  0.0061
18616TIP3   OH277262   6.594   3.780   2.370  0.4158  0.2889 -0.0248
18616TIP3    H177263   6.602   3.859   2.423 -0.0533  0.4801 -0.2424
18616TIP3    H277264   6.607   3.809   2.280  1.3104 -0.0512 -0.0187
18617TIP3   OH277265   6.459   1.529   5.061  0.3702 -0.8603  0.1340
18617TIP3    H177266   6.498   1.586   5.127 -0.8630  0.0161  0.1414
18617TIP3    H277267   6.365   1.548   5.066  0.2217 -0.9198 -1.7211
18618TIP3   OH277268   4.755   2.407   4.939  0.5404 -0.4744 -0.4211
18618TIP3    H177269   4.721   2.364   5.018  0.2233 -1.3443 -1.0260
18618TIP3    H277270   4.812   2.476   4.973 -1.0281  0.3792  0.6109
18619TIP3   OH277271   6.620   5.892  11.465 -0.1406  0.2853 -0.3497
18619TIP3    H177272   6.585   5.977  11.441  1.4451  1.3258  0.7976
18619TIP3    H277273   6.706   5.911  11.503  0.3209 -1.8391 -0.1744
18620TIP3   OH277274   0.977   5.919   5.591  0.1970  0.2948 -0.0940
18620TIP3    H177275   0.946   5.994   5.640  0.3168 -0.2811  0.8788
18620TIP3    H277276   1.003   5.855   5.657 -1.3320 -1.2204 -0.8548
18621TIP3   OH277277   2.890   5.070  16.385  0.2609 -0.2610  0.3768
18621TIP3    H177278   2.898   5.141  16.449  0.8559 -0.1768  0.2132
18621TIP3    H277279   2.936   4.996  16.425 -0.0460 -0.4496  0.3879
18622TIP3   OH277280   5.927   3.339   2.573  0.3363  0.5030 -0.2491
18622TIP3    H177281   6.006   3.293   2.546  0.8272  1.0277  0.2495
18622TIP3    H277282   5.945   3.367   2.663  0.7989  3.1855 -1.0752
18623TIP3   OH277283   2.542   3.504   4.489  0.5200  0.0090 -0.3211
18623TIP3    H177284   2.573   3.582   4.534  1.0659 -1.7259  2.5333
18623TIP3    H277285   2.531   3.438   4.558 -1.4755 -1.9931 -2.3554
18624TIP3   OH277286   1.508   3.618   5.810 -0.5313 -0.3401  0.1432
18624TIP3    H177287   1.497   3.694   5.753 -0.5284 -0.9009 -0.6282
18624TIP3    H277288   1.599   3.621   5.837  0.8087 -2.4420 -3.4763
18625TIP3   OH277289   0.893   3.351  15.026  0.4755 -0.2684  0.3640
18625TIP3    H177290   0.899   3.316  15.115  1.8804 -0.3353  0.2689
18625TIP3    H277291   0.849   3.282  14.976 -0.6414 -0.0838  1.0706
18626TIP3   OH277292   2.503   3.849   5.143 -0.0704 -0.1602 -0.2586
18626TIP3    H177293   2.549   3.767   5.120 -0.8431 -0.1459 -2.0584
18626TIP3    H277294   2.411   3.828   5.132 -0.7720 -0.5330  4.4461
18627TIP3   OH277295   6.600   6.302   0.024  0.1831  0.1454  0.3778
18627TIP3    H177296   6.693   6.282   0.014 -0.0942 -0.7297 -0.6258
18627TIP3    H277297   6.568   6.311  -0.066 -0.4243  1.8321  0.7241
18628TIP3   OH277298   4.883   6.668   2.426  0.0729 -0.1085 -0.4576
18628TIP3    H177299   4.874   6.572   2.423 -0.1290 -0.0966 -0.2971
18628TIP3    H277300   4.957   6.683   2.485  0.0207 -0.1615 -0.3791
18629TIP3   OH277301   5.355   4.729  11.698 -0.8425  0.6786 -0.3524
18629TIP3    H177302   5.342   4.693  11.611 -1.9907 -0.6181  0.3182
18629TIP3    H277303   5.402   4.811  11.684 -0.1505  0.0234 -2.1044
18630TIP3   OH277304   5.636   1.734  14.402 -0.6461 -0.8203 -0.2633
18630TIP3    H177305   5.708   1.793  14.381 -1.0795  0.1900  0.9994
18630TIP3    H277306   5.671   1.647  14.382  0.6435 -0.2928 -0.4367
18631TIP3   OH277307   0.318   1.731   5.549 -0.9272  0.0268  0.5099
18631TIP3    H177308   0.248   1.681   5.508 -1.5687  0.0693  1.5050
18631TIP3    H277309   0.278   1.816   5.569 -0.6664 -0.0195  1.2713
18632TIP3   OH277310   1.347   5.967  14.782  0.4910 -1.0282  0.3091
18632TIP3    H177311   1.393   6.050  14.787 -0.9579 -0.1292 -0.5401
18632TIP3    H277312   1.356   5.940  14.691 -0.1674 -1.1107  0.2616
18633TIP3   OH277313   5.875   0.157   1.834 -0.1319 -0.5147 -0.4390
18633TIP3    H177314   5.962   0.172   1.797 -0.2003 -0.2772 -0.4998
18633TIP3    H277315   5.821   0.133   1.759 -0.0233 -1.0833 -0.3450
18634TIP3   OH277316   2.336   4.496  14.258  0.5818 -0.5605  0.6226
18634TIP3    H177317   2.389   4.418  14.244 -0.2317 -0.6771 -2.5409
18634TIP3    H277318   2.348   4.549  14.179 -0.4075  1.6184  1.8259
18635TIP3   OH277319   2.396   1.550   5.076 -0.4288 -0.1034  0.5522
18635TIP3    H177320   2.330   1.616   5.053 -0.3064  0.3918  1.5903
18635TIP3    H277321   2.350   1.466   5.067 -0.8049  0.1609 -0.0334
18636TIP3   OH277322   1.772   3.860  14.680  0.1236  0.4125  0.6002
18636TIP3    H177323   1.842   3.923  14.664 -0.1670  0.8304  0.9557
18636TIP3    H277324   1.731   3.849  14.595  0.1343  0.7556  0.5473
18637TIP3   OH277325   3.658   3.433  14.551 -0.0857  0.2715  0.0414
18637TIP3    H177326   3.576   3.468  14.585 -0.7374 -0.8670 -0.3013
18637TIP3    H277327   3.661   3.463  14.460 -0.2558  0.0955 -0.0225
18638TIP3   OH277328   0.147   4.071   3.264 -0.2891 -0.8937 -0.2355
18638TIP3    H177329   0.133   4.137   3.196 -0.5933 -0.1532  0.5322
18638TIP3    H277330   0.148   4.120   3.346 -1.3162 -1.9198  0.4319
18639TIP3   OH277331   3.917   1.285  11.458 -0.2639  0.5018 -0.3602
18639TIP3    H177332   3.961   1.331  11.530 -1.0444 -0.9883  1.1595
18639TIP3    H277333   3.988   1.258  11.400  0.7094 -0.2873  1.1041
18640TIP3   OH277334   2.338   0.900  16.581  0.2766  0.6719  0.5067
18640TIP3    H177335   2.382   0.982  16.561  0.2352  0.4558 -0.5401
18640TIP3    H277336   2.362   0.880  16.672  1.4291  1.1120  0.3055
18641TIP3   OH277337   5.782   6.064   0.348 -0.1837  0.5638 -0.0869
18641TIP3    H177338   5.794   5.969   0.344  0.9693  0.6982  0.0095
18641TIP3    H277339   5.859   6.097   0.395  0.1413  1.6855 -1.3279
18642TIP3   OH277340   1.260   2.445  16.179  0.7541  0.4307 -0.1394
18642TIP3    H177341   1.240   2.357  16.211  1.3400  0.3200 -0.0760
18642TIP3    H277342   1.176   2.478  16.147  0.3694  0.1429  0.5470
18643TIP3   OH277343   1.120   4.168  17.049 -0.4090  0.4768  0.3991
18643TIP3    H177344   1.159   4.211  17.125 -0.2205  1.0114  0.0020
18643TIP3    H277345   1.178   4.189  16.976 -0.0791 -0.8072  0.2674
18644TIP3   OH277346   1.300   6.335  14.003 -0.2787  0.3680  0.3878
18644TIP3    H177347   1.206   6.320  14.015 -0.1953  0.4511  1.2493
18644TIP3    H277348   1.317   6.418  14.047  0.4469 -0.3764  1.5815
18645TIP3   OH277349   5.270   4.562  12.449  0.1393 -0.4965 -0.3893
18645TIP3    H177350   5.251   4.645  12.403  1.3765 -0.6190 -1.1660
18645TIP3    H277351   5.362   4.568  12.473 -0.2120 -0.9102  1.1685
18646TIP3   OH277352   2.633   1.883  15.883  0.0495  0.2054 -0.1012
18646TIP3    H177353   2.539   1.893  15.897  0.0877  0.2495  0.1369
18646TIP3    H277354   2.666   1.972  15.873 -0.2037  0.1195 -2.0934
18647TIP3   OH277355   4.958   0.313  16.519 -0.2376 -0.0047  0.0832
18647TIP3    H177356   4.896   0.331  16.589 -0.6371  0.1951 -0.3140
18647TIP3    H277357   5.042   0.301  16.563 -0.7363 -1.3437  0.7456
18648TIP3   OH277358   4.814   3.277  14.645  0.3551  0.4388 -0.0086
18648TIP3    H177359   4.877   3.346  14.668 -0.7120  0.5422  2.9412
18648TIP3    H277360   4.804   3.225  14.724 -2.5649 -0.1436 -0.6248
18649TIP3   OH277361   4.474   5.609   9.702  0.5191 -0.4011 -0.2102
18649TIP3    H177362   4.414   5.649   9.765 -0.3476 -1.8120 -0.0827
18649TIP3    H277363   4.541   5.675   9.686 -0.3949  0.7508  0.6043
18650TIP3   OH277364   3.727   2.229  14.587 -0.5337  0.0055  0.9856
18650TIP3    H177365   3.678   2.308  14.563  1.1139  0.0871 -2.9224
18650TIP3    H277366   3.673   2.157  14.553  0.5454 -0.0758 -0.6930
18651TIP3   OH277367   3.101   5.098  14.264 -0.2971  0.0531 -0.3315
18651TIP3    H177368   3.135   5.086  14.352 -0.0394 -2.2667 -0.6816
18651TIP3    H277369   3.179   5.109  14.209 -0.3063 -0.7378 -0.5277
18652TIP3   OH277370   0.857   2.043  15.011  0.0039  0.3713  0.4905
18652TIP3    H177371   0.935   2.047  15.067  0.3505 -0.3056  0.0780
18652TIP3    H277372   0.847   2.131  14.976 -0.6142  0.9917  2.1250
18653TIP3   OH277373   0.017   0.987   0.181 -0.5168 -0.0108 -0.4000
18653TIP3    H177374  -0.024   0.920   0.127  0.5992  0.0463 -1.3552
18653TIP3    H277375  -0.045   1.059   0.182  0.0916  0.6525 -3.0195
18654TIP3   OH277376   6.640   1.231   4.237  0.4240  0.7007  0.1118
18654TIP3    H177377   6.556   1.192   4.259  1.2237 -1.3982 -0.3156
18654TIP3    H277378   6.629   1.262   4.147  0.5836 -1.1741 -0.5976
18655TIP3   OH277379   6.656   0.154   4.543  0.1847 -0.4160  0.7530
18655TIP3    H177380   6.649   0.161   4.638 -0.4104  0.6229  0.6440
18655TIP3    H277381   6.711   0.077   4.529  0.0667 -0.7371  1.9300
18656TIP3   OH277382   1.016   6.215  16.597 -0.0241  0.5219 -0.0421
18656TIP3    H177383   0.950   6.165  16.549  0.9248 -1.1222  0.2843
18656TIP3    H277384   0.970   6.248  16.674 -0.3921 -1.0480  0.4489
18657TIP3   OH277385   1.590   0.551  16.840 -0.6052  0.2906 -0.3334
18657TIP3    H177386   1.588   0.499  16.760 -0.5048  0.2051 -0.2793
18657TIP3    H277387   1.499   0.551  16.871 -0.6690  0.4301 -0.5156
18658TIP3   OH277388   6.043   0.076   6.038 -0.0156 -0.0846  0.0909
18658TIP3    H177389   5.958   0.103   6.004 -0.4164 -1.5358 -0.1223
18658TIP3    H277390   6.031  -0.016   6.062  1.3278 -0.1430  0.6103
18659TIP3   OH277391   5.938   6.183   5.360  0.2588  0.2313 -0.2027
18659TIP3    H177392   5.936   6.203   5.267  0.8637  2.1632  0.1564
18659TIP3    H277393   5.956   6.267   5.403 -3.2216  0.1204  1.8935
18660TIP3   OH277394   2.313   6.508  14.397  0.1908 -0.3708  0.4023
18660TIP3    H177395   2.391   6.483  14.346 -0.8683 -0.9369 -1.0063
18660TIP3    H277396   2.279   6.585  14.351  0.0140 -0.0079  1.1267
18661TIP3   OH277397   6.528   4.841  11.608 -0.5624 -0.6369  0.1090
18661TIP3    H177398   6.547   4.934  11.595  1.4217 -0.9798  0.1410
18661TIP3    H277399   6.495   4.810  11.524  0.6874 -0.3071 -0.5259
18662TIP3   OH277400   0.802   5.705   1.790 -0.1680  0.1982  0.2502
18662TIP3    H177401   0.793   5.653   1.870 -0.5325 -0.8776 -0.4777
18662TIP3    H277402   0.735   5.671   1.731  2.0317 -1.1550 -1.6467
18663TIP3   OH277403   1.553   5.787  13.191 -0.0854 -0.4820  0.1041
18663TIP3    H177404   1.574   5.734  13.268  0.0088 -1.5505 -0.6305
18663TIP3    H277405   1.549   5.724  13.119  0.6322  0.5803 -0.9152
18664TIP3   OH277406   3.606   4.369  17.090  0.0964  0.3043  0.1066
18664TIP3    H177407   3.574   4.305  17.153 -0.0059  0.5510  0.3057
18664TIP3    H277408   3.664   4.425  17.141  1.3168 -0.4807 -0.3601
18665TIP3   OH277409   5.948   3.105   0.644 -0.0953  0.1794  0.3493
18665TIP3    H177410   5.863   3.110   0.600 -0.8505  0.4334  1.7927
18665TIP3    H277411   5.929   3.069   0.730  1.6179 -2.1889 -0.1566
18666TIP3   OH277412   1.204   4.433  12.003  0.4349 -0.0866 -0.0165
18666TIP3    H177413   1.165   4.393  11.926 -1.1044  0.4267  0.4604
18666TIP3    H277414   1.293   4.454  11.976  0.9663 -2.7913 -0.6199
18667TIP3   OH277415   1.747   4.606   3.146 -0.1038 -0.3943  0.2520
18667TIP3    H177416   1.672   4.565   3.189  0.3093 -2.0999 -0.5820
18667TIP3    H277417   1.709   4.680   3.097 -0.9524 -0.1138  1.3015
18668TIP3   OH277418   5.124   1.551  16.469  0.2111 -0.0541 -0.7215
18668TIP3    H177419   5.157   1.639  16.484 -0.3678  0.0059  0.3342
18668TIP3    H277420   5.051   1.562  16.408  0.8466  0.0480 -1.4763
18669TIP3   OH277421   0.939   0.177  16.536 -0.0104  0.1684 -0.1476
18669TIP3    H177422   0.906   0.091  16.512 -0.2276  0.1962  0.0519
18669TIP3    H277423   0.907   0.235  16.466  2.3306 -0.3295 -1.7628
18670TIP3   OH277424   0.979   2.989   2.239  0.5159  0.2461  0.0071
18670TIP3    H177425   0.955   2.944   2.319 -0.6355 -0.4738 -0.7235
18670TIP3    H277426   0.913   3.058   2.229  0.1382 -0.2136 -0.7593
18671TIP3   OH277427   3.704   2.836  12.039 -0.4777  0.0665 -0.0786
18671TIP3    H177428   3.745   2.905  11.986  2.7600 -0.1571  1.8884
18671TIP3    H277429   3.678   2.880  12.120 -1.1949 -0.4608 -0.0173
18672TIP3   OH277430   1.204   4.099   3.280  0.8404 -0.1443  0.4962
18672TIP3    H177431   1.137   4.096   3.348  0.9150  1.0013  0.6344
18672TIP3    H277432   1.162   4.061   3.203  0.7025 -1.2992  1.1196
18673TIP3   OH277433   0.080   2.026  11.810  0.3075  0.3060  0.0971
18673TIP3    H177434   0.060   1.957  11.746  0.9630 -0.0295  0.2453
18673TIP3    H277435   0.141   2.084  11.764 -1.3972  1.6547 -0.5615
18674TIP3   OH277436   6.065   3.118  11.409 -0.4110  0.0054  0.8055
18674TIP3    H177437   6.156   3.090  11.399 -0.2175  0.5171  1.1327
18674TIP3    H277438   6.017   3.037  11.429 -0.3988 -0.6672 -1.5223
18675TIP3   OH277439   3.598   4.803  12.886 -0.2066 -0.1000 -0.3656
18675TIP3    H177440   3.621   4.716  12.919 -0.7018  0.0054  0.2713
18675TIP3    H277441   3.681   4.839  12.854 -0.1233 -1.0907 -1.3172
18676TIP3   OH277442   5.934   2.573  16.803  0.3750 -0.4012 -0.4106
18676TIP3    H177443   5.934   2.551  16.710  2.8297 -2.1612 -0.0939
18676TIP3    H277444   6.019   2.614  16.818  0.8508 -1.9110  1.3798
18677TIP3   OH277445   5.514   5.876   0.308 -0.0630 -0.2132  0.4303
18677TIP3    H177446   5.459   5.853   0.383  1.1290 -0.3749  1.2885
18677TIP3    H277447   5.596   5.829   0.323  1.0640  1.6018  0.2516
18678TIP3   OH277448   3.762   2.860  10.493 -0.1798  0.5209  0.6856
18678TIP3    H177449   3.704   2.788  10.515  0.0785  0.2103  0.3557
18678TIP3    H277450   3.727   2.896  10.411 -0.5745  1.0602  1.0859
18679TIP3   OH277451   5.422   3.147  14.810 -0.4868 -0.2971 -0.1238
18679TIP3    H177452   5.327   3.135  14.810 -0.4367 -0.7301 -0.2414
18679TIP3    H277453   5.438   3.215  14.744 -0.8028  0.6232  0.7200
18680TIP3   OH277454   2.354   0.831  14.517 -0.4046  0.1009  0.2688
18680TIP3    H177455   2.335   0.773  14.442 -0.8234 -0.3136  0.6895
18680TIP3    H277456   2.275   0.829  14.570 -0.0261  0.2045  0.8484
18681TIP3   OH277457   1.983   5.890   1.467 -0.2425 -0.0996 -0.2243
18681TIP3    H177458   1.974   5.954   1.397  0.7077 -0.7216 -0.9216
18681TIP3    H277459   2.041   5.823   1.432  0.4090 -0.3235  1.2210
18682TIP3   OH277460   2.213   2.438  16.430 -0.3430  0.2723 -0.1543
18682TIP3    H177461   2.250   2.503  16.490  1.2367 -0.1435 -0.6393
18682TIP3    H277462   2.118   2.452  16.435 -0.1498  1.2615  1.2663
18683TIP3   OH277463   4.347   3.837  11.195 -0.7776 -0.8462  0.5917
18683TIP3    H177464   4.335   3.742  11.191 -1.3967 -0.7739  0.7216
18683TIP3    H277465   4.270   3.869  11.240 -1.6536 -0.0735 -1.3283
18684TIP3   OH277466   3.411   0.955   3.939  0.0826  0.0946 -0.4336
18684TIP3    H177467   3.398   0.946   3.845  0.4445 -0.0748 -0.4692
18684TIP3    H277468   3.441   1.045   3.952 -1.6963  0.7005 -0.2832
18685TIP3   OH277469   1.086   3.233  11.056 -0.1228 -0.0784  0.4312
18685TIP3    H177470   1.042   3.149  11.041 -0.4357 -0.2654  2.1744
18685TIP3    H277471   1.137   3.248  10.976  0.0840 -2.0113  0.1502
18686TIP3   OH277472   6.376   6.171   1.230 -0.6635 -0.1576 -0.0948
18686TIP3    H177473   6.370   6.200   1.139  1.3170  0.3946 -0.0967
18686TIP3    H277474   6.470   6.173   1.250 -0.9429 -1.4693  1.5840
18687TIP3   OH277475   0.840   1.250  16.082 -0.1002 -0.3760  0.3716
18687TIP3    H177476   0.874   1.160  16.074 -1.1032 -0.5874 -2.3071
18687TIP3    H277477   0.804   1.254  16.171 -2.6451 -3.6269 -0.3228
18688TIP3   OH277478   0.074   1.689   1.117  0.6791 -0.1022  0.8812
18688TIP3    H177479   0.027   1.678   1.034 -0.3987  1.1901  1.2930
18688TIP3    H277480   0.020   1.643   1.181  1.0608 -0.3521  1.0300
18689TIP3   OH277481   6.381   5.851   3.904 -0.2108  0.4085 -0.4990
18689TIP3    H177482   6.368   5.756   3.901  2.7120 -0.0974  0.4956
18689TIP3    H277483   6.404   5.870   3.995 -0.4735  2.0673 -0.7382
18690TIP3   OH277484   2.394   6.054  14.835  0.1352 -0.6102 -0.2427
18690TIP3    H177485   2.403   6.063  14.930 -0.5672  0.4504 -0.2591
18690TIP3    H277486   2.377   6.143  14.804  0.3449 -0.9494 -1.3650
18691TIP3   OH277487   3.845   1.813  17.110  0.3649  0.5437 -0.4043
18691TIP3    H177488   3.772   1.813  17.048 -0.2265 -1.2281  0.2365
18691TIP3    H277489   3.921   1.791  17.057 -0.1763 -1.2131 -0.5182
18692TIP3   OH277490   4.844   1.379  15.114  0.2494 -0.3620  0.0676
18692TIP3    H177491   4.806   1.341  15.193  0.7472 -0.8829  0.0654
18692TIP3    H277492   4.813   1.322  15.043 -2.9249  1.9232 -0.6278
18693TIP3   OH277493   1.695   0.574   2.455  0.2728 -0.0676  0.0271
18693TIP3    H177494   1.771   0.562   2.512 -0.4359  0.2895  1.0668
18693TIP3    H277495   1.730   0.618   2.377  1.2101 -0.3580  0.2783
18694TIP3   OH277496   5.130   5.283   1.660  0.0320 -0.2423 -0.1960
18694TIP3    H177497   5.152   5.314   1.572  1.5648  0.2834  0.3472
18694TIP3    H277498   5.138   5.187   1.653  0.5115 -0.1836 -0.5422
18695TIP3   OH277499   5.941   4.562   0.687  0.2057 -0.2618 -0.2005
18695TIP3    H177500   5.871   4.509   0.724 -0.0998 -0.8334 -1.5322
18695TIP3    H277501   6.021   4.516   0.711  0.0097 -0.6185 -0.2243
18696TIP3   OH277502   1.913   3.515  16.655 -0.8162 -0.3506  0.6009
18696TIP3    H177503   1.861   3.556  16.585  0.7692  1.8985  0.6301
18696TIP3    H277504   1.863   3.532  16.735 -0.3038  1.4665  0.5810
18697TIP3   OH277505   6.426   4.554  16.045 -0.3480 -0.4376  0.1178
18697TIP3    H177506   6.486   4.603  16.101  2.5229  0.1575 -3.0910
18697TIP3    H277507   6.427   4.465  16.081 -1.0355  0.5054  2.6530
18698TIP3   OH277508   6.118   3.721  13.168 -0.0069 -0.0875 -0.0788
18698TIP3    H177509   6.162   3.638  13.150 -0.8595 -0.4413 -0.5546
18698TIP3    H277510   6.186   3.775  13.208  0.4874 -1.1061  0.5024
18699TIP3   OH277511   2.270   4.097  16.375 -0.6852 -0.2871 -0.1191
18699TIP3    H177512   2.340   4.148  16.418 -0.5132 -0.5331 -0.1084
18699TIP3    H277513   2.213   4.164  16.337 -1.0043 -0.0485  0.7410
18700TIP3   OH277514   1.752   1.887  17.043  0.1831  0.0855  0.1839
18700TIP3    H177515   1.676   1.884  17.100 -0.4865  0.3216 -0.6793
18700TIP3    H277516   1.817   1.832  17.087 -1.6527 -3.0540 -0.7241
18701TIP3   OH277517   5.764   2.537   2.526  0.3816  0.1489  0.1025
18701TIP3    H177518   5.672   2.548   2.548 -0.0397  0.1142 -1.4761
18701TIP3    H277519   5.785   2.612   2.471  0.8478 -0.6254 -0.8131
18702TIP3   OH277520   4.645   1.223  15.574  0.2108 -0.5301  0.3954
18702TIP3    H177521   4.687   1.151  15.620 -1.0071 -1.0128  0.8115
18702TIP3    H277522   4.616   1.283  15.643 -2.3421 -1.6487  0.4230
18703TIP3   OH277523   1.974   4.306   1.454  0.3821 -0.6547  0.3907
18703TIP3    H177524   1.929   4.260   1.526 -0.5627 -0.0735  0.1771
18703TIP3    H277525   1.919   4.381   1.435  0.2002 -1.2069 -1.4775
18704TIP3   OH277526   5.410   0.885  12.929 -0.0990 -0.1440 -0.8083
18704TIP3    H177527   5.391   0.976  12.905 -0.3713  0.3865  1.2778
18704TIP3    H277528   5.324   0.847  12.948  0.2060  0.0835  1.2713
18705TIP3   OH277529   1.430   5.424  10.331  0.3616 -0.0961 -0.3446
18705TIP3    H177530   1.479   5.359  10.281 -0.0788 -0.7171  0.0110
18705TIP3    H277531   1.492   5.494  10.348  1.2268 -1.0070  0.3781
18706TIP3   OH277532   6.713   5.566  13.139 -0.3977  0.1205  0.3178
18706TIP3    H177533   6.701   5.554  13.233 -0.2057  0.0151  0.3294
18706TIP3    H277534   6.795   5.522  13.119 -1.0846 -0.9884 -0.1291
18707TIP3   OH277535   5.933   4.425  13.124 -0.4940 -0.0739  0.9317
18707TIP3    H177536   5.899   4.376  13.049 -0.2795 -0.1952  0.9121
18707TIP3    H277537   5.918   4.368  13.199  0.9998 -0.7958  0.7385
18708TIP3   OH277538   0.272   5.971   3.465  0.8856 -0.0229  0.2321
18708TIP3    H177539   0.343   5.918   3.501  2.5151  1.2542 -0.9499
18708TIP3    H277540   0.308   6.059   3.460 -0.3472  0.4369 -1.5419
18709TIP3   OH277541   6.101   4.318  16.912  0.1725  0.7056 -0.1337
18709TIP3    H177542   6.023   4.280  16.951  0.2093  0.5235 -0.2354
18709TIP3    H277543   6.166   4.247  16.915  1.3647  1.7601  2.8955
18710TIP3   OH277544   3.611   5.332   0.532 -0.0033  0.1074 -0.2926
18710TIP3    H177545   3.578   5.392   0.465  1.0049  0.5828 -0.3900
18710TIP3    H277546   3.565   5.250   0.515  0.4684  0.1123 -1.8030
18711TIP3   OH277547   1.158   5.401  10.569  0.2247 -0.0899  0.3732
18711TIP3    H177548   1.176   5.441  10.654 -1.6391 -0.8846  1.1836
18711TIP3    H277549   1.088   5.339  10.586  1.1567 -1.7337 -1.3724
18712TIP3   OH277550   5.603   3.515  11.679  0.4883 -0.0543 -0.1897
18712TIP3    H177551   5.527   3.470  11.716  1.2356 -1.3257 -0.1658
18712TIP3    H277552   5.639   3.564  11.753  0.7412 -0.8965  0.2586
18713TIP3   OH277553   0.002   3.915   4.593 -0.4354 -0.2351 -0.8093
18713TIP3    H177554   0.097   3.912   4.605  0.1300  2.0754 -3.6126
18713TIP3    H277555  -0.033   3.860   4.662  2.9165 -0.7768  0.6191
18714TIP3   OH277556   3.938   5.644  10.680  0.1193  0.2571 -0.6171
18714TIP3    H177557   3.862   5.599  10.717  1.8423 -3.2301 -0.9732
18714TIP3    H277558   3.915   5.658  10.588 -1.0041  1.5475 -0.1702
18715TIP3   OH277559   5.086   6.059  11.682 -0.0175 -0.4997  0.0385
18715TIP3    H177560   5.064   6.002  11.756 -1.3328  1.6604  1.4223
18715TIP3    H277561   5.002   6.096  11.654  0.8973  1.9891  0.3055
18716TIP3   OH277562   3.739   5.272  11.410  0.1025 -0.3431  0.3187
18716TIP3    H177563   3.723   5.181  11.435  0.1260 -0.2177  0.7882
18716TIP3    H277564   3.783   5.311  11.485  0.7830 -0.1411 -0.1789
18717TIP3   OH277565   4.023   2.527   5.220 -0.2754 -0.0496 -0.6113
18717TIP3    H177566   3.998   2.601   5.275  0.2235 -0.4466  0.1812
18717TIP3    H277567   3.964   2.531   5.145 -0.5912  0.8457 -0.3258
18718TIP3   OH277568   5.373   6.394   1.497  0.3488 -0.0296  0.0709
18718TIP3    H177569   5.337   6.307   1.516  0.9024 -0.3554 -0.3466
18718TIP3    H277570   5.296   6.449   1.481 -0.0095 -0.4171  0.4164
18719TIP3   OH277571   6.792   6.043   2.090 -0.0558 -0.0813  0.1845
18719TIP3    H177572   6.725   5.979   2.112 -1.3190  1.4327  0.9191
18719TIP3    H277573   6.822   6.077   2.175  0.5432  0.3616 -0.1941
18720TIP3   OH277574   2.077   5.649  11.444 -0.2059  0.1462  0.0314
18720TIP3    H177575   2.090   5.675  11.353  0.2608  1.3196  0.4183
18720TIP3    H277576   2.164   5.627  11.476 -0.3287  0.0300  0.2898
18721TIP3   OH277577   4.750   2.067   1.893  0.4879 -0.2759 -0.2383
18721TIP3    H177578   4.691   2.017   1.837 -0.2478 -0.0490  0.3124
18721TIP3    H277579   4.762   2.013   1.971  0.1358  0.1561  0.1190
18722TIP3   OH277580   2.773   1.135   2.651  0.0791  0.0147 -0.0300
18722TIP3    H177581   2.802   1.047   2.626 -0.5213 -0.3353  0.4753
18722TIP3    H277582   2.688   1.121   2.692  2.0389  0.1336  4.7899
18723TIP3   OH277583   0.057   3.213  14.859 -0.8721 -0.0780 -0.2893
18723TIP3    H177584  -0.016   3.250  14.810 -1.2771 -0.3358  0.1121
18723TIP3    H277585   0.055   3.258  14.943 -0.1235  0.4283 -0.5361
18724TIP3   OH277586   1.420   0.219   3.695  0.3069  0.0013 -0.4777
18724TIP3    H177587   1.435   0.128   3.720 -0.4631 -0.2704 -0.9583
18724TIP3    H277588   1.331   0.220   3.659  0.7537  0.7148 -1.6068
18725TIP3   OH277589   4.584   3.157   5.695 -0.2821  0.1211  0.0104
18725TIP3    H177590   4.489   3.156   5.710 -0.8150  1.2963 -2.6764
18725TIP3    H277591   4.615   3.232   5.746 -1.0234  0.5040 -0.0814
18726TIP3   OH277592   4.418   1.255  13.258  0.0736  0.0607  0.5451
18726TIP3    H177593   4.436   1.347  13.240 -1.4302  0.4348  0.8361
18726TIP3    H277594   4.490   1.227  13.316  1.7586  0.4131 -1.2835
18727TIP3   OH277595   1.968   5.284   0.549  0.5602  0.7525 -0.4226
18727TIP3    H177596   1.969   5.193   0.580 -0.1533  0.4251 -1.3252
18727TIP3    H277597   2.055   5.297   0.511  1.0184  0.7778  0.6062
18728TIP3   OH277598   0.961   3.923  14.981  0.1800  0.0096 -0.3306
18728TIP3    H177599   0.927   3.930  14.892  1.7320  0.6740 -0.9178
18728TIP3    H277600   1.023   3.850  14.977  0.6499  0.3755  0.0455
18729TIP3   OH277601   5.581   1.920   0.408 -0.6809  0.4348 -0.0746
18729TIP3    H177602   5.564   1.994   0.467  0.6594 -0.9060  2.1383
18729TIP3    H277603   5.611   1.849   0.466  1.6391 -0.7049 -2.4324
18730TIP3   OH277604   0.834   1.157   1.661  0.8018  0.3626 -0.5031
18730TIP3    H177605   0.795   1.178   1.745  0.5873 -1.5125 -0.0800
18730TIP3    H277606   0.762   1.121   1.609  0.9707  1.3269 -1.4444
18731TIP3   OH277607   3.915   3.511  12.207  0.2446  0.2241 -0.1211
18731TIP3    H177608   3.876   3.483  12.289 -0.4832  1.8314  0.1213
18731TIP3    H277609   4.008   3.522  12.226  0.1269  0.3016  0.4083
18732TIP3   OH277610   1.208   3.458  16.172  0.2702  0.0500  0.1973
18732TIP3    H177611   1.214   3.533  16.231  2.5865 -0.4925  0.7328
18732TIP3    H277612   1.243   3.385  16.223 -2.0969 -1.5258 -0.2236
18733TIP3   OH277613   0.184   5.652  16.805  0.5423  0.7102  0.3042
18733TIP3    H177614   0.129   5.687  16.735  0.3877 -0.0785  0.0287
18733TIP3    H277615   0.225   5.730  16.844 -2.1222  1.5473  1.7041
18734TIP3   OH277616   1.044   3.256   3.534 -0.2356 -1.0871  1.1082
18734TIP3    H177617   0.968   3.297   3.575 -0.3734  0.0665 -0.2236
18734TIP3    H277618   1.119   3.293   3.581 -0.4029 -0.0345  0.5869
18735TIP3   OH277619   0.709   6.799  14.105  0.9345 -0.4336 -0.5463
18735TIP3    H177620   0.726   6.892  14.123 -1.6127  0.2014 -1.0015
18735TIP3    H277621   0.769   6.777  14.033  0.3849  1.3870 -1.6260
18736TIP3   OH277622   3.948   3.046   0.337  0.4037  0.1093  0.2131
18736TIP3    H177623   3.919   3.105   0.406  0.0551  0.1934 -0.0029
18736TIP3    H277624   4.039   3.070   0.321 -0.1454  1.5885 -0.8976
18737TIP3   OH277625   1.670   3.672   0.045  0.7561  0.1134 -0.1308
18737TIP3    H177626   1.705   3.607   0.106  0.5423  0.2719  0.1665
18737TIP3    H277627   1.581   3.642   0.027  1.0063 -0.2454 -0.8221
18738TIP3   OH277628   1.445   1.805   1.090  0.7755  0.1551  0.0746
18738TIP3    H177629   1.442   1.730   1.150 -0.4515  0.5631  0.5630
18738TIP3    H277630   1.538   1.818   1.073  0.9734 -2.2337 -1.0186
18739TIP3   OH277631   6.109   6.140   4.075  0.3234  0.2230  0.3084
18739TIP3    H177632   6.081   6.130   4.165 -0.2126 -0.9357  0.0285
18739TIP3    H277633   6.112   6.235   4.061 -2.2207  0.4319  0.7433
18740TIP3   OH277634   4.807   6.535  15.252 -0.3336  0.1343  0.0911
18740TIP3    H177635   4.867   6.461  15.256  0.6127  0.8945  0.4514
18740TIP3    H277636   4.726   6.503  15.292 -0.5700 -1.2503 -1.3734
18741TIP3   OH277637   0.190   2.284  16.139  0.3608 -0.3258 -0.3146
18741TIP3    H177638   0.253   2.311  16.206  0.2340 -0.6131 -0.0762
18741TIP3    H277639   0.108   2.271  16.187 -0.6219  2.6564 -1.0135
18742TIP3   OH277640   0.331   3.399   2.324  0.6893 -0.4587 -0.1020
18742TIP3    H177641   0.273   3.414   2.249  1.4181  1.8807 -0.2605
18742TIP3    H277642   0.281   3.341   2.381 -0.8880 -0.3067 -1.2587
18743TIP3   OH277643   4.531   6.774   3.679 -0.0898  0.3258  0.6195
18743TIP3    H177644   4.575   6.721   3.746  0.7345 -0.5837 -0.6130
18743TIP3    H277645   4.599   6.794   3.615 -1.2479 -0.3157 -0.8555
18744TIP3   OH277646   1.159   4.524  13.765 -0.2399  0.0853  0.1168
18744TIP3    H177647   1.148   4.600  13.708 -3.2884 -0.8665 -0.8054
18744TIP3    H277648   1.184   4.560  13.850 -1.7853  2.1939 -0.2403
18745TIP3   OH277649   5.774   2.181   4.636 -0.5003  0.6228  0.1516
18745TIP3    H177650   5.832   2.106   4.620 -0.3439  1.1727 -2.0182
18745TIP3    H277651   5.807   2.219   4.718  0.3945 -0.7479  0.4634
18746TIP3   OH277652   1.988   5.022   3.338  0.3479 -0.4316 -0.0721
18746TIP3    H177653   1.900   4.992   3.317  0.7263 -0.5446 -1.6537
18746TIP3    H277654   1.994   5.109   3.299  0.7638 -0.2259  0.4470
18747TIP3   OH277655   0.915   6.158   5.775  0.1368 -0.1415 -0.0140
18747TIP3    H177656   0.825   6.190   5.766 -0.0810 -0.5191  0.7017
18747TIP3    H277657   0.927   6.148   5.870  1.8982  2.6531  0.1790
18748TIP3   OH277658   2.116   0.123  14.562 -0.0454 -0.2635 -0.0002
18748TIP3    H177659   2.187   0.075  14.521  0.6681  0.6333  0.1454
18748TIP3    H277660   2.074   0.171  14.491  0.6153  0.5748  0.1562
18749TIP3   OH277661   0.675   1.304   1.876 -0.3535  0.6397  0.1194
18749TIP3    H177662   0.745   1.274   1.933 -2.0941  0.1237  2.1204
18749TIP3    H277663   0.598   1.254   1.905 -1.5984  1.3254 -1.8352
18750TIP3   OH277664   6.390   6.523   0.697 -0.1813 -0.1491  0.1700
18750TIP3    H177665   6.353   6.502   0.611 -0.4304  0.7866  0.0385
18750TIP3    H277666   6.451   6.452   0.715 -1.5141 -1.3565  0.0714
18751TIP3   OH277667   4.765   0.811  10.647  0.2378 -0.0112  0.1271
18751TIP3    H177668   4.736   0.882  10.590  1.3948  0.9617  0.6782
18751TIP3    H277669   4.685   0.776  10.686 -0.4046  0.5408 -0.6886
18752TIP3   OH277670   6.806   0.305   1.043  0.3568  0.7886  0.3056
18752TIP3    H177671   6.761   0.240   1.096  3.6715 -2.4266 -0.4347
18752TIP3    H277672   6.789   0.388   1.087 -2.0655 -0.8324  2.7438
18753TIP3   OH277673   5.503   2.274   3.963  0.1703  0.1813 -0.1194
18753TIP3    H177674   5.580   2.218   3.955  0.6562  0.8455 -0.2165
18753TIP3    H277675   5.527   2.339   4.029 -0.9289 -0.5840  1.0677
18754TIP3   OH277676   3.274   4.501  15.921 -0.2627 -0.2359  0.2815
18754TIP3    H177677   3.252   4.559  15.994  0.0972  0.7788 -0.3836
18754TIP3    H277678   3.300   4.419  15.962  0.8785  0.6253  1.3689
18755TIP3   OH277679   3.304   2.870  16.669 -0.3881 -0.1089  0.6692
18755TIP3    H177680   3.384   2.922  16.674 -0.1673 -0.4532  0.7169
18755TIP3    H277681   3.246   2.907  16.736 -1.4718  2.1845 -1.3594
18756TIP3   OH277682   2.451   4.572  12.368 -0.2317 -0.0822  0.1428
18756TIP3    H177683   2.511   4.551  12.297  1.5832 -2.9989  2.3029
18756TIP3    H277684   2.507   4.609  12.437 -1.5900  0.7301  0.8666
18757TIP3   OH277685   4.700   3.275   0.179  0.1147  0.4181  0.0184
18757TIP3    H177686   4.710   3.344   0.114  0.9715 -0.1937 -0.5171
18757TIP3    H277687   4.607   3.251   0.174  0.2598  0.0768 -1.2968
18758TIP3   OH277688   0.074   4.000   5.245  0.0762 -0.1904  0.0768
18758TIP3    H177689   0.012   3.985   5.317  0.7896  3.1115  1.5669
18758TIP3    H277690   0.038   4.074   5.197  1.4310 -0.0175 -0.7294
18759TIP3   OH277691   3.805   5.636  10.437 -0.1309 -0.7203 -0.3006
18759TIP3    H177692   3.764   5.599  10.360  0.4835 -0.1545 -0.9158
18759TIP3    H277693   3.898   5.640  10.416 -0.1192  0.7283 -0.0940
18760TIP3   OH277694   2.010   4.509  14.222  0.3009 -0.5325  0.0844
18760TIP3    H177695   2.062   4.442  14.266  2.6908  0.5360 -0.9309
18760TIP3    H277696   2.004   4.478  14.131 -0.2824 -0.3028  0.0414
18761TIP3   OH277697   0.770   5.163   0.035 -0.1557 -0.3177  0.1708
18761TIP3    H177698   0.786   5.094   0.100  0.5230 -0.6674 -0.3556
18761TIP3    H277699   0.781   5.120  -0.049  0.4256  0.4729 -0.1636
18762TIP3   OH277700   4.819   4.224   2.363  0.0506  0.1347 -0.4369
18762TIP3    H177701   4.772   4.170   2.426 -0.4724  1.3495  0.2460
18762TIP3    H277702   4.889   4.167   2.331  0.8973 -0.2835  1.8918
18763TIP3   OH277703   0.905   2.755  10.952  0.0052  0.2558 -0.4196
18763TIP3    H177704   0.874   2.751  10.861 -0.6913 -1.7586 -0.1475
18763TIP3    H277705   0.904   2.664  10.981 -1.5115  1.0013  2.1736
18764TIP3   OH277706   2.686   6.180  11.801  0.4765 -0.0339  0.3168
18764TIP3    H177707   2.641   6.245  11.855  0.2098 -0.6972  0.9048
18764TIP3    H277708   2.692   6.221  11.715  0.4988  0.8517  0.7308
18765TIP3   OH277709   0.865   5.694   3.730  0.0013  0.0201 -0.1262
18765TIP3    H177710   0.899   5.670   3.816  1.1517 -0.3035 -0.6517
18765TIP3    H277711   0.773   5.719   3.746  0.4995  1.0296  1.3466
18766TIP3   OH277712   2.048   1.209  12.402  0.0295  0.0906  0.2781
18766TIP3    H177713   2.128   1.204  12.454 -0.1132 -0.3441  0.4593
18766TIP3    H277714   1.990   1.265  12.453 -0.1765 -0.4821  0.6868
18767TIP3   OH277715   0.076   2.902   4.917  0.1349 -0.0212 -0.0311
18767TIP3    H177716   0.154   2.907   4.973 -1.1894  0.0371  1.9247
18767TIP3    H277717   0.029   2.825   4.950  0.0742 -0.9788 -2.1991
18768TIP3   OH277718   1.642   6.650  16.972 -0.0433  0.1122  0.4530
18768TIP3    H177719   1.665   6.558  16.990 -1.5735 -0.1573  1.1732
18768TIP3    H277720   1.555   6.646  16.932 -0.0941  1.2503  0.4234
18769TIP3   OH277721   1.912   3.663   4.625  0.5698  0.5156  0.1525
18769TIP3    H177722   1.866   3.630   4.548  1.3579  2.1288 -1.0935
18769TIP3    H277723   1.861   3.632   4.699 -1.1390  0.2494 -1.0710
18770TIP3   OH277724   4.306   4.385   3.393 -0.1537  0.4953  0.1845
18770TIP3    H177725   4.301   4.290   3.385  0.4674  0.5246 -0.7181
18770TIP3    H277726   4.266   4.405   3.478 -2.3544 -0.3509 -0.5973
18771TIP3   OH277727   3.632   1.749  16.939  0.0981 -0.6288  0.5488
18771TIP3    H177728   3.570   1.820  16.960  0.0366 -0.6877  0.5666
18771TIP3    H277729   3.600   1.714  16.855  0.7142  0.0297  0.0212
18772TIP3   OH277730   5.887   1.516  14.963  0.6667 -0.1600  0.5936
18772TIP3    H177731   5.896   1.609  14.939 -0.6947  0.3790  2.0000
18772TIP3    H277732   5.836   1.517  15.044  1.7189 -2.0967  1.3395
18773TIP3   OH277733   3.315   5.642   5.125 -0.0737 -0.2384 -0.6693
18773TIP3    H177734   3.321   5.562   5.178  0.7223  0.7015  0.7123
18773TIP3    H277735   3.237   5.686   5.157 -0.0767 -0.0815 -0.8933
18774TIP3   OH277736   4.820   5.854   4.047  0.0563  0.4573 -0.1616
18774TIP3    H177737   4.819   5.883   4.138  0.9902  2.1451 -0.6322
18774TIP3    H277738   4.859   5.767   4.050  3.3989  1.8210  0.7902
18775TIP3   OH277739   0.249   1.499   0.573 -0.3117 -0.5260 -0.0249
18775TIP3    H177740   0.154   1.504   0.565 -0.4511 -0.3020  1.4807
18775TIP3    H277741   0.268   1.406   0.585 -0.2274 -0.6969 -1.3855
18776TIP3   OH277742   0.055   4.586  11.561 -0.2417  0.3707 -0.6926
18776TIP3    H177743  -0.038   4.570  11.541 -0.5287  1.8248 -0.6175
18776TIP3    H277744   0.089   4.500  11.587 -1.7266 -0.0739 -0.0988
18777TIP3   OH277745   0.527   6.224  10.631 -0.4502  0.5975  0.0180
18777TIP3    H177746   0.562   6.290  10.571 -1.7177  0.0321 -1.4277
18777TIP3    H277747   0.569   6.243  10.715 -0.1488  2.7248 -0.5379
18778TIP3   OH277748   5.129   0.183   4.525  0.1659  0.1144 -0.0493
18778TIP3    H177749   5.069   0.172   4.598 -1.7989  2.6751 -1.1249
18778TIP3    H277750   5.212   0.207   4.566 -0.0787 -1.3656  1.4023
18779TIP3   OH277751   3.115   6.801  16.099 -0.1607 -0.3527  0.6454
18779TIP3    H177752   3.065   6.729  16.061  0.0656 -0.5030  0.6319
18779TIP3    H277753   3.180   6.759  16.155 -1.1365 -0.1042  2.0082
18780TIP3   OH277754   2.561   5.021   3.918  0.2754 -0.4239 -0.1693
18780TIP3    H177755   2.593   5.042   3.831  1.3311 -0.2842  0.2427
18780TIP3    H277756   2.514   4.938   3.907 -0.8540  0.3012 -1.1289
18781TIP3   OH277757   0.523   3.146   6.531  0.0796  0.1736  0.5528
18781TIP3    H177758   0.482   3.071   6.488 -0.9675  1.0240  0.0255
18781TIP3    H277759   0.577   3.107   6.600 -1.7932 -1.0112  1.4333
18782TIP3   OH277760   3.745   2.810  16.014  0.5474  0.1549 -0.1439
18782TIP3    H177761   3.694   2.891  16.015 -0.0088 -0.0835  3.4784
18782TIP3    H277762   3.825   2.831  16.063  0.2023 -1.5062  1.2384
18783TIP3   OH277763   4.582   3.736  11.833  0.6056  0.5467  0.6567
18783TIP3    H177764   4.504   3.772  11.791  0.7033 -0.5474 -0.5396
18783TIP3    H277765   4.654   3.755  11.772  0.8743 -0.4586  0.6405
18784TIP3   OH277766   2.934   6.530  12.164 -0.0068 -0.3267 -0.0128
18784TIP3    H177767   2.961   6.439  12.157  0.0166 -0.2215 -1.6529
18784TIP3    H277768   2.853   6.536  12.114  0.2050  0.6264 -0.2769
18785TIP3   OH277769   6.214   3.063   0.814 -0.0602  0.7281 -0.1362
18785TIP3    H177770   6.261   3.134   0.770  1.4231  0.0448  0.2924
18785TIP3    H277771   6.142   3.107   0.859  1.1242  2.0542  0.5324
18786TIP3   OH277772   2.128   4.206  11.530  0.1707  0.1750  0.1984
18786TIP3    H177773   2.200   4.144  11.524  0.0628  0.1667 -1.6912
18786TIP3    H277774   2.151   4.275  11.468 -0.0445  1.7174  1.7451
18787TIP3   OH277775   4.712   2.577   5.338  0.0224 -0.0919 -0.1028
18787TIP3    H177776   4.759   2.494   5.329 -1.1785 -0.7112 -0.9879
18787TIP3    H277777   4.620   2.555   5.320 -0.8711  0.8376  2.7347
18788TIP3   OH277778   1.735   3.548   5.494 -0.7076  0.3337  0.1861
18788TIP3    H177779   1.764   3.483   5.558  1.5231 -0.3735 -1.4462
18788TIP3    H277780   1.745   3.632   5.539  2.9839  0.0577  0.1585
18789TIP3   OH277781   6.059   1.153   6.359  0.2830 -0.0238 -0.0853
18789TIP3    H177782   6.151   1.146   6.334  0.3892  0.6991  0.0774
18789TIP3    H277783   6.010   1.140   6.278  0.6007  1.7616 -0.5919
18790TIP3   OH277784   2.455   0.711   4.884 -0.0362  0.0452  0.1994
18790TIP3    H177785   2.501   0.698   4.801  0.4769  0.2629  0.4531
18790TIP3    H277786   2.517   0.757   4.940  1.2128 -3.5985  2.1372
18791TIP3   OH277787   2.516   3.799   2.889 -0.3768  0.6809  0.1678
18791TIP3    H177788   2.448   3.867   2.888 -1.1334 -0.0184  1.5152
18791TIP3    H277789   2.496   3.744   2.814 -1.7488  0.0999  0.9135
18792TIP3   OH277790   4.353   4.790  14.592 -0.7714  0.6716 -0.5004
18792TIP3    H177791   4.375   4.773  14.684  0.4634  1.6312 -0.5904
18792TIP3    H277792   4.275   4.845  14.596 -0.4601  1.0835 -0.0135
18793TIP3   OH277793   5.426   5.624   1.029 -0.1609  0.2757  0.8153
18793TIP3    H177794   5.407   5.566   1.102 -2.4077 -0.1249 -0.0025
18793TIP3    H277795   5.434   5.711   1.069 -0.9690  0.0080  1.5865
18794TIP3   OH277796   6.097   1.517   3.262  0.6987  0.3076  0.9762
18794TIP3    H177797   6.075   1.589   3.204 -1.6099  0.8686  2.4294
18794TIP3    H277798   6.153   1.460   3.209 -1.0952  0.8683 -1.7254
18795TIP3   OH277799   0.575   4.484  17.165 -0.0756  0.0174 -0.6345
18795TIP3    H177800   0.613   4.562  17.125  0.7022  0.0561  0.1330
18795TIP3    H277801   0.646   4.448  17.219 -0.0022 -1.8968 -1.8901
18796TIP3   OH277802   0.726   6.716  11.543  0.1364  0.0723 -0.5641
18796TIP3    H177803   0.770   6.784  11.594 -0.3469 -0.8862  1.2357
18796TIP3    H277804   0.797   6.668  11.500  0.7369 -0.1547  0.6223
18797TIP3   OH277805   0.631   4.335  14.470  0.3778  0.4969  0.4775
18797TIP3    H177806   0.591   4.326  14.383  0.3545 -0.3395  0.5598
18797TIP3    H277807   0.557   4.357  14.527 -0.2943 -2.3249  0.8564
18798TIP3   OH277808   0.257   1.178   4.492  0.3116 -0.2615  0.1284
18798TIP3    H177809   0.182   1.173   4.433  0.3400 -1.4438  0.1576
18798TIP3    H277810   0.250   1.099   4.547  2.9999 -1.9185 -1.6504
18799TIP3   OH277811   2.991   0.951   4.268  0.8539 -0.2631 -0.1890
18799TIP3    H177812   2.967   0.975   4.178 -0.3325  0.6305  0.3413
18799TIP3    H277813   3.086   0.947   4.267  0.8546 -0.4068 -1.5218
18800TIP3   OH277814   4.138   2.758   4.112  0.0630  0.5231  0.5201
18800TIP3    H177815   4.115   2.746   4.019  1.0727  0.5011  0.2676
18800TIP3    H277816   4.082   2.831   4.140 -0.9744 -0.1093  0.1751
18801TIP3   OH277817   2.224   6.791   1.109  0.4214  0.0964 -0.4766
18801TIP3    H177818   2.244   6.725   1.176 -1.8285 -0.1394  0.0725
18801TIP3    H277819   2.277   6.765   1.034  0.6392 -1.5335  0.1761
18802TIP3   OH277820   1.403   3.786  17.119 -0.4041  0.1443 -0.0886
18802TIP3    H177821   1.316   3.750  17.132 -0.0291 -0.3250  1.3776
18802TIP3    H277822   1.399   3.874  17.156  0.2679 -0.6540  2.0825
18803TIP3   OH277823   0.097   6.350   5.136 -0.3196 -0.4207  0.1307
18803TIP3    H177824   0.037   6.399   5.192 -0.6145  0.6902 -1.1019
18803TIP3    H277825   0.181   6.395   5.146 -0.4738  0.0497 -0.6283
18804TIP3   OH277826   0.979   4.600  11.804  0.0941 -0.2839 -0.3778
18804TIP3    H177827   0.992   4.654  11.882 -0.1128  0.5957 -0.9405
18804TIP3    H277828   0.972   4.511  11.838 -2.3498  0.2914  0.8898
18805TIP3   OH277829   5.797   5.513  13.870 -0.3651  0.7666 -0.2886
18805TIP3    H177830   5.861   5.573  13.833  0.5306  1.1182  1.7103
18805TIP3    H277831   5.848   5.435  13.892 -1.3906 -0.5303 -2.2365
18806TIP3   OH277832   2.821   4.329  11.311  0.1783 -0.3316 -0.6259
18806TIP3    H177833   2.900   4.317  11.257  0.4095 -0.3312 -0.2909
18806TIP3    H277834   2.755   4.274  11.269  1.1127 -2.5818  0.6651
18807TIP3   OH277835   4.224   0.460   1.315 -0.1644 -0.1396  0.0085
18807TIP3    H177836   4.298   0.498   1.267 -0.1470  1.5071  1.2499
18807TIP3    H277837   4.152   0.462   1.252  0.2560  0.4357 -0.4696
18808TIP3   OH277838   5.361   6.472   3.833 -0.1326  0.0216  0.6496
18808TIP3    H177839   5.335   6.441   3.919  0.2351  1.1056  1.1626
18808TIP3    H277840   5.457   6.476   3.837  0.1810 -2.9181 -0.8667
18809TIP3   OH277841   3.836   2.724  13.847  0.1138 -0.1263 -0.7541
18809TIP3    H177842   3.837   2.820  13.848 -0.2839 -0.1025 -1.6275
18809TIP3    H277843   3.745   2.701  13.865  0.2847 -0.3574 -0.1526
18810TIP3   OH277844   5.833   2.136   2.960  0.0385 -0.2379  0.2294
18810TIP3    H177845   5.756   2.192   2.966  0.9792  0.9049  3.0468
18810TIP3    H277846   5.876   2.163   2.879 -0.5899  1.7464  0.5082
18811TIP3   OH277847   5.178   0.905   1.100  0.0705  0.2031 -0.7828
18811TIP3    H177848   5.093   0.949   1.102 -0.5758 -1.0196 -0.2989
18811TIP3    H277849   5.214   0.917   1.188  0.4559  0.8048 -1.0165
18812TIP3   OH277850   6.467   4.992   6.038  0.2591  0.0916 -0.3702
18812TIP3    H177851   6.485   5.081   6.005 -1.6186  0.5738 -0.1836
18812TIP3    H277852   6.430   5.006   6.125  0.3937 -0.9121 -0.1499
18813TIP3   OH277853   1.573   0.862  16.469 -0.0551  0.5553  0.7644
18813TIP3    H177854   1.653   0.822  16.503  0.4700 -0.0331 -1.0117
18813TIP3    H277855   1.536   0.908  16.543  2.3950  1.5850  1.4604
18814TIP3   OH277856   1.803   2.804  16.762  0.1671 -0.1782  0.6808
18814TIP3    H177857   1.709   2.785  16.751  0.3345 -0.9741  0.5732
18814TIP3    H277858   1.843   2.774  16.681  0.6180 -0.5581  1.0355
18815TIP3   OH277859   6.626   1.604   3.645  0.7955  1.0188  0.2087
18815TIP3    H177860   6.593   1.532   3.698  0.6729  0.7933 -0.1706
18815TIP3    H277861   6.618   1.573   3.555  2.5373  0.7366  0.1188
18816TIP3   OH277862   3.433   2.088   2.054 -0.8367  0.3789  0.0661
18816TIP3    H177863   3.417   2.164   1.998 -0.3997  0.6148  0.2567
18816TIP3    H277864   3.354   2.034   2.044 -0.9419  0.6184 -0.4474
18817TIP3   OH277865   6.266   1.772  16.662  0.0446  0.0097 -0.1751
18817TIP3    H177866   6.246   1.727  16.580 -0.1345  1.4863 -0.9662
18817TIP3    H277867   6.181   1.784  16.704  0.0984 -0.4215  0.0617
18818TIP3   OH277868   4.950   0.541   0.064  0.7224  0.2999 -0.2401
18818TIP3    H177869   4.911   0.627   0.079  0.2353  0.2272 -1.0269
18818TIP3    H277870   5.008   0.527   0.139  0.0924  0.9026  0.3724
18819TIP3   OH277871   2.243   1.073   2.099  0.0295 -0.2243  0.3895
18819TIP3    H177872   2.159   1.032   2.123 -1.8258  2.5651 -0.8726
18819TIP3    H277873   2.261   1.040   2.011 -0.9052  0.7558 -0.1953
18820TIP3   OH277874   3.466   5.139  15.194  0.9269  1.0661  0.9049
18820TIP3    H177875   3.556   5.134  15.228  0.9921 -4.1454  0.6629
18820TIP3    H277876   3.412   5.100  15.262 -0.1442 -1.5797 -1.2777
18821TIP3   OH277877   4.000   1.838   4.994  0.5684  0.3270 -0.9707
18821TIP3    H177878   4.000   1.934   4.990  2.1527  0.5056  1.3582
18821TIP3    H277879   3.912   1.815   5.022  0.4517  1.1894 -0.5847
18822TIP3   OH277880   3.765   4.296  15.758  0.0465 -0.5944  0.3063
18822TIP3    H177881   3.706   4.371  15.748  1.5130  0.4944 -0.5127
18822TIP3    H277882   3.793   4.276  15.669  0.5713 -1.3771  0.6419
18823TIP3   OH277883   0.918   1.126  11.140 -0.3196  0.2985  0.0492
18823TIP3    H177884   0.863   1.054  11.110  1.1796 -1.6563  1.7048
18823TIP3    H277885   1.001   1.114  11.094 -0.0118  0.8880  0.4300
18824TIP3   OH277886   4.841   0.517  12.997  0.3846 -0.1218 -0.4497
18824TIP3    H177887   4.913   0.565  13.038  0.1593 -2.1590  2.6220
18824TIP3    H277888   4.885   0.459  12.934  0.9933  1.3676 -1.4492
18825TIP3   OH277889   0.574   6.129   1.234  0.3067  0.5818 -0.3126
18825TIP3    H177890   0.483   6.103   1.241  0.8763 -2.5671 -2.6269
18825TIP3    H277891   0.610   6.114   1.322 -1.0790  0.4216  0.2417
18826TIP3   OH277892   4.531   5.826   0.613  1.0574 -0.5412 -0.3405
18826TIP3    H177893   4.540   5.739   0.573  3.1368 -0.0628 -1.0471
18826TIP3    H277894   4.595   5.880   0.566  1.8001  0.6836  1.9259
18827TIP3   OH277895   0.724   1.859  10.971  0.5140 -0.3942  0.0009
18827TIP3    H177896   0.666   1.934  10.955  0.7844 -0.2299 -0.2124
18827TIP3    H277897   0.751   1.868  11.062  1.0492  0.1234 -0.2014
18828TIP3   OH277898   1.746   3.095  16.618 -0.1894 -0.5965  0.0671
18828TIP3    H177899   1.830   3.068  16.581 -0.3978 -0.6606 -0.3656
18828TIP3    H277900   1.681   3.065  16.555 -0.3764  2.0606 -1.1556
18829TIP3   OH277901   3.438   2.216  13.026  0.3011 -0.1637  0.3819
18829TIP3    H177902   3.468   2.238  12.937 -0.2360 -1.9379 -0.2646
18829TIP3    H277903   3.401   2.298  13.059 -2.0163 -0.0835 -2.0853
18830TIP3   OH277904   5.047   4.337  11.068  0.1422 -0.4894 -0.0592
18830TIP3    H177905   4.977   4.280  11.099  0.7748 -1.5109 -0.4531
18830TIP3    H277906   5.084   4.292  10.992  1.5074 -0.1952  0.3864
18831TIP3   OH277907   6.616   2.874   6.016  0.0296  0.1216 -0.0864
18831TIP3    H177908   6.562   2.921   6.079 -1.4721  2.2531 -2.7446
18831TIP3    H277909   6.687   2.935   5.994  0.6130 -0.6378 -0.3873
18832TIP3   OH277910   2.996   3.527  12.991 -0.2135 -0.3624 -0.2731
18832TIP3    H177911   2.931   3.461  12.967  0.0548  0.3379 -3.2687
18832TIP3    H277912   3.060   3.525  12.921  1.7498  0.6545  1.3765
18833TIP3   OH277913   2.437   0.517  17.062  0.4771 -0.0894  0.4239
18833TIP3    H177914   2.521   0.563  17.066 -0.8833  2.4643  2.1155
18833TIP3    H277915   2.405   0.519  17.152 -1.4576 -0.8914 -0.2087
18834TIP3   OH277916   4.883   4.475   1.610 -0.8189  0.3456 -0.0238
18834TIP3    H177917   4.890   4.392   1.562  1.3712  0.4330  0.0639
18834TIP3    H277918   4.901   4.452   1.701 -0.3975  0.8890  0.0332
18835TIP3   OH277919   1.885   0.046  16.738  0.4947 -0.2163 -0.1577
18835TIP3    H177920   1.793   0.072  16.734  1.3851  3.5290 -0.6603
18835TIP3    H277921   1.895   0.004  16.823 -1.3229  1.2264  0.8469
18836TIP3   OH277922   5.838   5.237   5.247  0.1834  0.0375 -0.3008
18836TIP3    H177923   5.773   5.176   5.282 -0.5677  1.6425  1.2514
18836TIP3    H277924   5.797   5.323   5.255  1.4760  0.8352 -1.8030
18837TIP3   OH277925   5.951   3.839   0.905  0.5623 -0.0657 -0.0284
18837TIP3    H177926   5.980   3.919   0.949  0.0372  1.5954 -2.5052
18837TIP3    H277927   5.856   3.840   0.912  0.5813 -0.8298  0.4630
18838TIP3   OH277928   1.379   1.677   4.368  0.0925  0.0566 -0.0198
18838TIP3    H177929   1.318   1.698   4.298 -0.5467  1.6369  0.9659
18838TIP3    H277930   1.350   1.591   4.400  1.3216 -1.4235 -2.6035
18839TIP3   OH277931   1.089   0.104  11.299 -0.0456 -0.1085 -0.2106
18839TIP3    H177932   1.023   0.173  11.297  1.5928  1.5606  0.2605
18839TIP3    H277933   1.109   0.087  11.207  0.8030  1.3618 -0.3208
18840TIP3   OH277934   0.434   0.641  10.391  0.3229 -0.2359 -0.5906
18840TIP3    H177935   0.446   0.554  10.352  1.5901  0.1883 -1.2001
18840TIP3    H277936   0.523   0.674  10.403 -0.1397  0.8833 -0.1297
18841TIP3   OH277937   5.945   6.658  14.137 -1.0922  0.2984  0.5472
18841TIP3    H177938   5.977   6.583  14.088  0.2537  0.2967  1.3787
18841TIP3    H277939   6.023   6.696  14.177 -1.6059  2.6172 -0.4646
18842TIP3   OH277940   6.444   4.765   1.215  0.0176  0.3469 -0.1355
18842TIP3    H177941   6.447   4.676   1.182  0.9274  0.9748 -1.8666
18842TIP3    H277942   6.372   4.806   1.168 -0.6408  0.4425  0.9254
18843TIP3   OH277943   3.379   2.762   5.920  0.1066 -0.1461  0.6914
18843TIP3    H177944   3.338   2.755   6.007  0.1097 -0.0377  0.7021
18843TIP3    H277945   3.467   2.725   5.932  1.0589  2.1207  1.3878
18844TIP3   OH277946   5.033   5.019  11.417  0.2087 -0.0627 -0.4400
18844TIP3    H177947   4.962   5.015  11.480  0.5531  2.4054  0.2264
18844TIP3    H277948   5.090   4.945  11.439 -2.2182 -2.3005 -1.2116
18845TIP3   OH277949   0.959   3.154   2.516 -0.0386 -0.2617  0.5871
18845TIP3    H177950   0.993   3.183   2.600  2.2735  0.6984 -0.5836
18845TIP3    H277951   0.920   3.069   2.533  2.8481 -1.3870  2.1747
18846TIP3   OH277952   3.947   4.603  15.728 -0.1515  0.2773 -0.2672
18846TIP3    H177953   3.862   4.577  15.693  0.0423 -1.7223  0.6058
18846TIP3    H277954   3.931   4.617  15.822  0.3650  0.4520 -0.2044
18847TIP3   OH277955   3.238   4.037   1.997  0.4804 -0.1908  0.1064
18847TIP3    H177956   3.206   4.007   2.082  0.1866  0.7661  0.3496
18847TIP3    H277957   3.318   4.085   2.018 -0.9295  2.3208  0.2194
18848TIP3   OH277958   3.858   2.627  12.972  0.2846  0.0585 -0.1729
18848TIP3    H177959   3.854   2.622  12.877  2.6810 -0.1713 -0.3231
18848TIP3    H277960   3.949   2.652  12.991 -0.4503  1.3940  2.0233
18849TIP3   OH277961   4.444   3.157  14.253  0.2481  0.2455  0.2255
18849TIP3    H177962   4.399   3.124  14.176 -0.9316  2.5598 -0.1876
18849TIP3    H277963   4.441   3.085  14.316 -0.8171 -0.9061 -1.0760
18850TIP3   OH277964   3.622   0.248   3.984 -0.0161 -0.5816 -0.9523
18850TIP3    H177965   3.542   0.204   3.955 -0.0190 -0.4077 -1.2140
18850TIP3    H277966   3.655   0.193   4.055 -0.5538 -0.4697 -0.6085
18851TIP3   OH277967   2.642   4.719   0.011 -0.4116 -0.4610  0.3091
18851TIP3    H177968   2.619   4.649  -0.051 -0.0456  0.6030 -1.0748
18851TIP3    H277969   2.707   4.679   0.068 -2.6829 -2.2942  1.7772
18852TIP3   OH277970   5.182   6.597   1.472  0.0426 -0.2530  0.2420
18852TIP3    H177971   5.138   6.618   1.554  0.1780 -1.8272  0.7465
18852TIP3    H277972   5.118   6.619   1.404 -0.1628  0.8178  0.7701
18853TIP3   OH277973   3.916   2.930   4.707  0.2387  0.0918 -0.4828
18853TIP3    H177974   3.827   2.906   4.681 -0.6124  1.3563  1.0662
18853TIP3    H277975   3.947   2.857   4.760  0.1672 -0.3904 -1.0987
18854TIP3   OH277976   3.257   5.033  12.250 -0.2150  0.2005 -0.0372
18854TIP3    H177977   3.267   4.962  12.186 -1.2338 -0.7875  0.8741
18854TIP3    H277978   3.229   5.108  12.197  0.6948 -0.1041 -0.9919
18855TIP3   OH277979   2.996   0.953   2.478  0.2329  0.0095 -0.1539
18855TIP3    H177980   2.946   0.909   2.547  1.4179 -0.4985  0.4020
18855TIP3    H277981   2.945   0.937   2.398 -1.1465  0.5858  0.5724
18856TIP3   OH277982   3.266   3.274   0.827  0.0142  0.5987 -0.5976
18856TIP3    H177983   3.196   3.226   0.784  0.5534 -0.6700 -0.0896
18856TIP3    H277984   3.226   3.308   0.907  0.2165 -0.9842  0.2059
18857TIP3   OH277985   6.195   4.840   3.792 -0.0643 -0.9053 -0.1138
18857TIP3    H177986   6.280   4.880   3.774  0.4250 -1.4435  0.8948
18857TIP3    H277987   6.186   4.770   3.727  1.2941 -2.2949  1.1018
18858TIP3   OH277988   1.996   5.059  13.477 -0.0536 -0.0317 -0.4068
18858TIP3    H177989   1.995   4.975  13.432 -1.6336 -1.2808  1.7403
18858TIP3    H277990   1.910   5.097  13.459  0.3640  0.7799 -0.7365
18859TIP3   OH277991   6.301   4.240   0.540 -0.9107  0.2133  0.1885
18859TIP3    H177992   6.354   4.160   0.538 -1.3822 -0.1693  1.5628
18859TIP3    H277993   6.362   4.310   0.518 -0.1943 -0.3977  0.1978
18860TIP3   OH277994   5.781   6.356   6.628 -0.2696 -0.4744  0.2173
18860TIP3    H177995   5.705   6.361   6.569 -2.2597 -1.3181  2.5564
18860TIP3    H277996   5.781   6.440   6.674 -1.1736 -1.2593  1.7407
18861TIP3   OH277997   3.368   4.822   3.327 -0.1043 -0.0335  0.2693
18861TIP3    H177998   3.381   4.758   3.398 -3.2562  0.9290  1.9284
18861TIP3    H277999   3.313   4.776   3.263  2.8232 -0.9383 -1.8128
18862TIP3   OH278000   0.556   0.304  15.257 -0.6701 -0.7680  0.1930
18862TIP3    H178001   0.622   0.262  15.312  0.2662  0.0969 -0.2242
18862TIP3    H278002   0.497   0.347  15.319 -0.2309 -0.6777  0.5551
18863TIP3   OH278003   4.484   1.320  15.805 -0.3648  0.0547  0.2772
18863TIP3    H178004   4.511   1.236  15.843 -1.7184 -0.5224  0.0007
18863TIP3    H278005   4.542   1.385  15.846  1.6760 -1.1481 -0.5371
18864TIP3   OH278006   5.240   0.792   4.386  0.0416 -0.1465 -0.0572
18864TIP3    H178007   5.316   0.828   4.341  0.7884 -1.3532  0.1859
18864TIP3    H278008   5.184   0.758   4.316  1.4345 -2.4762 -0.1624
18865TIP3   OH278009   0.119   6.078   1.856  0.0692  0.1396  0.5316
18865TIP3    H178010   0.102   6.051   1.946  0.6586 -2.1178  0.0157
18865TIP3    H278011   0.205   6.042   1.835  0.1356  0.9933 -0.8257
18866TIP3   OH278012   0.807   5.496   1.285 -0.3383  0.1896  0.6360
18866TIP3    H178013   0.896   5.461   1.295 -0.1484  0.5909  0.3308
18866TIP3    H278014   0.814   5.588   1.311 -0.9184 -0.0789  1.8087
18867TIP3   OH278015   5.357   6.293   0.717  0.0124  0.3391 -0.1464
18867TIP3    H178016   5.415   6.246   0.657  1.3324  2.6141 -0.7742
18867TIP3    H278017   5.408   6.301   0.798  0.4852  2.0551 -0.5855
18868TIP3   OH278018   5.670   1.717   0.581  0.4177  0.9412 -0.6002
18868TIP3    H178019   5.669   1.625   0.553  1.9092  0.6552  0.1207
18868TIP3    H278020   5.651   1.713   0.675 -0.9605  1.5312 -0.8379
18869TIP3   OH278021   0.992   6.405  15.710 -0.3565  0.1374  0.0701
18869TIP3    H178022   1.031   6.491  15.726 -0.4449  0.2520 -0.3171
18869TIP3    H278023   0.909   6.407  15.757 -0.6152  0.4718 -0.3927
18870TIP3   OH278024   3.692   2.715   3.107 -0.3491  0.1838  0.5107
18870TIP3    H178025   3.724   2.640   3.056 -1.6052 -0.7246  0.9944
18870TIP3    H278026   3.598   2.699   3.116 -0.0801 -0.2959  3.9989
18871TIP3   OH278027   0.899   6.285   2.239 -0.0437 -0.7369  0.2233
18871TIP3    H178028   0.925   6.219   2.175  0.8658 -0.9065  0.7411
18871TIP3    H278029   0.860   6.355   2.187  0.9098 -0.7595 -0.5561
18872TIP3   OH278030   1.473   0.446   2.550  0.1902  0.2549  0.4910
18872TIP3    H178031   1.410   0.435   2.479 -0.4891  0.5813  1.0312
18872TIP3    H278032   1.544   0.498   2.512  2.2199 -3.4493 -1.3647
18873TIP3   OH278033   0.441   2.643   0.083 -0.5189  0.2633  0.8282
18873TIP3    H178034   0.475   2.731   0.100  1.5628  0.2175 -2.2691
18873TIP3    H278035   0.514   2.585   0.103 -0.8295 -0.4555 -0.0609
18874TIP3   OH278036   2.522   6.621   3.721  0.0144 -0.5250 -0.3742
18874TIP3    H178037   2.567   6.539   3.742 -0.1245 -0.5869 -0.3136
18874TIP3    H278038   2.472   6.641   3.801 -0.6918 -0.8744 -0.7220
18875TIP3   OH278039   1.383   3.641   3.346  0.1277 -0.2954  0.1599
18875TIP3    H178040   1.364   3.687   3.264 -1.8215  2.0194  1.7578
18875TIP3    H278041   1.386   3.710   3.412 -0.9737 -2.2696  2.4360
18876TIP3   OH278042   2.087   6.100  15.522  0.1965  0.0323 -0.2949
18876TIP3    H178043   2.056   6.092  15.432  1.4038  0.9806 -0.8133
18876TIP3    H278044   2.056   6.186  15.551  0.5777  0.1099 -0.1146
18877TIP3   OH278045   2.151   1.411   3.948 -0.4536 -0.5599 -0.2465
18877TIP3    H178046   2.190   1.355   4.016  2.1767  0.3961 -0.8424
18877TIP3    H278047   2.169   1.500   3.978  0.4289 -0.1179 -1.9657
18878TIP3   OH278048   5.913   5.840  11.394 -0.8085  0.0574  0.1356
18878TIP3    H178049   5.987   5.784  11.417 -1.1989 -1.1379 -1.4051
18878TIP3    H278050   5.938   5.879  11.310 -1.0076  1.4001  0.6652
18879TIP3   OH278051   5.975   6.402  14.016  0.4391 -0.1860  0.2171
18879TIP3    H178052   5.900   6.355  14.052  0.7982  0.9970  2.6640
18879TIP3    H278053   6.050   6.370  14.065  1.6342 -1.3166 -2.1642
18880TIP3   OH278054   6.690   6.099  12.587 -0.5789 -0.7789  0.0566
18880TIP3    H178055   6.613   6.122  12.640  0.1172 -1.0519  1.2206
18880TIP3    H278056   6.678   6.148  12.505 -3.4012 -2.9507 -0.9877
18881TIP3   OH278057   6.399   4.303  11.407 -0.1139  0.3253  0.4267
18881TIP3    H178058   6.451   4.228  11.378 -1.0872 -0.3297  0.2989
18881TIP3    H278059   6.392   4.291  11.502  0.0332  0.4433  0.4511
18882TIP3   OH278060   5.890   1.581   2.668  0.3838  0.4482 -0.3698
18882TIP3    H178061   5.795   1.569   2.671  0.6103 -1.6122  1.7479
18882TIP3    H278062   5.904   1.642   2.596 -2.4566 -0.0245 -1.4738
18883TIP3   OH278063   6.177   0.999   2.318 -0.3653 -0.2499 -0.0329
18883TIP3    H178064   6.220   0.957   2.392 -0.4360 -0.4424 -0.1001
18883TIP3    H278065   6.118   0.932   2.283 -1.7645  0.4574  0.9053
18884TIP3   OH278066   6.727   1.088   1.177  0.2516  0.2751 -0.4567
18884TIP3    H178067   6.717   1.168   1.229 -1.5736  0.2356 -0.6854
18884TIP3    H278068   6.822   1.079   1.165  0.7812  0.2021  2.9449
18885TIP3   OH278069   2.809   6.135   0.660 -0.2196 -0.3696 -0.1865
18885TIP3    H178070   2.840   6.157   0.572  1.2489 -1.3048  0.0647
18885TIP3    H278071   2.882   6.089   0.700 -0.7585  0.2905  1.6380
18886TIP3   OH278072   6.474   2.687  11.799 -0.0723  0.2392  0.2133
18886TIP3    H178073   6.428   2.759  11.843 -1.0284  0.2911 -0.8120
18886TIP3    H278074   6.566   2.711  11.804 -0.0740 -0.0411  2.6364
18887TIP3   OH278075   2.570   1.307   4.357  0.1843  0.6727  0.4838
18887TIP3    H178076   2.666   1.304   4.352  0.1674  0.8958  0.0214
18887TIP3    H278077   2.548   1.400   4.345 -0.1553  0.4548 -0.6246
18888TIP3   OH278078   2.808   0.008   1.053 -0.9248  0.6880  0.7507
18888TIP3    H178079   2.720   0.018   1.090 -1.9104  0.6190 -1.3687
18888TIP3    H278080   2.851  -0.056   1.109 -2.6976 -0.2715  1.0926
18889TIP3   OH278081   2.880   4.540  15.819  0.2404 -0.3818 -0.2308
18889TIP3    H178082   2.830   4.524  15.900 -0.4186 -0.5749 -0.6641
18889TIP3    H278083   2.822   4.595  15.766  0.7065 -0.1866 -0.5369
18890TIP3   OH278084   0.894   6.400   3.316 -0.0198 -0.5450  0.4249
18890TIP3    H178085   0.916   6.358   3.233 -1.5334 -0.0262 -0.2762
18890TIP3    H278086   0.809   6.364   3.340 -1.0399  1.5324  0.1611
18891TIP3   OH278087   0.947   2.309   3.142 -0.1046  0.3329  0.5769
18891TIP3    H178088   0.862   2.342   3.114 -0.6549 -0.4846  1.2264
18891TIP3    H278089   0.945   2.317   3.238  0.3912 -0.0507  0.6226
18892TIP3   OH278090   5.236   5.462   3.058  0.1441  0.5423 -0.5754
18892TIP3    H178091   5.311   5.481   3.113 -0.6729 -0.1007  0.8156
18892TIP3    H278092   5.161   5.496   3.107 -0.6974 -0.8734 -0.8212
18893TIP3   OH278093   6.345   0.939  15.193 -0.0233 -0.3318  0.3389
18893TIP3    H178094   6.309   0.871  15.249 -0.3798 -0.2925  0.1595
18893TIP3    H278095   6.268   0.987  15.161  0.1083 -0.8926 -0.8809
18894TIP3   OH278096   5.722   6.261  14.087 -0.4113 -0.0069 -0.4787
18894TIP3    H178097   5.687   6.194  14.027  4.3358 -0.4371 -3.2847
18894TIP3    H278098   5.746   6.212  14.165 -0.2407 -0.9371 -1.0901
18895TIP3   OH278099   0.534   0.090  15.767 -0.2457 -0.1071  0.3220
18895TIP3    H178100   0.579   0.025  15.821 -0.9471 -0.6899  0.2134
18895TIP3    H278101   0.441   0.076  15.784 -0.6324 -1.4885 -2.2966
18896TIP3   OH278102   0.804   5.975  13.595 -0.8190  0.1455  0.0896
18896TIP3    H178103   0.755   5.900  13.629 -2.6232  0.7105 -1.0918
18896TIP3    H278104   0.834   5.947  13.509  0.2919  0.0816  0.4895
18897TIP3   OH278105   0.484   5.424   3.925  0.2549  0.0870 -0.4078
18897TIP3    H178106   0.481   5.520   3.921 -0.6106  0.1728  1.3509
18897TIP3    H278107   0.575   5.402   3.905  1.2678  1.5141  2.1572
18898TIP3   OH278108   5.201   5.200  13.068  0.3863  0.0448 -0.4755
18898TIP3    H178109   5.262   5.273  13.079 -0.7197  0.7934  1.1340
18898TIP3    H278110   5.119   5.241  13.040  0.0068 -0.6856 -0.4662
18899TIP3   OH278111   2.969   5.873  15.582  0.0374  0.1111  0.2052
18899TIP3    H178112   2.929   5.829  15.656  2.0651 -0.1236  1.2424
18899TIP3    H278113   3.035   5.811  15.550  1.7886  1.6380  0.6433
18900TIP3   OH278114   6.628   5.601  15.617 -0.4271  0.0495 -0.1274
18900TIP3    H178115   6.609   5.579  15.708 -0.6418  0.9750  0.0583
18900TIP3    H278116   6.722   5.619  15.616 -0.2881 -0.6403 -0.2420
18901TIP3   OH278117   5.984   1.369  13.051 -0.0714 -0.0672  0.2745
18901TIP3    H178118   5.943   1.399  12.970 -0.2460 -1.9222 -0.3767
18901TIP3    H278119   5.926   1.401  13.121  0.1176  1.6042 -0.2912
18902TIP3   OH278120   0.090   4.435   6.081 -0.1194  0.0399 -0.6052
18902TIP3    H178121   0.106   4.356   6.029 -0.6358  0.1021 -0.8582
18902TIP3    H278122   0.141   4.421   6.161 -0.7493 -0.8728 -0.3454
18903TIP3   OH278123   3.959   0.146  12.255  0.1952  0.0215  0.0244
18903TIP3    H178124   3.950   0.181  12.167 -0.2466  2.3862  0.9446
18903TIP3    H278125   4.034   0.087  12.250 -0.4875 -0.7453 -2.1511
18904TIP3   OH278126   6.402   1.762   0.376 -0.0069  0.0199  0.0626
18904TIP3    H178127   6.348   1.748   0.453  0.2754 -1.0883  0.0681
18904TIP3    H278128   6.357   1.715   0.306 -0.9090  1.9729 -0.7735
18905TIP3   OH278129   3.031   1.875   0.217  0.3322 -0.7386 -0.2339
18905TIP3    H178130   3.118   1.849   0.187 -0.4863 -4.1661 -0.0538
18905TIP3    H278131   2.973   1.850   0.146 -0.5217  2.1915 -0.6629
18906TIP3   OH278132   6.449   2.054  13.480 -0.6415  0.1891 -0.1730
18906TIP3    H178133   6.371   2.109  13.475 -1.3690 -0.9173 -2.9148
18906TIP3    H278134   6.442   2.010  13.565 -2.3105  1.0972  0.1959
18907TIP3   OH278135   2.230   0.470  13.162 -0.2130  0.3865  0.3110
18907TIP3    H178136   2.295   0.412  13.123  0.2612  0.2681  1.2352
18907TIP3    H278137   2.272   0.502  13.242 -2.1934 -1.7188  2.3400
18908TIP3   OH278138   2.923   2.166   0.199 -0.0045  0.3288 -0.1492
18908TIP3    H178139   2.892   2.162   0.109 -0.7948  1.3347  0.0542
18908TIP3    H278140   2.891   2.086   0.240  0.4541 -0.1865 -0.7766
18909TIP3   OH278141   6.434   0.059   4.744 -0.2884  0.1336 -0.0272
18909TIP3    H178142   6.374   0.128   4.716  0.5009  2.1433  2.7986
18909TIP3    H278143   6.377  -0.011   4.776 -1.0898 -0.2578 -2.1472
18910TIP3   OH278144   0.781   0.807   3.048  0.5374 -0.3386 -0.0815
18910TIP3    H178145   0.877   0.804   3.046  0.5102 -1.0007 -1.4283
18910TIP3    H278146   0.757   0.833   2.959 -0.5290  0.3940  0.4063
18911TIP3   OH278147   3.585   5.392   2.728 -0.1427  0.1217 -0.2214
18911TIP3    H178148   3.610   5.458   2.663  1.6223  0.3510  0.6106
18911TIP3    H278149   3.611   5.309   2.690 -0.8944  0.0567 -0.6034
18912TIP3   OH278150   4.133   6.652  14.656  0.2792 -0.2664 -0.2303
18912TIP3    H178151   4.056   6.705  14.678  0.2372 -0.7741  0.9289
18912TIP3    H278152   4.177   6.700  14.586 -0.6736  0.4208 -0.3752
18913TIP3   OH278153   6.270   0.041   3.445 -1.1068 -0.0722 -0.1013
18913TIP3    H178154   6.237   0.026   3.356  0.9653 -1.1102 -0.7618
18913TIP3    H278155   6.301   0.132   3.443 -2.9873  0.6209  0.2646
18914TIP3   OH278156   2.459   3.337   4.692 -0.8649  0.5324 -0.0555
18914TIP3    H178157   2.365   3.332   4.672 -0.8056 -0.2755 -0.1615
18914TIP3    H278158   2.478   3.255   4.738 -0.2734  0.8359  0.2575
18915TIP3   OH278159   4.849   5.179  10.231 -0.1987  0.6905  0.3952
18915TIP3    H178160   4.940   5.166  10.206  0.4074 -1.1739  3.0974
18915TIP3    H278161   4.800   5.176  10.149  2.1032  1.5140 -1.0878
18916TIP3   OH278162   3.345   0.051   3.079 -0.0920  0.9351  0.3732
18916TIP3    H178163   3.418  -0.004   3.052 -1.4183  0.2933 -2.1630
18916TIP3    H278164   3.355   0.058   3.174  1.1232 -2.2280  0.6032
18917TIP3   OH278165   5.442   0.990   0.672  0.7107  0.0110  0.2682
18917TIP3    H178166   5.374   0.997   0.739 -0.3328  1.1818 -0.8656
18917TIP3    H278167   5.524   0.999   0.720  0.0238  0.1461  1.4621
18918TIP3   OH278168   1.909   2.634   2.086 -0.1012  0.5908 -0.5242
18918TIP3    H178169   1.951   2.716   2.059  0.4241  1.1348  1.7102
18918TIP3    H278170   1.817   2.658   2.100 -0.1119  0.6089 -0.6258
18919TIP3   OH278171   0.680   2.492   4.372  0.9294 -0.4181 -0.0466
18919TIP3    H178172   0.741   2.433   4.328 -0.1971 -1.5681 -0.1256
18919TIP3    H278173   0.713   2.497   4.462  1.0692 -1.1365 -0.0544
18920TIP3   OH278174   0.014   4.937   3.392  0.4134  0.0865  0.1058
18920TIP3    H178175   0.108   4.924   3.391  0.3061 -0.7422 -0.5533
18920TIP3    H278176  -0.000   5.020   3.347  0.8634  0.5166  0.7510
18921TIP3   OH278177   6.029   2.463  12.237  0.2829 -0.2113  1.0221
18921TIP3    H178178   5.968   2.401  12.198 -0.3135  1.7158 -1.3963
18921TIP3    H278179   6.100   2.471  12.173  1.4770 -0.0613  2.3215
18922TIP3   OH278180   5.671   0.039   5.035  0.3714 -0.5235  0.4672
18922TIP3    H178181   5.752  -0.010   5.048  1.0686  0.5591  0.3179
18922TIP3    H278182   5.694   0.130   5.053  0.0287  0.3012 -2.5953
18923TIP3   OH278183   0.978   2.020  12.811  0.0135 -0.3968 -0.0592
18923TIP3    H178184   1.045   2.086  12.792 -0.0020 -0.5145 -0.5360
18923TIP3    H278185   0.997   1.992  12.901 -0.0888  0.3818  0.2166
18924TIP3   OH278186   5.368   0.101  17.132 -0.4117  0.0005 -0.5311
18924TIP3    H178187   5.435   0.048  17.090 -1.0058 -0.4430 -0.9427
18924TIP3    H278188   5.416   0.161  17.189  0.2434 -1.5054  0.5589
18925TIP3   OH278189   3.739   5.972   3.152  0.4419 -0.1959 -0.2095
18925TIP3    H178190   3.814   6.016   3.194  0.7119 -0.2901 -0.5878
18925TIP3    H278191   3.726   5.892   3.203  1.6250 -0.9901 -1.0921
18926TIP3   OH278192   5.539   4.916   2.679  0.5513 -0.2801 -0.4461
18926TIP3    H178193   5.472   4.982   2.694 -1.3591 -2.3291  0.7125
18926TIP3    H278194   5.495   4.833   2.697  2.6089 -1.9586 -2.4992
18927TIP3   OH278195   1.033   5.547   5.789 -0.0326  0.6445 -0.1746
18927TIP3    H178196   1.064   5.459   5.812  0.0296  0.5433 -0.6343
18927TIP3    H278197   0.968   5.568   5.856 -0.8150 -0.1862 -0.6582
18928TIP3   OH278198   3.842   6.355   5.226  0.4020  0.4183  0.0684
18928TIP3    H178199   3.860   6.412   5.300  2.1015  1.7912 -1.3230
18928TIP3    H278200   3.928   6.323   5.198 -0.1371  0.3174 -1.5912
18929TIP3   OH278201   1.246   5.646  13.660 -0.5791  0.5609 -0.1125
18929TIP3    H178202   1.200   5.700  13.724 -0.6935  0.0073  0.2784
18929TIP3    H278203   1.180   5.584  13.629 -0.1171 -0.2069  0.4118
18930TIP3   OH278204   0.373   1.709   0.249  0.0496 -0.0688  0.1314
18930TIP3    H178205   0.297   1.652   0.257  0.0969 -0.0270  1.0130
18930TIP3    H278206   0.448   1.650   0.248  0.0657 -0.0588  0.4748
18931TIP3   OH278207   5.967   6.604   6.041 -0.4740  0.3021 -0.0711
18931TIP3    H178208   5.876   6.624   6.017 -0.6694 -0.5764 -0.1246
18931TIP3    H278209   5.977   6.512   6.017  0.2198  0.2002  0.5940
18932TIP3   OH278210   1.372   5.141   3.462  0.5890 -0.3863 -0.1330
18932TIP3    H178211   1.400   5.230   3.442  0.1426 -0.5809 -1.7092
18932TIP3    H278212   1.294   5.127   3.409  0.8408 -1.8240 -0.1683
18933TIP3   OH278213   2.223   4.436   2.852 -0.1573 -0.0961  0.2760
18933TIP3    H178214   2.316   4.449   2.834 -0.1570 -0.1784  0.2155
18933TIP3    H278215   2.221   4.376   2.927 -0.1644 -0.7319 -0.2210
18934TIP3   OH278216   5.960   2.855   3.315 -0.0080 -0.2206 -0.0246
18934TIP3    H178217   6.008   2.926   3.274  1.7878  0.3913  2.8376
18934TIP3    H278218   5.888   2.897   3.360  1.3583 -0.0102  2.1140
18935TIP3   OH278219   6.512   4.845   4.684 -0.4081 -0.6298 -0.1451
18935TIP3    H178220   6.438   4.819   4.738 -1.0306 -0.0367 -0.6928
18935TIP3    H278221   6.484   4.826   4.594 -0.2543  0.4259 -0.4277
18936TIP3   OH278222   4.547   0.617   4.099 -0.2060 -0.5982 -0.0452
18936TIP3    H178223   4.567   0.704   4.066 -1.9951 -0.6093 -1.2929
18936TIP3    H278224   4.633   0.577   4.115  0.6538  1.5906  1.2431
18937TIP3   OH278225   4.100   4.276   2.531 -0.0151 -0.5823 -0.9505
18937TIP3    H178226   4.038   4.210   2.563 -1.5709  1.1308 -0.2446
18937TIP3    H278227   4.143   4.234   2.456 -1.1876 -2.2727 -0.7359
18938TIP3   OH278228   0.774   6.341  15.391  0.6345 -0.2568 -0.5183
18938TIP3    H178229   0.730   6.304  15.467  0.3470  0.2312 -0.4360
18938TIP3    H278230   0.776   6.435  15.408  0.8177 -0.1709 -0.9846
18939TIP3   OH278231   2.240   1.039  16.207  0.2673  0.4344  0.2720
18939TIP3    H178232   2.223   0.998  16.292 -2.6460 -0.0935 -0.4600
18939TIP3    H278233   2.261   0.966  16.149  2.9453  0.8534  0.5896
18940TIP3   OH278234   3.982   2.157   3.071  0.0045  0.4130  0.1712
18940TIP3    H178235   4.032   2.076   3.083 -0.9704 -0.1677  0.3340
18940TIP3    H278236   4.048   2.226   3.077  1.3281 -0.4476 -2.4807
18941TIP3   OH278237   4.534   5.375   3.745 -0.0335  0.3222  0.0060
18941TIP3    H178238   4.577   5.421   3.817  0.1245 -1.6348  1.2463
18941TIP3    H278239   4.602   5.363   3.679  0.1663  0.9984  0.0854
18942TIP3   OH278240   2.915   6.080  11.933  0.4309  0.1934 -0.2455
18942TIP3    H178241   2.844   6.065  11.996  0.4232 -0.5152 -0.4170
18942TIP3    H278242   2.874   6.128  11.861 -0.2104 -1.4330 -0.9916
18943TIP3   OH278243   4.102   5.089   0.927  0.1620 -0.1059  0.7622
18943TIP3    H178244   4.076   5.008   0.972  0.4967 -1.9630 -2.0992
18943TIP3    H278245   4.197   5.095   0.942  0.5664 -1.6192 -0.9013
18944TIP3   OH278246   4.575   6.005   1.716 -0.1399  0.4699 -0.5158
18944TIP3    H178247   4.578   6.012   1.620  1.1403 -0.7352 -0.6024
18944TIP3    H278248   4.616   5.920   1.734 -1.2885  0.2191  1.0508
18945TIP3   OH278249   3.609   6.699  14.186 -0.1564  0.2262  0.0990
18945TIP3    H178250   3.677   6.638  14.156 -1.4882  0.1213 -3.1766
18945TIP3    H278251   3.657   6.769  14.230  2.2084  0.4225 -2.5026
18946TIP3   OH278252   2.820   2.418   2.838  0.3335  0.6689  0.1541
18946TIP3    H178253   2.783   2.404   2.751  2.0861  1.7961 -0.8130
18946TIP3    H278254   2.886   2.350   2.847  0.5452  0.9043  0.3844
18947TIP3   OH278255   0.538   5.905  14.976  0.2232 -0.0959 -0.3117
18947TIP3    H178256   0.544   5.983  14.921  1.9117 -1.0748 -1.6240
18947TIP3    H278257   0.479   5.930  15.047  1.6736  2.8073  0.0172
18948TIP3   OH278258   3.001   1.782  13.361 -0.7239 -0.0255 -0.5571
18948TIP3    H178259   3.022   1.838  13.286 -1.0199  0.6657 -0.1310
18948TIP3    H278260   2.986   1.696  13.323  1.0322 -0.1500 -1.0903
18949TIP3   OH278261   2.556   1.650   0.307 -0.3195 -0.2558  0.4069
18949TIP3    H178262   2.631   1.650   0.248 -0.3613  0.1412  0.3468
18949TIP3    H278263   2.587   1.696   0.385 -0.3150 -0.6318  0.6280
18950TIP3   OH278264   4.465   6.589  13.297  0.3862 -0.2799  0.0457
18950TIP3    H178265   4.379   6.629  13.291  0.8030  0.4971 -1.3714
18950TIP3    H278266   4.474   6.562  13.388 -1.6253 -1.0265  0.0547
18951TIP3   OH278267   0.811   2.976  12.086 -0.7418  0.2401  0.3764
18951TIP3    H178268   0.774   3.059  12.116 -1.0986  0.1468  0.1993
18951TIP3    H278269   0.761   2.909  12.134  0.2108  0.1450  1.2760
18952TIP3   OH278270   4.571   3.087  13.602  0.5204 -0.4393 -0.8294
18952TIP3    H178271   4.557   3.180  13.620 -0.4858 -1.1038  2.3553
18952TIP3    H278272   4.484   3.048  13.605  1.0396 -1.6678 -1.0849
18953TIP3   OH278273   3.470   3.474  12.224  0.3505 -0.5831 -0.5526
18953TIP3    H178274   3.522   3.420  12.284 -0.6742 -0.5119  0.4423
18953TIP3    H278275   3.468   3.560  12.267 -0.9366 -0.7062 -0.3490
18954TIP3   OH278276   5.607   3.683  14.266  0.4898 -0.8965 -0.2019
18954TIP3    H178277   5.579   3.592  14.254 -2.1208  0.1318 -3.2609
18954TIP3    H278278   5.671   3.698  14.197  1.0863 -0.4283  0.4339
18955TIP3   OH278279   5.933   0.476   6.159 -0.2203  0.5346  0.0466
18955TIP3    H178280   5.930   0.538   6.232 -0.4544  0.9838 -0.3397
18955TIP3    H278281   5.864   0.412   6.178  0.5912 -0.1201  0.8880
18956TIP3   OH278282   1.069   2.812   2.981 -0.3933 -0.0393 -0.1924
18956TIP3    H178283   1.080   2.829   2.888 -1.4426  0.4617 -0.2409
18956TIP3    H278284   1.105   2.724   2.994  2.8796  1.1223 -0.3992
18957TIP3   OH278285   1.317   2.305  12.082 -0.4735 -0.0940 -0.2720
18957TIP3    H178286   1.274   2.390  12.095 -0.9861 -0.4384  0.3584
18957TIP3    H278287   1.309   2.287  11.989 -1.2773  0.0768 -0.2448
18958TIP3   OH278288   6.540   5.728   5.295  0.3159 -0.2166  0.2036
18958TIP3    H178289   6.446   5.724   5.313  0.5447  1.3780  2.0353
18958TIP3    H278290   6.552   5.809   5.247  0.4723 -1.7656 -2.5904
18959TIP3   OH278291   0.601   3.478  14.793  0.5045  0.4202  0.7614
18959TIP3    H178292   0.600   3.421  14.870 -2.3327  1.3902  1.5751
18959TIP3    H278293   0.644   3.558  14.822  0.6500  0.2875  0.9131
18960TIP3   OH278294   4.450   0.764   3.612  0.0646 -0.4691  0.1163
18960TIP3    H178295   4.444   0.859   3.610  1.0513 -0.4072 -0.6042
18960TIP3    H278296   4.500   0.741   3.534  1.8940 -1.4024  1.4641
18961TIP3   OH278297   4.720   0.003  11.783  0.7361 -0.3627  0.1146
18961TIP3    H178298   4.687   0.073  11.840  1.1754 -0.1772  0.1491
18961TIP3    H278299   4.660   0.003  11.708 -0.7690 -1.6208  1.2399
18962TIP3   OH278300   1.376   1.870  13.103 -0.5285  0.3159 -0.1855
18962TIP3    H178301   1.340   1.836  13.184 -0.8242  0.9106 -0.0628
18962TIP3    H278302   1.400   1.792  13.052 -1.6681 -0.0791 -0.1303
18963TIP3   OH278303   2.094   2.976   5.180 -0.1482 -0.0006 -0.4880
18963TIP3    H178304   2.155   3.050   5.173  1.7256 -1.2195  1.4237
18963TIP3    H278305   2.051   2.988   5.265  0.2884 -1.1217 -0.0834
18964TIP3   OH278306   3.914   5.765  11.019  0.5515 -0.4745  0.2464
18964TIP3    H178307   4.007   5.742  11.028  0.7847  1.2255  5.0036
18964TIP3    H278308   3.867   5.692  11.059 -0.0474 -0.6036 -0.6793
18965TIP3   OH278309   6.476   1.881   1.416 -0.0369  0.2454 -0.4048
18965TIP3    H178310   6.395   1.898   1.464 -0.7142  1.5228 -1.9098
18965TIP3    H278311   6.449   1.877   1.324  1.3445 -1.2519 -0.7967
18966TIP3   OH278312   4.745   2.770  11.170  0.4838 -0.3724 -0.0832
18966TIP3    H178313   4.817   2.710  11.188  0.5742 -0.6748 -1.3505
18966TIP3    H278314   4.781   2.857  11.189  0.3448 -0.6742  1.7798
18967TIP3   OH278315   0.773   0.455   0.554  0.0334  0.0207  0.0378
18967TIP3    H178316   0.688   0.438   0.514 -0.0746  0.9770 -0.1610
18967TIP3    H278317   0.753   0.512   0.628  0.4526 -0.1392  0.2763
18968TIP3   OH278318   1.779   5.989  17.029 -0.1373  0.1582  0.8299
18968TIP3    H178319   1.696   5.942  17.040  0.8396 -1.8994 -0.0622
18968TIP3    H278320   1.819   5.987  17.116 -0.4235 -0.0589  0.9584
18969TIP3   OH278321   4.054   6.117  12.045  0.3530 -0.8601 -0.2697
18969TIP3    H178322   4.127   6.178  12.058  0.4906 -0.7037 -1.6835
18969TIP3    H278323   4.044   6.110  11.950 -1.2906 -1.1017 -0.1151
18970TIP3   OH278324   1.993   5.383   2.735 -0.2498 -0.6010  0.5420
18970TIP3    H178325   1.905   5.420   2.736  0.0061  0.0659 -0.2782
18970TIP3    H278326   1.987   5.308   2.676  0.2229  0.8216 -1.4233
18971TIP3   OH278327   2.574   4.115   4.671  0.0944 -0.4936  0.1586
18971TIP3    H178328   2.501   4.060   4.642 -1.3952  0.7130  1.3952
18971TIP3    H278329   2.605   4.157   4.592 -0.9077 -0.6643 -0.3455
18972TIP3   OH278330   2.799   5.989  16.411  0.0308 -0.1465 -0.6274
18972TIP3    H178331   2.868   6.046  16.446 -1.2950 -0.0561  2.1627
18972TIP3    H278332   2.749   6.045  16.353  0.9803  0.4270 -0.9145
18973TIP3   OH278333   5.200   3.168   4.012 -0.2871  0.1481 -0.6715
18973TIP3    H178334   5.105   3.157   4.020 -0.1055 -1.0424  0.0396
18973TIP3    H278335   5.215   3.257   4.045 -1.0797  0.0998 -0.1381
18974TIP3   OH278336   0.627   5.605  14.415  0.8393  0.6387  0.0280
18974TIP3    H178337   0.592   5.665  14.481  0.1360  0.0809  0.1688
18974TIP3    H278338   0.687   5.548  14.464 -0.3620 -0.3629  0.3880
18975TIP3   OH278339   6.599   5.471   1.036  0.2919  0.1380  0.4529
18975TIP3    H178340   6.529   5.408   1.024  1.2727 -0.7512 -0.9117
18975TIP3    H278341   6.616   5.472   1.130 -0.9845 -0.2270  0.6941
18976TIP3   OH278342   3.437   6.142  15.459 -0.1227  0.1867  0.2711
18976TIP3    H178343   3.530   6.163  15.455 -0.1981  0.5949  0.5787
18976TIP3    H278344   3.416   6.144  15.553 -0.6178  0.8928  0.1517
18977TIP3   OH278345   0.714   2.362   1.989  0.5447 -0.2772 -0.0827
18977TIP3    H178346   0.754   2.436   2.035 -0.0934  0.8352 -1.2725
18977TIP3    H278347   0.769   2.287   2.013  0.6233  0.3654  1.9376
18978TIP3   OH278348   4.876   0.876  15.970  0.2102 -0.2456 -0.0300
18978TIP3    H178349   4.929   0.954  15.983 -0.2248 -0.1081  1.0246
18978TIP3    H278350   4.793   0.895  16.013 -0.2004 -0.9854 -0.4579
18979TIP3   OH278351   6.653   5.615  17.100 -0.0262 -0.2096  0.6315
18979TIP3    H178352   6.678   5.678  17.167  0.3226 -0.8059  1.0623
18979TIP3    H278353   6.735   5.579  17.068 -0.0552  1.2239 -1.2732
18980TIP3   OH278354   4.851   1.911  14.315  0.1319  0.1877  0.2079
18980TIP3    H178355   4.780   1.847  14.308  1.2578 -1.4259  2.3630
18980TIP3    H278356   4.810   1.988  14.352 -0.5762 -0.6975  1.3401
18981TIP3   OH278357   1.818   0.694  16.527 -0.5922 -0.2196 -0.0508
18981TIP3    H178358   1.864   0.777  16.535 -0.7370 -0.0919 -0.5293
18981TIP3    H278359   1.866   0.646  16.460  1.2981 -1.7493  2.2191
18982TIP3   OH278360   1.583   5.010   3.159  0.5738  0.1825 -0.9689
18982TIP3    H178361   1.596   5.091   3.209 -1.7767  0.0737 -0.0232
18982TIP3    H278362   1.500   5.024   3.113 -0.2171 -1.8622 -0.2873
18983TIP3   OH278363   0.066   0.750  14.241  0.3102 -0.6727 -0.6443
18983TIP3    H178364   0.001   0.783  14.180 -1.2071 -0.6099  0.9366
18983TIP3    H278365   0.075   0.820  14.306  1.3462 -1.0292 -0.3873
18984TIP3   OH278366   4.534   1.515  16.971  0.3912  0.2274  0.0524
18984TIP3    H178367   4.618   1.471  16.984  0.0871 -0.7371 -1.0969
18984TIP3    H278368   4.471   1.444  16.966 -0.5932  0.9610  1.3656
18985TIP3   OH278369   3.064   3.780  15.475  0.3410  0.1375  0.2471
18985TIP3    H178370   3.124   3.793  15.402 -0.6403 -2.3164 -1.0954
18985TIP3    H278371   3.117   3.742  15.544  0.7198 -0.1260 -0.1870
18986TIP3   OH278372   3.276   6.208  15.691  0.4939 -0.4699  0.7389
18986TIP3    H178373   3.214   6.178  15.626  0.9736  0.7608 -0.3327
18986TIP3    H278374   3.224   6.256  15.755  0.3350  0.6667 -0.2220
18987TIP3   OH278375   3.401   0.577   2.121 -0.1551  0.1287  0.2877
18987TIP3    H178376   3.384   0.665   2.085  1.6276  0.5346  0.3747
18987TIP3    H278377   3.421   0.524   2.044 -0.6473 -0.0740  0.2946
18988TIP3   OH278378   1.075   0.668   6.334 -0.0082  0.2594 -0.1105
18988TIP3    H178379   1.053   0.761   6.342  0.6482  0.3155  1.6324
18988TIP3    H278380   0.992   0.622   6.339 -0.1947  0.6847  1.4339
18989TIP3   OH278381   3.535   2.399  15.478  0.7300  0.1019 -0.0714
18989TIP3    H178382   3.495   2.460  15.541  0.1079 -0.4179  0.0522
18989TIP3    H278383   3.576   2.332  15.533  1.1648  0.2533 -0.2105
18990TIP3   OH278384   0.806   2.111   0.216  0.0801 -0.0958  0.2042
18990TIP3    H178385   0.713   2.095   0.227 -0.1510  0.8350 -0.2851
18990TIP3    H278386   0.837   2.134   0.303  0.2493 -2.2096  0.7481
18991TIP3   OH278387   3.080   0.183  11.468 -0.2272 -0.4940 -0.6541
18991TIP3    H178388   3.097   0.154  11.379 -2.2219  2.0821 -2.0094
18991TIP3    H278389   3.128   0.265  11.477  1.7354 -1.7472  1.5137
18992TIP3   OH278390   1.659   6.464   1.726  0.0613 -0.2686  0.2166
18992TIP3    H178391   1.593   6.524   1.762  0.1446  1.3451 -2.1365
18992TIP3    H278392   1.629   6.446   1.637  0.8986 -2.5092  0.3359
18993TIP3   OH278393   5.125   5.785  10.953 -0.6697  0.5049 -0.2543
18993TIP3    H178394   5.163   5.834  11.026 -1.0535  0.8934 -0.3140
18993TIP3    H278395   5.182   5.709  10.943  0.8238  1.7032 -1.1639
18994TIP3   OH278396   0.704   4.831  10.306 -0.7844 -0.4428 -0.0408
18994TIP3    H178397   0.653   4.751  10.299  0.5045 -1.2251 -0.8603
18994TIP3    H278398   0.640   4.899  10.326 -1.8859 -1.6869  0.7913
18995TIP3   OH278399   5.718   3.736  16.501  0.1781 -0.3358  0.0071
18995TIP3    H178400   5.671   3.669  16.551  0.8059 -0.2797  0.6892
18995TIP3    H278401   5.716   3.813  16.557  1.2964 -0.4057  0.1839
18996TIP3   OH278402   3.523   0.328   1.441 -0.1684  0.2974 -0.1488
18996TIP3    H178403   3.516   0.346   1.348  1.2154  2.6778  0.1183
18996TIP3    H278404   3.580   0.251   1.447 -0.7640 -0.2510 -1.2458
18997TIP3   OH278405   5.456   5.356   1.631 -0.2244  0.8583  0.0838
18997TIP3    H178406   5.534   5.383   1.582 -0.0787  1.8558  0.8431
18997TIP3    H278407   5.491   5.305   1.704 -0.5356 -2.5539 -1.9166
18998TIP3   OH278408   0.961   2.347  12.963 -0.0733  0.1964  0.5822
18998TIP3    H178409   0.872   2.320  12.986  0.4372 -1.1001  1.1389
18998TIP3    H278410   1.017   2.282  13.005  0.9940 -1.4165 -2.9343
18999TIP3   OH278411   2.089   3.999  15.606 -0.2992 -0.1764  0.3888
18999TIP3    H178412   2.166   3.990  15.549  0.8079 -0.8010  1.9105
18999TIP3    H278413   2.103   3.935  15.676 -1.3677  0.8752  1.6285
19000TIP3   OH278414   5.540   0.233  15.457 -0.0983 -0.4766  0.2905
19000TIP3    H178415   5.475   0.302  15.443  0.0385 -0.0369  1.6393
19000TIP3    H278416   5.517   0.196  15.543  1.2273 -0.5403  0.6352
19001TIP3   OH278417   1.464   1.346  16.441 -0.1897 -0.7699 -0.4897
19001TIP3    H178418   1.513   1.304  16.370  0.7825 -0.2818 -0.1376
19001TIP3    H278419   1.490   1.297  16.520 -0.6114 -0.7767 -0.3529
19002TIP3   OH278420   1.304   6.450  15.275 -0.1710 -0.0742  0.4472
19002TIP3    H178421   1.285   6.499  15.195 -2.4459  1.5025  1.8339
19002TIP3    H278422   1.395   6.471  15.295  1.6971 -3.2350 -3.4056
19003TIP3   OH278423   6.436   0.487  12.438 -0.0983  0.0248 -0.7643
19003TIP3    H178424   6.509   0.454  12.490  0.2615 -0.5775 -1.6249
19003TIP3    H278425   6.405   0.563  12.486  0.3847 -0.3636  0.1925
19004TIP3   OH278426   1.104   5.392   4.334  0.2097  0.3093  0.0647
19004TIP3    H178427   1.084   5.303   4.305 -1.4754  0.5425  0.3764
19004TIP3    H278428   1.199   5.398   4.331  0.2710 -0.8553 -1.8637
19005TIP3   OH278429   3.234   3.589  16.869 -0.0578  0.5484  0.0397
19005TIP3    H178430   3.204   3.572  16.958 -1.3576  0.1413 -0.4454
19005TIP3    H278431   3.158   3.627  16.825  0.3186  0.0453 -1.0989
19006TIP3   OH278432   6.544   1.582  14.107 -0.5292  0.2682 -0.2904
19006TIP3    H178433   6.608   1.541  14.049 -0.0942 -1.6238  1.4046
19006TIP3    H278434   6.477   1.616  14.049 -0.1372 -1.5638 -1.9110
19007TIP3   OH278435   2.107   1.399   3.383 -0.1401 -0.2402 -0.4209
19007TIP3    H178436   2.096   1.305   3.368  1.5860 -0.2745 -1.8517
19007TIP3    H278437   2.121   1.435   3.295 -0.6196  1.3512  0.1192
19008TIP3   OH278438   3.127   3.600  13.381  0.5194 -0.1061  0.0396
19008TIP3    H178439   3.092   3.662  13.317  0.4995  0.9969  1.1023
19008TIP3    H278440   3.094   3.630  13.465 -0.1738 -2.0439  0.5204
19009TIP3   OH278441   6.542   5.671  12.755 -0.0241  0.1764 -0.4583
19009TIP3    H178442   6.521   5.609  12.685 -1.3908  0.7569 -0.5782
19009TIP3    H278443   6.599   5.735  12.714  3.1603 -2.0313  0.1409
19010TIP3   OH278444   0.347   4.381  15.008  0.3604  0.4097 -0.4083
19010TIP3    H178445   0.434   4.352  15.036  0.2956  0.0148 -0.6059
19010TIP3    H278446   0.292   4.303  15.016  0.1436  0.5205 -0.7960
19011TIP3   OH278447   3.397   3.003   4.559  0.2889  0.0404 -0.3855
19011TIP3    H178448   3.349   2.921   4.570  0.0200  0.0417 -1.4703
19011TIP3    H278449   3.342   3.056   4.502  0.3516  1.0774  0.4870
19012TIP3   OH278450   4.346   0.394  14.602  0.5860 -0.1926  0.3739
19012TIP3    H178451   4.428   0.355  14.573  0.5464  0.4988 -0.7637
19012TIP3    H278452   4.364   0.488  14.605 -0.2266 -0.0067 -0.1539
19013TIP3   OH278453   5.471   4.827   3.953  0.3693  0.0031  0.2915
19013TIP3    H178454   5.482   4.735   3.977  1.1836  0.1494  0.5017
19013TIP3    H278455   5.545   4.846   3.895 -0.3091  0.2789 -0.5057
19014TIP3   OH278456   3.046   3.973  13.736  0.0975 -0.2621  0.6984
19014TIP3    H178457   3.032   3.933  13.650  1.0462  1.1374 -0.1407
19014TIP3    H278458   2.964   3.959  13.783 -0.3116 -1.3547 -0.2966
19015TIP3   OH278459   4.976   1.899   1.713 -0.4459  0.0282 -0.3565
19015TIP3    H178460   4.956   1.815   1.756  0.2137  0.1426  0.1879
19015TIP3    H278461   4.900   1.915   1.657 -1.1507 -0.3295  0.4599
19016TIP3   OH278462   3.212   6.349   2.405 -0.2832 -0.3714 -0.3885
19016TIP3    H178463   3.166   6.291   2.465 -0.8930  0.7450  0.2705
19016TIP3    H278464   3.305   6.338   2.426 -0.4266 -0.7497  0.0574
19017TIP3   OH278465   0.372   1.968   4.119  0.5492  0.1240 -0.5107
19017TIP3    H178466   0.398   1.879   4.144  0.4048  0.0583 -0.5909
19017TIP3    H278467   0.299   1.988   4.177  1.7307  0.8955  0.7775
19018TIP3   OH278468   5.793   2.767  15.056 -0.3280  0.0756 -0.2311
19018TIP3    H178469   5.738   2.724  14.990 -0.2732 -0.7338  0.2371
19018TIP3    H278470   5.883   2.749  15.027 -0.3018 -0.5410  0.2220
19019TIP3   OH278471   3.087   3.384  11.432  0.0710 -0.2958  0.2979
19019TIP3    H178472   3.002   3.402  11.472 -0.2891  1.1676 -1.0183
19019TIP3    H278473   3.147   3.445  11.474 -0.1064  0.5614 -0.6705
19020TIP3   OH278474   5.125   4.903   0.915 -1.0513  0.5686  0.4275
19020TIP3    H178475   5.181   4.971   0.953 -1.7342  1.0654  0.5625
19020TIP3    H278476   5.178   4.865   0.845 -0.0825  0.1944  1.3461
19021TIP3   OH278477   3.564   2.055  13.745  0.5266  0.5046 -0.6045
19021TIP3    H178478   3.609   2.140  13.739  1.2997  0.0750 -1.0117
19021TIP3    H278479   3.473   2.078  13.763  0.6711  1.4365 -0.9880
19022TIP3   OH278480   1.426   6.583  13.868  0.4927  0.5614 -0.1146
19022TIP3    H178481   1.505   6.538  13.898 -2.4720 -5.1471  0.6427
19022TIP3    H278482   1.363   6.573  13.939 -2.5770 -0.6163 -2.7071
19023TIP3   OH278483   2.739   5.749  14.191  0.1734  0.4609  1.0443
19023TIP3    H178484   2.703   5.814  14.251  0.7360  0.4595  1.3934
19023TIP3    H278485   2.795   5.694  14.246 -2.3559 -2.0672  1.3743
19024TIP3   OH278486   5.817   3.555  14.615  0.1098 -0.0743  0.4971
19024TIP3    H178487   5.773   3.484  14.661  1.0888 -1.4350 -0.5971
19024TIP3    H278488   5.778   3.555  14.527  1.9004 -1.0202 -0.3483
19025TIP3   OH278489   0.970   1.077  14.958  0.1983  0.2848 -0.1164
19025TIP3    H178490   0.926   1.058  15.040 -0.4716 -0.5723 -0.6506
19025TIP3    H278491   1.019   0.997  14.938 -2.3590 -0.9287 -2.2109
19026TIP3   OH278492   4.463   0.681  16.020  0.2424  0.0585  0.0382
19026TIP3    H178493   4.437   0.714  15.935 -2.5195  1.0411  1.1387
19026TIP3    H278494   4.538   0.735  16.046  1.7561 -0.8917 -2.0508
19027TIP3   OH278495   0.454   2.618   1.903  0.4488 -0.6616 -0.4705
19027TIP3    H178496   0.532   2.661   1.868  1.3683 -0.8056  1.2630
19027TIP3    H278497   0.427   2.557   1.835  3.7445 -2.9151  0.0162
19028TIP3   OH278498   0.879   5.718  14.616  0.0749 -0.1156 -0.3261
19028TIP3    H178499   0.951   5.690  14.558 -0.9804 -1.7950 -0.9021
19028TIP3    H278500   0.821   5.642  14.620 -2.2621  1.5459 -0.7709
19029TIP3   OH278501   3.255   3.929  14.510  0.2189 -0.4958  0.0967
19029TIP3    H178502   3.250   3.997  14.444  0.4010 -0.6255 -0.0507
19029TIP3    H278503   3.176   3.877  14.497 -0.4925  0.3405  0.9297
19030TIP3   OH278504   3.524   0.895  15.196 -0.0951  0.1539  0.2518
19030TIP3    H178505   3.467   0.877  15.271 -0.7392 -0.7180 -0.4396
19030TIP3    H278506   3.476   0.960  15.144  0.3150  0.6932  0.5260
19031TIP3   OH278507   4.711   0.623   2.132 -0.2044 -0.3789  0.5376
19031TIP3    H178508   4.776   0.623   2.202  1.1395  3.3686 -0.4627
19031TIP3    H278509   4.745   0.563   2.066  0.3820 -1.1559  1.5310
19032TIP3   OH278510   4.457   0.275   3.408  0.0152 -0.1390 -0.0372
19032TIP3    H178511   4.394   0.215   3.449  0.9010  0.0255  1.6347
19032TIP3    H278512   4.468   0.346   3.472  1.9546 -0.2000 -0.2445
19033TIP3   OH278513   6.217   1.182  15.099  0.5483 -0.2719 -0.8059
19033TIP3    H178514   6.234   1.248  15.167  2.4879 -0.7185 -0.7894
19033TIP3    H278515   6.154   1.224  15.040 -1.5998 -0.0608  1.4886
19034TIP3   OH278516   0.235   4.698  15.479  0.1110 -0.4538  0.0738
19034TIP3    H178517   0.149   4.738  15.465  0.0944 -0.5697 -0.1621
19034TIP3    H278518   0.293   4.742  15.418  0.6844  1.0717  1.6390
19035TIP3   OH278519   2.292   5.446  14.529 -0.1858 -0.3865 -0.2658
19035TIP3    H178520   2.357   5.445  14.459  0.1621  0.8277  0.0277
19035TIP3    H278521   2.226   5.382  14.501  0.8268 -1.2066 -0.8353
19036TIP3   OH278522   3.845   6.166  14.578  0.4265 -0.2591  0.1143
19036TIP3    H178523   3.904   6.221  14.628 -1.3130  0.3244  1.6161
19036TIP3    H278524   3.861   6.191  14.487  2.7644 -0.4609  0.4099
19037TIP3   OH278525   5.014   3.578   4.323  0.6469  0.2244 -0.0197
19037TIP3    H178526   4.936   3.525   4.337  0.8721  0.1100  0.8376
19037TIP3    H278527   5.081   3.538   4.378  1.0767  0.8454 -0.0745
19038TIP3   OH278528   3.208   3.564   4.868  0.0573  0.4445 -0.0036
19038TIP3    H178529   3.220   3.528   4.780 -1.1865 -2.5228  0.9113
19038TIP3    H278530   3.113   3.568   4.879  0.1055  3.6059  0.2464
19039TIP3   OH278531   4.662   2.942  14.809 -0.1006 -0.1961  0.5872
19039TIP3    H178532   4.625   2.986  14.732  0.3906 -0.0158  0.4519
19039TIP3    H278533   4.714   3.009  14.853  0.2376 -0.5046  0.6619
19040TIP3   OH278534   4.035   4.852   3.643 -0.2684 -0.5116 -0.1020
19040TIP3    H178535   3.965   4.852   3.578 -1.0183 -0.4784  0.6879
19040TIP3    H278536   4.111   4.887   3.597 -0.9381  0.0591 -0.7946
19041TIP3   OH278537   0.419   1.381   0.255  0.0890 -0.8116  0.1507
19041TIP3    H178538   0.372   1.320   0.199  0.2142 -0.8497  0.0861
19041TIP3    H278539   0.371   1.380   0.338 -0.4917 -0.2522 -0.1651
19042TIP3   OH278540   4.530   6.334  16.164  0.4180 -0.0247  0.3295
19042TIP3    H178541   4.595   6.284  16.114 -0.1129  0.0634 -0.4700
19042TIP3    H278542   4.486   6.268  16.217 -0.5607 -0.5078 -1.0257
19043TIP3   OH278543   4.184   1.985  14.141  0.6830 -0.0375 -0.1565
19043TIP3    H178544   4.167   1.956  14.051  0.3562  0.1660 -0.1639
19043TIP3    H278545   4.209   1.906  14.188  1.4138 -0.0521 -0.5585
19044TIP3   OH278546   3.270   3.986  16.624 -0.0439  0.1981  0.4649
19044TIP3    H178547   3.320   4.052  16.577  0.8186 -0.5657  0.2947
19044TIP3    H278548   3.322   3.967  16.702  0.9786 -2.0238 -0.6712
19045TIP3   OH278549   0.418   2.297   4.980  0.8790  0.0734  0.1726
19045TIP3    H178550   0.396   2.348   4.902  2.0222  0.4286  0.0648
19045TIP3    H278551   0.422   2.362   5.051 -0.7122 -0.3211  0.6696
19046TIP3   OH278552   3.149   4.057  11.085 -0.1146 -0.0156  0.0743
19046TIP3    H178553   3.227   4.002  11.085  0.1414  0.3116 -1.2543
19046TIP3    H278554   3.180   4.143  11.057 -0.2898  1.2058  3.1638
19047TIP3   OH278555   5.758   1.603   6.038 -0.0818  0.1543  0.3390
19047TIP3    H178556   5.670   1.585   6.072 -0.8761  2.7631 -0.1135
19047TIP3    H278557   5.814   1.601   6.116 -0.4531 -1.8366  0.5883
19048TIP3   OH278558   0.534   6.308  17.110  0.5806 -0.6600 -0.2143
19048TIP3    H178559   0.598   6.352  17.166 -0.4801 -1.0951  1.4181
19048TIP3    H278560   0.509   6.229  17.158 -0.8832 -0.6979 -0.9627
19049TIP3   OH278561   4.242   5.418   3.342  0.1817  0.1570  0.4099
19049TIP3    H178562   4.238   5.334   3.388  0.9158 -0.3945 -0.4896
19049TIP3    H278563   4.158   5.423   3.295 -0.2556  0.3773  1.1932
19050TIP3   OH278564   6.685   1.869  13.439 -0.0178 -0.0846 -0.0469
19050TIP3    H178565   6.777   1.881  13.415  0.2104 -2.3778 -0.4855
19050TIP3    H278566   6.644   1.953  13.416  2.0342  1.2149  0.7317
19051TIP3   OH278567   1.448   0.386   3.311 -0.0677 -0.3983  0.3316
19051TIP3    H178568   1.454   0.441   3.389 -0.3406  0.7919 -0.4540
19051TIP3    H278569   1.539   0.374   3.283  0.0666 -1.2413  1.0933
19052TIP3   OH278570   3.378   4.252   3.228  0.9415 -0.2238 -0.2141
19052TIP3    H178571   3.310   4.218   3.287  1.1578 -1.5204 -0.6654
19052TIP3    H278572   3.453   4.194   3.243  1.7629  0.8189 -0.1613
19053TIP3   OH278573   3.484   1.537   3.244 -0.5114 -0.5073  0.1131
19053TIP3    H178574   3.546   1.498   3.183  0.1467  0.3024  0.2520
19053TIP3    H278575   3.537   1.560   3.321 -1.3059 -1.4514  0.9746
19054TIP3   OH278576   0.384   4.644   0.648  0.1012 -0.1559  0.2840
19054TIP3    H178577   0.412   4.592   0.573 -0.6225 -0.0545 -0.0677
19054TIP3    H278578   0.458   4.701   0.667  0.4632 -0.5053 -0.0608
19055TIP3   OH278579   2.323   4.048   5.727  0.7636  0.0424  0.1144
19055TIP3    H178580   2.250   3.987   5.726  0.0673  0.8505  0.1877
19055TIP3    H278581   2.378   4.020   5.800  0.0294 -0.0161  0.6547
19056TIP3   OH278582   0.051   5.620  14.582 -0.0409 -0.3654 -0.0789
19056TIP3    H178583   0.039   5.571  14.663  0.8966 -2.7581 -1.2847
19056TIP3    H278584  -0.032   5.667  14.570 -0.9061 -1.4633  1.2982
19057TIP3   OH278585   4.029   5.848  12.540 -0.2788  0.8707  0.3574
19057TIP3    H178586   4.024   5.883  12.451 -1.0908  2.8477  1.1040
19057TIP3    H278587   4.122   5.838  12.557 -0.0749  1.3171 -0.4345
19058TIP3   OH278588   0.501   1.377   5.229  0.0747  0.1721 -0.1834
19058TIP3    H178589   0.578   1.420   5.192  0.0189  1.8427  1.4658
19058TIP3    H278590   0.434   1.385   5.162  1.1353 -0.7473 -1.3897
19059TIP3   OH278591   3.736   0.933  12.705  0.0521  0.1041 -0.0453
19059TIP3    H178592   3.657   0.977  12.675  0.0352  0.8009  0.9741
19059TIP3    H278593   3.759   0.979  12.786  1.1901 -0.4447 -0.0487
19060TIP3   OH278594   6.012   0.809   5.794  0.2517 -0.1682  0.6553
19060TIP3    H178595   5.923   0.838   5.815  0.4739 -1.0381  3.1091
19060TIP3    H278596   6.007   0.714   5.792  0.8770 -0.1941 -0.5937
19061TIP3   OH278597   0.100   3.470   1.922  0.2516 -0.2159 -0.3095
19061TIP3    H178598   0.109   3.521   1.841 -4.5313 -0.1485 -1.0880
19061TIP3    H278599   0.111   3.535   1.992  0.3227  0.5762 -1.0340
19062TIP3   OH278600   2.209   0.975  13.016 -0.4215  0.3336 -0.3087
19062TIP3    H178601   2.115   0.967  12.998 -0.2711 -0.1538 -0.9048
19062TIP3    H278602   2.217   0.944  13.106 -0.8999  0.8766 -0.0684
19063TIP3   OH278603   0.413   4.608  10.668  0.5422 -0.1360 -0.2763
19063TIP3    H178604   0.345   4.563  10.717  0.4194 -0.4939 -0.7607
19063TIP3    H278605   0.373   4.691  10.641  0.7829  0.2929  0.6531
19064TIP3   OH278606   0.526   3.547   4.463 -0.0440  0.0979 -0.7455
19064TIP3    H178607   0.434   3.569   4.447 -0.6063 -1.3314  0.3712
19064TIP3    H278608   0.560   3.521   4.377 -1.5658 -2.3309 -0.7043
19065TIP3   OH278609   0.793   5.987  10.367  0.0997 -0.0849 -0.7568
19065TIP3    H178610   0.707   5.983  10.409  0.0811 -0.0384 -0.7895
19065TIP3    H278611   0.848   6.034  10.429 -0.3299  1.4094 -1.4452
19066TIP3   OH278612   4.352   4.190  15.996  0.5346 -0.0817 -0.2189
19066TIP3    H178613   4.325   4.115  15.942  0.7818 -1.2614  1.2337
19066TIP3    H278614   4.274   4.210  16.049  1.4361 -1.5201  1.7852
19067TIP3   OH278615   0.239   3.636   4.377  0.5093  0.2575  0.3063
19067TIP3    H178616   0.169   3.673   4.432  1.7562 -0.4496  2.4910
19067TIP3    H278617   0.200   3.558   4.338 -1.0618  1.8821 -1.6109
19068TIP3   OH278618   2.678   3.535  10.569  0.4244 -0.2519  0.2247
19068TIP3    H178619   2.593   3.543  10.526 -0.0012 -0.3757  1.0232
19068TIP3    H278620   2.736   3.592  10.518 -0.1866  0.0073 -0.1971
19069TIP3   OH278621   2.574   4.897   0.981 -0.2868  0.2525 -1.0278
19069TIP3    H178622   2.509   4.935   1.040 -0.8341  0.2258 -1.6027
19069TIP3    H278623   2.551   4.804   0.978  0.7131 -0.0466 -0.0531
19070TIP3   OH278624   0.383   5.406  14.471  0.1164 -0.4561  0.5128
19070TIP3    H178625   0.416   5.327  14.429 -0.3058 -0.5986  0.4500
19070TIP3    H278626   0.353   5.461  14.399 -0.5775 -0.6870  0.6167
19071TIP3   OH278627   0.805   1.436  13.785 -0.1796 -0.1206 -0.1681
19071TIP3    H178628   0.892   1.398  13.772 -0.3828 -1.2215  1.3841
19071TIP3    H278629   0.787   1.424  13.879 -1.9313  0.2469 -0.4185
19072TIP3   OH278630   0.322   0.893   2.171  0.6033 -0.0746  0.6495
19072TIP3    H178631   0.274   0.934   2.242 -0.0511 -1.8854  1.2941
19072TIP3    H278632   0.390   0.841   2.214  1.4333  0.3167 -0.1444
19073TIP3   OH278633   3.570   6.619   2.141  0.0856  0.2824  0.7046
19073TIP3    H178634   3.555   6.712   2.127  0.2988  0.6095  2.3788
19073TIP3    H278635   3.483   6.579   2.131  0.2103  0.4434 -1.2974
19074TIP3   OH278636   4.767   6.229  15.744  0.0814  0.1829  0.0778
19074TIP3    H178637   4.780   6.324  15.746  0.3389  0.1376  1.1816
19074TIP3    H278638   4.823   6.199  15.673 -0.8907  0.9722 -1.0537
19075TIP3   OH278639   3.667   4.704   2.687 -0.1363  0.0831  0.6650
19075TIP3    H178640   3.678   4.754   2.606 -0.7763  0.0274  0.5427
19075TIP3    H278641   3.573   4.689   2.694  0.1005 -1.8445  0.2424
19076TIP3   OH278642   0.739   2.723  12.459  0.6698  0.5020  0.2754
19076TIP3    H178643   0.651   2.711  12.425  1.0317  0.3093 -0.6241
19076TIP3    H278644   0.733   2.801  12.515 -0.5454 -0.8002  2.0321
19077TIP3   OH278645   0.396   5.698  11.766  0.5579 -0.5330  0.2480
19077TIP3    H178646   0.337   5.739  11.829 -1.3200 -2.7074  0.0369
19077TIP3    H278647   0.444   5.771  11.726  0.0563  1.0732  2.4318
19078TIP3   OH278648   3.298   2.847   0.760 -0.1103  0.0072 -0.2185
19078TIP3    H178649   3.321   2.771   0.708  0.2207 -0.4936  0.6366
19078TIP3    H278650   3.379   2.898   0.765 -0.8529  1.5757 -2.6147
19079TIP3   OH278651   6.146   0.355  11.052 -0.4291 -0.4980 -0.0604
19079TIP3    H178652   6.187   0.348  10.966  1.2166 -1.0655  0.7197
19079TIP3    H278653   6.204   0.412  11.102 -2.3447  1.3855  0.1557
19080TIP3   OH278654   5.032   3.128   1.127 -0.0292  0.1845 -0.1582
19080TIP3    H178655   4.972   3.059   1.155 -0.3014  0.2780 -0.5079
19080TIP3    H278656   5.014   3.139   1.034 -0.0925  0.8310 -0.0734
19081TIP3   OH278657   5.827   0.719  15.000 -0.4093 -0.3822  0.6505
19081TIP3    H178658   5.921   0.707  14.987 -0.8643 -2.6911 -1.2479
19081TIP3    H278659   5.820   0.795  15.057  2.6170 -0.5535  1.4080
19082TIP3   OH278660   0.566   0.398  10.388 -0.2075 -0.8756 -1.0117
19082TIP3    H178661   0.540   0.306  10.388  0.4389 -1.0657 -0.8981
19082TIP3    H278662   0.638   0.403  10.451 -0.6755 -0.1582 -0.5098
19083TIP3   OH278663   6.586   1.880  14.327  0.3649 -0.3995 -0.1020
19083TIP3    H178664   6.640   1.934  14.384 -2.0798  0.2004  1.8236
19083TIP3    H278665   6.648   1.820  14.285  2.3749 -1.0262  3.3407
19084TIP3   OH278666   0.070   3.734  11.262 -0.4203  0.6039  0.6493
19084TIP3    H178667   0.104   3.664  11.207  0.6393  2.7671 -1.6458
19084TIP3    H278668   0.128   3.734  11.339  0.8438  0.2396 -0.2716
19085TIP3   OH278669   3.003   6.796   0.286  0.1583 -0.1389 -0.2487
19085TIP3    H178670   3.004   6.889   0.263 -0.1542 -0.2152 -0.5744
19085TIP3    H278671   3.084   6.761   0.247 -0.4473 -0.3014 -1.3931
19086TIP3   OH278672   5.901   6.581  11.627 -0.4352 -0.2329 -0.1846
19086TIP3    H178673   5.936   6.507  11.675  1.1937  1.5107  1.4657
19086TIP3    H278674   5.808   6.562  11.617 -0.2264 -2.0416  1.0066
19087TIP3   OH278675   2.716   4.598  13.924 -0.1281  0.1126  0.3271
19087TIP3    H178676   2.674   4.660  13.984 -0.7339 -0.5864  0.6492
19087TIP3    H278677   2.782   4.649  13.878 -0.6206  0.9931  0.5813
19088TIP3   OH278678   5.321   4.291  15.763  0.1987  0.8377 -0.4918
19088TIP3    H178679   5.278   4.218  15.807  1.8226 -0.3143 -0.7340
19088TIP3    H278680   5.382   4.327  15.827  1.6864 -0.0655 -1.3492
19089TIP3   OH278681   3.692   4.599   2.220  0.4523  0.4685  0.0758
19089TIP3    H178682   3.598   4.583   2.224  0.2158  1.7165  0.1605
19089TIP3    H278683   3.730   4.534   2.278 -0.5669  1.3277  1.7866
19090TIP3   OH278684   4.620   0.203  13.101  0.0112 -0.5437  0.7909
19090TIP3    H178685   4.598   0.295  13.116  0.2577 -0.2480 -0.5646
19090TIP3    H278686   4.586   0.157  13.178 -2.0943  0.3777  0.4651
19091TIP3   OH278687   5.302   5.566  11.892 -0.0297  0.5636  0.0810
19091TIP3    H178688   5.385   5.613  11.884  1.3287 -1.3895  1.7620
19091TIP3    H278689   5.268   5.591  11.978 -0.6004  0.4690 -0.1122
19092TIP3   OH278690   6.203   0.559  13.452  0.4517 -0.2837  0.3413
19092TIP3    H178691   6.153   0.531  13.529  2.2840 -2.6901  0.7722
19092TIP3    H278692   6.146   0.537  13.378 -0.2810 -0.3335  0.8996
19093TIP3   OH278693   0.343   1.223   2.553 -0.0127 -0.2143  0.3571
19093TIP3    H178694   0.327   1.132   2.577 -1.7511  0.2104  0.9309
19093TIP3    H278695   0.336   1.225   2.458  0.1359 -0.6974  0.3356
19094TIP3   OH278696   6.093   4.587  16.109  0.3768 -0.7334 -0.2055
19094TIP3    H178697   6.166   4.649  16.105  1.1656 -1.5484  0.7806
19094TIP3    H278698   6.126   4.509  16.063 -0.9195 -0.1788 -2.2183
19095TIP3   OH278699   1.496   6.693   0.031  0.0690  0.1921  0.0877
19095TIP3    H178700   1.444   6.772   0.018  0.3657  0.7625  2.0791
19095TIP3    H278701   1.532   6.702   0.118 -0.2610 -2.3669  0.5769
19096TIP3   OH278702   6.170   0.123  12.393  0.1501 -0.6895 -0.6284
19096TIP3    H178703   6.174   0.184  12.466  0.7245 -0.9291 -0.4560
19096TIP3    H278704   6.077   0.119  12.370  0.0653 -0.0196 -0.4183
19097TIP3   OH278705   0.470   3.923   4.344 -0.7190  0.0729 -0.3310
19097TIP3    H178706   0.477   3.960   4.256  0.2468 -0.6751 -0.5732
19097TIP3    H278707   0.376   3.931   4.365 -1.5084 -2.1996 -2.5213
19098TIP3   OH278708   1.646   3.211   2.365  0.7875 -0.2096  0.0403
19098TIP3    H178709   1.693   3.286   2.329  0.1309  0.2229  0.0560
19098TIP3    H278710   1.556   3.243   2.377  1.0356 -0.2233  2.3527
19099TIP3   OH278711   5.398   3.137  15.874 -0.3740  0.4031  0.2879
19099TIP3    H178712   5.426   3.219  15.915  0.9561 -0.6152  1.5162
19099TIP3    H278713   5.454   3.070  15.914 -1.4547 -1.1161 -0.6519
19100TIP3   OH278714   3.353   4.662   0.498 -0.2426 -0.1557 -0.5447
19100TIP3    H178715   3.376   4.676   0.590 -1.6080 -1.7158  0.1029
19100TIP3    H278716   3.306   4.741   0.472 -0.2500  0.1095  0.2600
19101TIP3   OH278717   5.667   1.308  14.491 -0.1332  0.1417 -0.3573
19101TIP3    H178718   5.652   1.221  14.528  0.3046 -0.0527 -0.6268
19101TIP3    H278719   5.679   1.365  14.568  1.8820 -0.4540 -0.1487
19102TIP3   OH278720   0.602   3.063   4.192 -0.7021  0.0268 -0.0705
19102TIP3    H178721   0.518   3.052   4.147 -0.5890 -0.5282 -0.1512
19102TIP3    H278722   0.633   2.973   4.206  0.0216  0.2399 -0.3093
19103TIP3   OH278723   3.222   5.304  12.140 -0.2845  0.1615  0.4443
19103TIP3    H178724   3.156   5.373  12.143  0.2717  0.6722  1.2993
19103TIP3    H278725   3.295   5.343  12.091  0.8529  0.9623  2.6427
19104TIP3   OH278726   2.142   6.057   2.949  0.5177 -1.0058 -0.1362
19104TIP3    H178727   2.132   5.966   2.978 -0.1377 -0.6669  0.7475
19104TIP3    H278728   2.136   6.052   2.854 -1.0449 -1.7366 -0.0311
19105TIP3   OH278729   5.189   2.670   3.051  0.5324  0.2117 -0.0814
19105TIP3    H178730   5.125   2.741   3.042  0.6311  0.0351 -3.4846
19105TIP3    H278731   5.266   2.713   3.087 -0.4414  1.1064  1.0227
19106TIP3   OH278732   6.374   4.221   4.360  0.3034  0.1120 -0.0875
19106TIP3    H178733   6.397   4.241   4.269 -0.9243 -2.1002 -0.9777
19106TIP3    H278734   6.361   4.126   4.360 -0.5635  0.1812  2.2108
19107TIP3   OH278735   1.807   5.714  16.932 -0.0954  0.1981 -0.4128
19107TIP3    H178736   1.831   5.676  17.017  0.3098 -0.0243 -0.6227
19107TIP3    H278737   1.713   5.731  16.939  0.1255  1.1696  0.4577
19108TIP3   OH278738   3.325   6.152   1.629  0.1123  0.1879  0.3336
19108TIP3    H178739   3.230   6.157   1.641  0.0102 -2.4324  1.2002
19108TIP3    H278740   3.337   6.119   1.540  0.1202 -1.0500  0.7768
19109TIP3   OH278741   1.362   2.082   5.910 -0.3168  0.1947 -0.4586
19109TIP3    H178742   1.425   2.140   5.953  0.1081  0.5603 -1.5391
19109TIP3    H278743   1.285   2.085   5.966  0.3218  0.4216  0.4303
19110TIP3   OH278744   0.831   3.314  16.288  0.2518  0.3120 -0.2328
19110TIP3    H178745   0.893   3.335  16.358 -1.7115 -0.0015  1.7102
19110TIP3    H278746   0.747   3.351  16.318 -0.4905  1.0799 -2.9349
19111TIP3   OH278747   1.353   0.482   1.329 -0.3756 -0.2383 -0.2131
19111TIP3    H178748   1.268   0.493   1.285 -0.6063 -0.9001  0.0520
19111TIP3    H278749   1.375   0.390   1.315  0.8281  0.1670 -1.1950
19112TIP3   OH278750   3.153   4.941  11.928  0.4979  0.4194 -0.1977
19112TIP3    H178751   3.102   4.919  11.850  0.0746 -0.4601  0.3063
19112TIP3    H278752   3.177   4.856  11.964  3.7904  0.7286 -1.3220
19113TIP3   OH278753   6.632   6.705   5.187  0.1169 -0.1107  0.4520
19113TIP3    H178754   6.681   6.623   5.185 -0.8260 -0.7541  1.5750
19113TIP3    H278755   6.666   6.751   5.264 -0.8727 -0.4987  1.1557
19114TIP3   OH278756   3.633   0.397   5.882  0.1840 -0.5780  0.2897
19114TIP3    H178757   3.676   0.427   5.802  0.3021  1.0749  0.9248
19114TIP3    H278758   3.543   0.381   5.856  0.3834 -0.7491 -0.3210
19115TIP3   OH278759   3.731   3.993  14.070 -0.1187 -0.0382  0.5573
19115TIP3    H178760   3.798   3.957  14.129 -0.8149 -0.2115  1.2681
19115TIP3    H278761   3.771   3.990  13.983  1.2960  1.0843  1.1267
19116TIP3   OH278762   0.529   2.995   6.145  0.3595 -0.1400 -0.1340
19116TIP3    H178763   0.617   2.962   6.162  0.5500  1.1606  1.6999
19116TIP3    H278764   0.471   2.932   6.187  0.1194 -2.4045 -3.4461
19117TIP3   OH278765   3.176   6.202   3.207  0.0620 -0.2717  0.3440
19117TIP3    H178766   3.087   6.234   3.226  0.7377  1.0554  1.4892
19117TIP3    H278767   3.171   6.108   3.223 -0.9646 -0.1102  1.1260
19118TIP3   OH278768   1.696   6.510  13.291  0.0249 -0.4160 -0.3198
19118TIP3    H178769   1.723   6.423  13.261  0.9560 -0.9055  1.7439
19118TIP3    H278770   1.773   6.564  13.280 -0.7666  0.3974 -2.2826
19119TIP3   OH278771   0.585   5.620  12.036  0.0150 -0.7570  0.4971
19119TIP3    H178772   0.671   5.629  12.077 -0.2833 -0.4624  1.0735
19119TIP3    H278773   0.602   5.635  11.943  0.1102  2.9175  0.9306
19120TIP3   OH278774   1.221   0.984   2.841 -0.2298 -0.1336  0.7325
19120TIP3    H178775   1.209   0.912   2.904 -0.1582 -0.1348  0.7445
19120TIP3    H278776   1.251   1.058   2.894 -3.0868  0.8112  1.2295
19121TIP3   OH278777   5.831   4.230   3.356  0.3262  0.2946  0.4346
19121TIP3    H178778   5.755   4.264   3.310 -0.4068 -1.1917  0.4791
19121TIP3    H278779   5.883   4.186   3.288  0.5579  0.3236  0.5904
19122TIP3   OH278780   2.201   4.028   1.376 -0.6177  0.0851 -0.2330
19122TIP3    H178781   2.225   4.103   1.431 -0.4895 -0.1727  0.0685
19122TIP3    H278782   2.255   3.956   1.410  0.1113  0.1327 -1.2683
19123TIP3   OH278783   5.914   2.462  15.309  0.8572  0.2001 -0.0028
19123TIP3    H178784   5.879   2.551  15.304 -1.9049 -0.6961  1.3351
19123TIP3    H278785   5.868   2.414  15.241 -2.8247 -1.5851  3.3430
19124TIP3   OH278786   4.422   1.259  16.955 -0.2103  0.0136 -0.0139
19124TIP3    H178787   4.336   1.259  16.998 -0.0921 -1.3894  0.2774
19124TIP3    H278788   4.402   1.245  16.862 -0.3986  1.9468 -0.3090
19125TIP3   OH278789   2.557   2.848  13.229  0.6305  0.6170  0.4307
19125TIP3    H178790   2.602   2.854  13.314  1.9727 -0.5594 -0.1536
19125TIP3    H278791   2.560   2.936  13.193 -0.5565  1.2898  1.8830
19126TIP3   OH278792   3.080   0.077  16.452  0.6147  0.3395 -0.0012
19126TIP3    H178793   2.988   0.053  16.463  0.0208  2.6653  0.7304
19126TIP3    H278794   3.083   0.122  16.367  1.5291 -1.5101 -0.9981
19127TIP3   OH278795   5.399   5.796  15.951  0.3517  0.5067 -0.1635
19127TIP3    H178796   5.403   5.891  15.957  0.8232  0.5210 -0.6065
19127TIP3    H278797   5.306   5.775  15.947  0.1490  0.8270  1.7792
19128TIP3   OH278798   0.770   4.414  10.284  0.4067 -0.3721  0.5854
19128TIP3    H178799   0.861   4.391  10.262  0.8169  1.1296  0.5720
19128TIP3    H278800   0.772   4.510  10.293 -1.2430 -0.2967  0.3057
19129TIP3   OH278801   2.245   5.050   4.471  0.4448 -0.0042 -0.2763
19129TIP3    H178802   2.151   5.046   4.456  0.3892 -1.9333  0.3239
19129TIP3    H278803   2.256   5.021   4.562  1.7072 -1.3988 -0.8347
19130TIP3   OH278804   6.372   3.410   1.648  0.2482  0.0926 -0.0545
19130TIP3    H178805   6.331   3.457   1.576  0.7146 -1.2808 -1.2752
19130TIP3    H278806   6.300   3.364   1.691 -0.4920  3.0994  2.2218
19131TIP3   OH278807   2.837   1.355  14.948  0.3106  0.2500  0.1291
19131TIP3    H178808   2.899   1.288  14.978  1.3852  1.8500  1.6657
19131TIP3    H278809   2.885   1.438  14.957 -0.9791  1.2555 -1.6875
19132TIP3   OH278810   6.033   1.003  10.735  0.0792 -0.4759  0.6134
19132TIP3    H178811   6.067   0.934  10.677 -2.0117 -0.9783 -0.0985
19132TIP3    H278812   5.951   0.967  10.770  0.0944  0.7811  2.0262
19133TIP3   OH278813   1.981   4.965  12.333 -0.7179 -0.0620  0.3372
19133TIP3    H178814   2.031   5.009  12.265 -1.8572 -1.0864 -1.2260
19133TIP3    H278815   1.950   5.036  12.390 -1.5058  1.0733 -1.4281
19134TIP3   OH278816   2.877   5.239  16.620  0.0261  0.1302 -0.0139
19134TIP3    H178817   2.803   5.299  16.624 -1.9528 -2.1817  1.4259
19134TIP3    H278818   2.920   5.249  16.705  0.9093  0.9086 -0.5453
19135TIP3   OH278819   0.330   0.742  12.317 -0.5212  0.1912 -0.9228
19135TIP3    H178820   0.237   0.738  12.338 -0.3025  2.3650  0.7229
19135TIP3    H278821   0.373   0.766  12.399  1.4462 -0.1936 -1.7728
19136TIP3   OH278822   5.840   1.123  13.287  0.5754  0.3620  0.1790
19136TIP3    H178823   5.795   1.104  13.370  0.6660 -0.3024  0.0819
19136TIP3    H278824   5.930   1.142  13.312  0.0149  3.0232  0.5218
19137TIP3   OH278825   5.506   1.483  12.615  0.2474 -0.1400  0.3585
19137TIP3    H178826   5.475   1.395  12.633  2.0315 -0.6966  0.9668
19137TIP3    H278827   5.436   1.540  12.645 -0.2053 -1.3035  1.6271
19138TIP3   OH278828   3.894   2.596   0.541 -0.1610  0.4704  0.2697
19138TIP3    H178829   3.931   2.509   0.554 -0.2001  0.0838 -1.8149
19138TIP3    H278830   3.878   2.629   0.629  1.0022 -1.1283  1.1329
19139TIP3   OH278831   6.690   2.632  12.427 -0.1788  0.2900  0.4172
19139TIP3    H178832   6.632   2.592  12.492 -0.3848 -1.6938 -0.9082
19139TIP3    H278833   6.636   2.643  12.349  0.2126  2.1247  0.3562
19140TIP3   OH278834   5.547   5.333   2.120  0.2056 -0.3121  0.3758
19140TIP3    H178835   5.537   5.415   2.072 -2.1004 -1.6250 -1.5883
19140TIP3    H278836   5.478   5.336   2.187  0.5776 -0.3628  0.7687
19141TIP3   OH278837   5.689   6.298   2.330  0.4379 -0.4015  0.7349
19141TIP3    H178838   5.708   6.351   2.408  0.7993  1.5622 -0.6301
19141TIP3    H278839   5.772   6.256   2.310  1.5643  2.3427 -0.8983
19142TIP3   OH278840   1.091   3.815   4.148 -0.2624  0.3350  0.4537
19142TIP3    H178841   1.118   3.758   4.220 -0.2084  1.0535  1.0240
19142TIP3    H278842   1.127   3.901   4.172  0.9946  0.2935 -1.1477
19143TIP3   OH278843   4.136   0.051   3.022 -0.0195 -0.3029  0.1885
19143TIP3    H178844   4.213   0.055   3.078 -0.0230  0.4765  0.1462
19143TIP3    H278845   4.171   0.055   2.933 -0.1840  3.3696  0.1266
19144TIP3   OH278846   5.445   0.883   4.203  0.2170 -0.2935 -0.0416
19144TIP3    H178847   5.489   0.804   4.173  0.8485 -0.2136  0.6331
19144TIP3    H278848   5.505   0.954   4.182  0.3827 -0.1726  0.8044
19145TIP3   OH278849   5.720   3.487   4.694 -0.1717 -0.7403 -0.1656
19145TIP3    H178850   5.670   3.500   4.613 -0.5356  1.9297  0.4080
19145TIP3    H278851   5.657   3.500   4.764  0.2534 -2.5417  0.6144
19146TIP3   OH278852   6.394   4.440  16.653 -0.2348  0.7539  0.3372
19146TIP3    H178853   6.400   4.365  16.594 -0.2819  0.3577  0.8418
19146TIP3    H278854   6.466   4.429  16.715 -0.1145  1.2344  0.2876
19147TIP3   OH278855   5.163   0.497  16.947 -0.0173 -0.1740  0.1244
19147TIP3    H178856   5.211   0.469  16.869  0.5945 -0.3030  0.5385
19147TIP3    H278857   5.200   0.583  16.969 -0.5344  0.0916 -0.0079
19148TIP3   OH278858   3.570   1.857  11.139 -0.0571  0.6133  0.5181
19148TIP3    H178859   3.618   1.869  11.057 -1.1764  0.0003 -0.2529
19148TIP3    H278860   3.639   1.848  11.206  0.8713  1.4999 -0.2702
19149TIP3   OH278861   5.936   5.244   3.009  0.0456 -0.0772 -0.4581
19149TIP3    H178862   5.959   5.274   3.097  0.6090 -0.0826 -0.5994
19149TIP3    H278863   5.850   5.282   2.993  0.2206  0.4559 -0.1563
19150TIP3   OH278864   0.370   4.671  12.750  0.1172  0.4538 -0.1899
19150TIP3    H178865   0.323   4.712  12.822  0.8648  2.3611 -0.7023
19150TIP3    H278866   0.312   4.682  12.674  0.8635  1.8649 -0.6041
19151TIP3   OH278867   2.450   6.765  11.397  0.3283 -0.2941  0.1847
19151TIP3    H178868   2.360   6.779  11.367  0.5650 -0.9886 -0.8964
19151TIP3    H278869   2.444   6.692  11.458  0.0332  0.3050  0.9009
19152TIP3   OH278870   0.762   3.242  12.476  0.3755 -0.0618  0.5372
19152TIP3    H178871   0.765   3.331  12.510 -2.4793  0.5271 -0.5118
19152TIP3    H278872   0.702   3.196  12.534  0.2850 -0.7410 -0.0778
19153TIP3   OH278873   2.273   4.536   3.596  0.4124  0.0956  0.8096
19153TIP3    H178874   2.282   4.460   3.538 -1.4629 -0.0307  0.6036
19153TIP3    H278875   2.274   4.499   3.684 -2.0875 -0.4548  0.6853
19154TIP3   OH278876   1.947   4.310  15.732  0.4834  0.5633  0.5584
19154TIP3    H178877   1.915   4.399  15.722  0.2825  0.4555  0.2404
19154TIP3    H278878   1.872   4.254  15.710  0.7647  0.3119  0.2278
19155TIP3   OH278879   0.336   1.797  12.363  0.3520 -0.7454  0.5227
19155TIP3    H178880   0.248   1.764  12.381  0.7031 -1.4820  0.9662
19155TIP3    H278881   0.378   1.801  12.450  1.2791 -1.9880  0.1673
19156TIP3   OH278882   1.356   2.188  11.815 -0.0516  0.1196  0.1509
19156TIP3    H178883   1.394   2.264  11.770 -0.1172 -0.0982 -0.2788
19156TIP3    H278884   1.369   2.116  11.754 -1.4292  0.0967 -0.1453
19157TIP3   OH278885   4.603   1.633  13.838 -0.4645  0.5007  0.1407
19157TIP3    H178886   4.587   1.539  13.824  0.0327  0.1139  1.9428
19157TIP3    H278887   4.636   1.664  13.753 -1.0013 -0.8620 -0.6034
19158TIP3   OH278888   6.531   1.160  15.718 -0.2884 -0.1685 -0.1116
19158TIP3    H178889   6.543   1.161  15.813  2.0373  1.4491 -0.3243
19158TIP3    H278890   6.581   1.084  15.689  0.0675  0.0614 -0.1140
19159TIP3   OH278891   1.427   4.918   2.293 -0.2017 -0.8538 -0.4117
19159TIP3    H178892   1.459   4.882   2.375  0.3958  1.6932  0.5635
19159TIP3    H278893   1.498   4.904   2.231  1.4531  1.4393  0.7987
19160TIP3   OH278894   2.014   2.832   1.546 -0.0513  0.3525  0.3129
19160TIP3    H178895   2.100   2.817   1.508 -0.0850  0.1506  0.3110
19160TIP3    H278896   1.958   2.766   1.504 -0.2933  0.7377  0.0216
19161TIP3   OH278897   5.523   1.304   5.093  0.2247 -0.3168 -0.1851
19161TIP3    H178898   5.457   1.327   5.028 -0.4154  0.0485  0.5892
19161TIP3    H278899   5.590   1.372   5.084 -1.1443  1.3171  1.3598
19162TIP3   OH278900   1.530   1.232  14.858 -1.0581  0.0832 -0.8187
19162TIP3    H178901   1.562   1.316  14.891  0.8765 -0.0273 -2.2265
19162TIP3    H278902   1.446   1.219  14.901 -0.4850  1.7973  0.9266
19163TIP3   OH278903   2.631   3.838  13.007  0.1303  0.0044 -0.2694
19163TIP3    H178904   2.557   3.782  12.981 -0.4919  0.3528  0.6749
19163TIP3    H278905   2.615   3.855  13.100  0.0700  2.0925 -0.6208
19164TIP3   OH278906   3.203   4.033  15.592 -0.1961  0.5234  0.2507
19164TIP3    H178907   3.235   3.964  15.651  2.1409  0.0457 -1.4056
19164TIP3    H278908   3.116   4.004  15.567  0.1730 -1.1120  0.7012
19165TIP3   OH278909   1.168   6.246   3.414  0.0071  0.1291  0.1893
19165TIP3    H178910   1.244   6.238   3.472 -0.3615  0.1983  0.6808
19165TIP3    H278911   1.130   6.331   3.436 -0.9190 -0.4344  0.7895
19166TIP3   OH278912   1.939   1.635  14.068 -0.0995  0.1266  0.7075
19166TIP3    H178913   2.021   1.590  14.088 -0.3568 -0.0973  1.3094
19166TIP3    H278914   1.896   1.579  14.004  0.6807  0.7818 -0.4118
19167TIP3   OH278915   0.272   3.985  11.823 -0.6324  0.0891  0.0987
19167TIP3    H178916   0.229   3.917  11.874  0.9889 -0.0613  1.3733
19167TIP3    H278917   0.357   3.997  11.866 -0.2867  1.8988 -0.9635
19168TIP3   OH278918   3.425   2.194   5.815  0.3888 -0.3820 -1.0636
19168TIP3    H178919   3.465   2.260   5.871  0.5356  0.4174 -2.0841
19168TIP3    H278920   3.463   2.111   5.845  1.5515  0.1836 -0.9256
19169TIP3   OH278921   2.914   3.569   4.904  0.5356  0.3767  0.6395
19169TIP3    H178922   2.907   3.491   4.959 -0.3282  0.3298  0.4805
19169TIP3    H278923   2.840   3.624   4.931 -0.4523 -0.0334 -1.0594
19170TIP3   OH278924   0.843   3.394  16.700 -0.0450  0.8576  0.2838
19170TIP3    H178925   0.886   3.325  16.750 -1.3598 -0.6416 -0.5703
19170TIP3    H278926   0.894   3.398  16.618 -0.1569  0.6699  0.2039
19171TIP3   OH278927   4.648   3.793  16.516  0.1188  0.0218 -0.5607
19171TIP3    H178928   4.565   3.829  16.548 -0.1327 -0.6310 -0.4542
19171TIP3    H278929   4.624   3.747  16.435  0.2513 -0.7482 -0.1725
19172TIP3   OH278930   6.632   6.529   0.194  0.0941 -0.4737  0.0600
19172TIP3    H178931   6.602   6.441   0.172  0.6119 -0.7352  0.3838
19172TIP3    H278932   6.728   6.522   0.195  0.1496  0.1729 -0.2420
19173TIP3   OH278933   5.626   5.263   0.395 -0.2904  0.5120  0.4247
19173TIP3    H178934   5.720   5.274   0.412  0.1317  1.3216 -1.9530
19173TIP3    H278935   5.597   5.350   0.366 -1.7570  0.2251  0.9546
19174TIP3   OH278936   2.207   0.472  14.074 -0.0693  0.7027 -0.0829
19174TIP3    H178937   2.150   0.533  14.121 -1.1122  0.1401 -0.5821
19174TIP3    H278938   2.271   0.528  14.031  0.2840  1.2930  1.1760
19175TIP3   OH278939   6.689   6.359  12.392 -0.5154 -0.1259  0.5880
19175TIP3    H178940   6.698   6.280  12.337 -1.1271  0.5098 -0.4673
19175TIP3    H278941   6.680   6.431  12.329  1.5230  1.0225  1.5036
19176TIP3   OH278942   3.919   1.304  14.269 -0.0677  0.2093  0.0206
19176TIP3    H178943   3.893   1.352  14.191 -0.2316  0.1780  0.0535
19176TIP3    H278944   3.836   1.285  14.314 -0.1852 -1.5894 -0.8439
19177TIP3   OH278945   0.739   6.459  12.953 -0.2588  0.4157 -0.3454
19177TIP3    H178946   0.783   6.543  12.939 -0.2189  0.3279 -0.7492
19177TIP3    H278947   0.649   6.473  12.925 -0.4974  0.5918  0.4708
19178TIP3   OH278948   1.098   1.516   5.246 -0.6909  0.0134 -0.1359
19178TIP3    H178949   1.148   1.473   5.316 -0.6266 -1.3847 -0.9940
19178TIP3    H278950   1.162   1.573   5.203 -0.2911 -0.3990 -0.0997
19179TIP3   OH278951   1.554   0.521   5.246 -0.5610 -0.1735 -0.0245
19179TIP3    H178952   1.507   0.600   5.272  0.1443  0.1539  0.2722
19179TIP3    H278953   1.517   0.452   5.301 -0.8350  0.0385  0.0594
19180TIP3   OH278954   6.155   6.338   2.360 -0.0206 -0.4235  0.3039
19180TIP3    H178955   6.204   6.416   2.386  0.3583 -0.3679 -0.5425
19180TIP3    H278956   6.108   6.311   2.440 -0.0863  0.6091  0.6312
19181TIP3   OH278957   0.832   1.317  11.705 -0.0413 -0.3164 -0.5087
19181TIP3    H178958   0.814   1.362  11.623 -2.2192  0.2731  0.2006
19181TIP3    H278959   0.917   1.349  11.733 -0.6316  1.8605 -1.0436
19182TIP3   OH278960   3.428   3.008  14.184  0.0464 -0.9968  0.1559
19182TIP3    H178961   3.343   3.050  14.170  0.5061  0.4680  1.4143
19182TIP3    H278962   3.417   2.919  14.151 -1.6288 -0.5034 -0.7132
19183TIP3   OH278963   2.662   2.698  14.237  0.1594 -0.5238 -0.4120
19183TIP3    H178964   2.597   2.733  14.299 -0.1092 -0.0520 -0.9576
19183TIP3    H278965   2.739   2.681  14.291  0.1214  0.4301 -0.0387
19184TIP3   OH278966   0.370   2.425   2.759 -0.2404  0.0445 -0.0544
19184TIP3    H178967   0.334   2.473   2.833  0.9750  0.5645  0.2285
19184TIP3    H278968   0.402   2.343   2.797  1.9114  1.0041  0.3761
19185TIP3   OH278969   0.272   5.681  10.803 -0.3115 -0.3254 -0.1128
19185TIP3    H178970   0.203   5.625  10.841 -1.8985  1.4623 -0.2228
19185TIP3    H278971   0.350   5.626  10.805 -1.6717 -2.3835  0.2163
19186TIP3   OH278972   3.180   5.562  16.145 -0.1948  0.2284  0.0871
19186TIP3    H178973   3.146   5.539  16.231  1.4039 -1.3549  0.3500
19186TIP3    H278974   3.275   5.559  16.154  0.0357  1.3512 -1.4119
19187TIP3   OH278975   3.413   5.015   2.585 -0.2661  0.2484  0.2204
19187TIP3    H178976   3.437   4.924   2.602 -1.8902 -0.0647  1.0369
19187TIP3    H278977   3.378   5.015   2.496 -0.4455  0.0188  0.2890
19188TIP3   OH278978   6.538   5.889  16.273  0.3788  0.3562  0.1391
19188TIP3    H178979   6.509   5.962  16.218 -0.1557 -0.8979 -1.3420
19188TIP3    H278980   6.564   5.929  16.356 -2.3060  1.9750  0.3237
19189TIP3   OH278981   0.343   4.242  12.544 -0.3335  0.0065 -0.1987
19189TIP3    H178982   0.290   4.322  12.540 -1.3102 -0.4540  1.8979
19189TIP3    H278983   0.431   4.270  12.520 -1.1193  1.1791 -1.9343
19190TIP3   OH278984   3.066   1.439  12.781 -0.3792  0.2368  0.1454
19190TIP3    H178985   3.145   1.399  12.818  0.5212  0.6650 -1.2339
19190TIP3    H278986   3.092   1.529  12.760 -1.4724  0.6191  0.3677
19191TIP3   OH278987   4.619   4.802  10.673 -0.0981 -0.2491 -0.2380
19191TIP3    H178988   4.563   4.816  10.749  1.6721  0.7650  0.9324
19191TIP3    H278989   4.707   4.826  10.702  0.8232 -0.8964 -2.2836
19192TIP3   OH278990   2.744   6.662   2.738  0.1056 -0.5406 -0.3032
19192TIP3    H178991   2.773   6.578   2.703  0.7018 -0.2510 -0.5147
19192TIP3    H278992   2.721   6.713   2.661  1.4405  0.1083 -0.2971
19193TIP3   OH278993   2.389   6.250   6.318  0.1343  0.2605 -0.0895
19193TIP3    H178994   2.295   6.247   6.335  0.4324 -3.3272  1.8642
19193TIP3    H278995   2.396   6.237   6.223 -1.3038  0.8626 -0.3138
19194TIP3   OH278996   4.315   0.238  10.640  0.3937  0.0304  0.1890
19194TIP3    H178997   4.292   0.164  10.584 -0.6392  0.7103 -0.3219
19194TIP3    H278998   4.385   0.205  10.696 -0.3661 -1.4799  0.2991
19195TIP3   OH278999   1.832   2.225  13.032 -0.5849 -0.1280 -0.4336
19195TIP3    H179000   1.866   2.160  12.971 -1.7659  0.5393 -1.8699
19195TIP3    H279001   1.746   2.190  13.058 -0.4910  0.0475  0.1293
19196TIP3   OH279002   6.547   4.006  14.322  0.4063  0.1709  0.4067
19196TIP3    H179003   6.511   4.078  14.270  1.9854  2.2116  1.9858
19196TIP3    H279004   6.520   3.927  14.275 -3.4090  1.5976 -0.1754
19197TIP3   OH279005   0.140   0.615   0.416 -0.6965  0.6744 -0.6863
19197TIP3    H179006   0.212   0.556   0.438 -1.0027  1.0958  1.5963
19197TIP3    H279007   0.066   0.583   0.468 -1.5856  1.5488 -1.3706
19198TIP3   OH279008   0.868   6.721   0.936  0.4542 -0.7384 -0.1734
19198TIP3    H179009   0.963   6.734   0.930  0.6507 -0.6938  2.1761
19198TIP3    H279010   0.858   6.627   0.953  0.0333 -0.8396 -0.9644
19199TIP3   OH279011   1.557   2.490  13.202  0.1647  0.0277 -0.2202
19199TIP3    H179012   1.537   2.582  13.187  0.8589  0.1597 -0.3540
19199TIP3    H279013   1.648   2.489  13.233 -0.1849 -0.5112  0.8720
19200TIP3   OH279014   3.286   3.814   1.828 -0.1206 -0.0474 -0.2180
19200TIP3    H179015   3.272   3.890   1.885 -0.0004  1.1614 -1.7366
19200TIP3    H279016   3.208   3.812   1.772 -0.4907 -1.5401  0.3104
19201TIP3   OH279017   3.362   3.216  11.186  0.8664 -0.0953  0.2364
19201TIP3    H179018   3.397   3.169  11.110  0.5348 -1.8391  1.0948
19201TIP3    H279019   3.267   3.202  11.180  0.6815  1.0948  0.1458
19202TIP3   OH279020   1.735   5.341  15.453  0.3076  0.4984 -0.0090
19202TIP3    H179021   1.803   5.370  15.513  0.3907  0.2757  0.0058
19202TIP3    H279022   1.758   5.250  15.433  1.2363  1.0588 -1.6833
19203TIP3   OH279023   5.503   5.607  11.693  0.4484  0.7509  0.3949
19203TIP3    H179024   5.453   5.603  11.612 -0.0631 -1.0939  0.7619
19203TIP3    H279025   5.469   5.685  11.738 -1.7031 -0.1170  0.3733
19204TIP3   OH279026   0.548   4.087   6.396  1.0433 -0.1682  0.1235
19204TIP3    H179027   0.586   4.154   6.340  0.4759  1.4032  1.5538
19204TIP3    H279028   0.454   4.104   6.393  0.7639 -1.6022 -0.3243
19205TIP3   OH279029   4.778   1.883   1.521 -0.1407 -0.4372 -0.1510
19205TIP3    H179030   4.711   1.916   1.461  0.1843 -0.8160 -0.7380
19205TIP3    H279031   4.811   1.804   1.478  3.4829  1.8027 -1.9013
19206TIP3   OH279032   0.091   6.190   0.061 -0.0496  0.3448  0.4054
19206TIP3    H179033   0.138   6.176   0.144  1.5857  0.1941 -0.4977
19206TIP3    H279034   0.112   6.280   0.037  2.1701 -0.5458 -1.3719
19207TIP3   OH279035   5.849   5.739   4.056  0.1621  0.2850 -0.4289
19207TIP3    H179036   5.912   5.688   4.006 -0.6148  0.1705 -1.3084
19207TIP3    H279037   5.846   5.824   4.013 -0.7155  0.0957 -0.7728
19208TIP3   OH279038   6.287   6.153  16.014 -0.3167  0.2973 -0.2258
19208TIP3    H179039   6.373   6.191  16.033 -0.9929  1.1356  1.3471
19208TIP3    H279040   6.254   6.205  15.941  0.4443  0.0607 -0.7506
19209TIP3   OH279041   3.236   4.336   3.655  0.0028  0.1198 -0.0374
19209TIP3    H179042   3.206   4.420   3.618 -0.2046  0.4555  0.8575
19209TIP3    H279043   3.171   4.273   3.625  0.5366  0.1502 -1.2848
19210TIP3   OH279044   4.585   1.015   2.734  0.3695  0.1287 -0.0378
19210TIP3    H179045   4.503   1.063   2.726 -0.2953 -1.0274 -0.2909
19210TIP3    H279046   4.652   1.076   2.702 -0.4464  0.8847 -0.3273
19211TIP3   OH279047   5.478   3.793   1.129 -0.3043 -0.4983 -0.0051
19211TIP3    H179048   5.422   3.724   1.095 -0.9538 -0.1480  0.3402
19211TIP3    H279049   5.455   3.801   1.221 -0.0468 -0.0083  0.0248
19212TIP3   OH279050   5.182   1.974   0.307  0.6788  0.0237  0.0045
19212TIP3    H179051   5.234   2.051   0.330 -1.3387  1.3060  0.5397
19212TIP3    H279052   5.210   1.906   0.369  2.6259  0.2222 -0.6058
19213TIP3   OH279053   4.480   5.004  14.845  0.1987  0.0543  0.4473
19213TIP3    H179054   4.452   5.058  14.771  1.8552  0.3003 -0.0482
19213TIP3    H279055   4.475   4.914  14.813  1.0905  0.1700 -0.0569
19214TIP3   OH279056   2.530   2.685   6.005 -0.1519 -0.4635 -0.3157
19214TIP3    H179057   2.619   2.669   6.037  0.3399  1.6817 -0.4864
19214TIP3    H279058   2.542   2.703   5.912 -0.5071  1.6353  0.0121
19215TIP3   OH279059   1.448   3.222   1.259 -0.8219 -0.3808  0.1616
19215TIP3    H179060   1.424   3.130   1.251  1.1789 -0.9363  0.1079
19215TIP3    H279061   1.542   3.221   1.275 -0.9700  1.6042  1.4965
19216TIP3   OH279062   6.206   4.378  14.993 -0.3483 -0.6624 -0.2650
19216TIP3    H179063   6.183   4.292  15.026 -1.5182 -0.6055 -0.8748
19216TIP3    H279064   6.171   4.380  14.903 -2.1000  1.1095  0.3795
19217TIP3   OH279065   3.750   3.953   0.651  0.8737 -0.0442  0.3715
19217TIP3    H179066   3.681   3.987   0.709  1.8338  0.2085  1.4223
19217TIP3    H279067   3.706   3.889   0.596 -0.7340  1.9194 -0.7656
19218TIP3   OH279068   1.809   5.454  13.700 -0.4155 -0.5862 -0.2119
19218TIP3    H179069   1.889   5.418  13.737 -0.4808 -0.4130  0.1057
19218TIP3    H279070   1.830   5.474  13.609  0.6089  1.6168  0.4502
19219TIP3   OH279071   6.675   2.938  13.720 -0.1069  0.0944  0.1572
19219TIP3    H179072   6.678   2.866  13.657  1.7476 -0.5046  0.8740
19219TIP3    H279073   6.606   2.912  13.782 -0.4485 -0.3507 -0.3978
19220TIP3   OH279074   3.380   0.963   5.246 -0.3051  0.5150  0.0052
19220TIP3    H179075   3.379   1.041   5.190 -0.0087  0.1666 -0.4938
19220TIP3    H279076   3.445   0.983   5.314  0.5615  0.2910 -0.7336
19221TIP3   OH279077   2.542   4.659   2.126 -0.3367  0.1617  0.3055
19221TIP3    H179078   2.615   4.601   2.148 -0.2508 -0.0913 -0.5840
19221TIP3    H279079   2.510   4.626   2.042  0.3471  1.9730 -0.7382
19222TIP3   OH279080   3.232   0.375  11.162 -0.2949  0.5488 -0.0947
19222TIP3    H179081   3.214   0.282  11.144  0.3239  0.2330  0.8524
19222TIP3    H279082   3.235   0.415  11.075  0.6990 -0.5616 -0.6140
19223TIP3   OH279083   2.979   1.922   2.912 -0.1469 -0.1367  0.1989
19223TIP3    H179084   2.918   1.850   2.897  0.4468 -0.7658  0.7132
19223TIP3    H279085   3.051   1.882   2.961  1.7488  0.0600 -2.2271
19224TIP3   OH279086   6.516   5.864  13.316 -0.0865 -0.6249  0.0164
19224TIP3    H179087   6.466   5.805  13.259  2.8086 -0.2464 -3.2289
19224TIP3    H279088   6.587   5.810  13.351  1.2015  0.3010 -1.0622
19225TIP3   OH279089   6.051   3.640  15.064 -0.6521 -0.0282  0.0047
19225TIP3    H179090   6.032   3.549  15.041  0.1912  0.5243 -3.3773
19225TIP3    H279091   5.984   3.691  15.019 -0.9483  1.1074  1.6288
19226TIP3   OH279092   2.563   0.612  16.781  0.1819  0.7304 -0.5785
19226TIP3    H179093   2.615   0.667  16.722 -2.1974  1.5229 -2.0643
19226TIP3    H279094   2.508   0.673  16.830  0.8793 -0.0566  1.2728
19227TIP3   OH279095   0.595   5.533   2.944 -0.2441  0.7313 -0.5361
19227TIP3    H179096   0.596   5.628   2.946 -0.1445  0.7224  0.9592
19227TIP3    H279097   0.538   5.511   2.870 -1.7863  1.9570  0.2423
19228TIP3   OH279098   4.381   0.670   0.198  0.1962 -0.6092 -0.2029
19228TIP3    H179099   4.464   0.663   0.151 -0.4573 -1.5123 -1.2711
19228TIP3    H279100   4.334   0.590   0.175 -2.4222  1.3861 -2.4978
19229TIP3   OH279101   1.511   5.281  15.300  0.4766 -0.0677  0.1699
19229TIP3    H179102   1.422   5.257  15.324  0.3748  0.3602  0.2201
19229TIP3    H279103   1.560   5.278  15.383  0.1442  1.3234  0.4373
19230TIP3   OH279104   5.042   3.817  13.214  0.0293 -0.3225 -0.4736
19230TIP3    H179105   5.134   3.793  13.228  0.1487 -0.8714 -1.9620
19230TIP3    H279106   5.017   3.770  13.134 -0.9407  1.3850 -1.2392
19231TIP3   OH279107   1.035   3.859  16.423 -0.0623 -0.1204 -0.7259
19231TIP3    H179108   1.042   3.845  16.517 -0.8262 -0.3074 -0.6935
19231TIP3    H279109   1.063   3.950  16.410  0.2759 -0.1665 -0.3563
19232TIP3   OH279110   2.794   4.847   1.947 -0.3497 -0.4008  0.6369
19232TIP3    H179111   2.816   4.804   1.864  0.1213  1.4719 -0.2440
19232TIP3    H279112   2.865   4.823   2.007  0.2651 -0.2805 -0.0380
19233TIP3   OH279113   2.874   4.364  12.395  0.4275  0.0733 -0.3668
19233TIP3    H179114   2.862   4.309  12.472  1.6022 -1.4692 -1.2226
19233TIP3    H279115   2.946   4.423  12.418  1.4132 -1.0141 -0.5729
19234TIP3   OH279116   3.999   5.502   5.107 -0.3579  0.1403 -0.1939
19234TIP3    H179117   3.926   5.465   5.157 -0.0876  0.2800  0.3212
19234TIP3    H279118   4.054   5.427   5.086  0.5910  0.2997  1.5180
19235TIP3   OH279119   5.062   4.763  11.699 -0.3611  0.3475 -0.5068
19235TIP3    H179120   5.065   4.719  11.784 -1.0020  2.1027  0.4736
19235TIP3    H279121   5.153   4.765  11.670 -0.0668  0.2448  0.4009
19236TIP3   OH279122   2.841   0.460   3.928  0.1449  0.0809  0.2881
19236TIP3    H179123   2.872   0.497   4.011 -0.1823 -0.9228  0.8708
19236TIP3    H279124   2.872   0.522   3.861 -1.1613  1.8828  1.2876
19237TIP3   OH279125   1.046   5.125   4.546  0.3163  0.4353 -0.2794
19237TIP3    H179126   1.087   5.148   4.463 -3.0701  0.5790 -2.0580
19237TIP3    H279127   1.067   5.033   4.559  1.8125  0.7010 -0.6610
19238TIP3   OH279128   1.063   0.601  13.729 -0.2080 -0.3414  0.5766
19238TIP3    H179129   1.012   0.678  13.752  2.4186  1.5847  0.3433
19238TIP3    H279130   1.041   0.537  13.797 -2.8260  0.3174  0.4858
19239TIP3   OH279131   0.288   3.139  13.218 -0.0579 -0.3044 -0.2583
19239TIP3    H179132   0.293   3.087  13.298 -0.4807 -0.2036 -0.1655
19239TIP3    H279133   0.318   3.226  13.243  2.1932 -0.8789 -0.7688
19240TIP3   OH279134   5.244   3.731  11.114 -0.1877  0.2588 -0.3572
19240TIP3    H179135   5.287   3.714  11.031  1.0415  0.6119  0.1786
19240TIP3    H279136   5.211   3.820  11.106  0.9131  0.7097 -0.0884
19241TIP3   OH279137   3.519   0.358   4.221 -0.8771 -0.0099  0.0098
19241TIP3    H179138   3.531   0.366   4.126  1.7635 -0.2497  0.2322
19241TIP3    H279139   3.592   0.408   4.258 -0.7177 -1.5207  1.8694
19242TIP3   OH279140   0.687   5.485   5.709  0.2234 -0.1585  0.0327
19242TIP3    H179141   0.717   5.472   5.799  1.0280 -0.4270 -0.2668
19242TIP3    H279142   0.764   5.516   5.662  0.0200 -0.8070 -0.7485
19243TIP3   OH279143   4.032   2.143   2.479 -0.0147 -0.1381 -0.0349
19243TIP3    H179144   3.992   2.070   2.430 -1.4826  0.2938  0.4603
19243TIP3    H279145   4.065   2.202   2.412  0.2825 -0.7717 -0.4579
19244TIP3   OH279146   3.212   1.406   2.319 -0.0598 -0.3695  0.3357
19244TIP3    H179147   3.300   1.403   2.281  0.3663 -0.3900  1.2948
19244TIP3    H279148   3.223   1.371   2.407 -0.8210  0.6781  0.8595
19245TIP3   OH279149   1.295   4.422  15.367  0.6474  0.1654 -0.0802
19245TIP3    H179150   1.230   4.486  15.335  1.3212  0.0547 -1.7592
19245TIP3    H279151   1.252   4.380  15.441 -0.4051  1.5199  0.1201
19246TIP3   OH279152   3.181   3.006   3.894 -0.4798  0.0297 -0.0090
19246TIP3    H179153   3.090   2.988   3.916  0.5405 -2.3512  2.9775
19246TIP3    H279154   3.208   2.931   3.840  0.7852 -1.9105  3.0273
19247TIP3   OH279155   6.192   5.780   1.462  0.0866  0.7544  0.2645
19247TIP3    H179156   6.228   5.710   1.408  0.8547 -0.2686  2.0096
19247TIP3    H279157   6.151   5.735   1.536  0.8242  2.1197  1.5792
19248TIP3   OH279158   1.963   2.923   3.271 -0.2967 -0.6304 -0.2421
19248TIP3    H179159   1.935   2.964   3.189 -1.6222 -0.5449  0.2280
19248TIP3    H279160   1.896   2.856   3.288  0.4620 -1.2661  0.3049
19249TIP3   OH279161   4.756   4.025   4.930 -0.0530  0.2645 -0.2040
19249TIP3    H179162   4.792   4.076   4.857  0.3779 -0.4093 -0.4849
19249TIP3    H279163   4.698   3.961   4.887 -2.5667  2.0668  0.3264
19250TIP3   OH279164   0.707   0.914   2.784 -0.7183  0.2093  0.2905
19250TIP3    H179165   0.722   0.999   2.743 -1.4193  0.0702 -0.2688
19250TIP3    H279166   0.775   0.857   2.747 -2.4109 -0.3839 -2.1211
19251TIP3   OH279167   5.844   2.703  15.422  0.2916  0.2085 -0.1205
19251TIP3    H179168   5.763   2.671  15.461  0.3953 -0.5698 -0.5303
19251TIP3    H279169   5.911   2.688  15.489  0.5566 -1.5633 -0.7319
19252TIP3   OH279170   4.523   5.270   4.111  0.0022 -0.3715 -0.5716
19252TIP3    H179171   4.475   5.259   4.193 -0.9603  0.5114 -1.0003
19252TIP3    H279172   4.495   5.355   4.077  2.1238  0.3478 -0.6975
19253TIP3   OH279173   3.497   3.518   2.326  0.7986  0.2400 -0.2936
19253TIP3    H179174   3.438   3.585   2.360  0.5375  0.9696 -2.0723
19253TIP3    H279175   3.585   3.553   2.341  0.6726  0.7905 -0.8318
19254TIP3   OH279176   0.273   1.027   0.448  0.1447  0.0005  0.0082
19254TIP3    H179177   0.281   0.961   0.517  3.1953  0.2044 -0.0379
19254TIP3    H279178   0.275   0.977   0.367  1.6245  0.0482 -0.0061
19255TIP3   OH279179   1.645   4.140  14.664  0.2424  0.5687  0.9208
19255TIP3    H179180   1.573   4.178  14.715 -0.0388  0.9122  0.2931
19255TIP3    H279181   1.650   4.050  14.693 -0.3388  0.5857  1.1001
19256TIP3   OH279182   4.582   1.647   1.880  0.1818 -0.8588  0.1798
19256TIP3    H179183   4.594   1.675   1.970  0.2921 -0.0665 -0.0736
19256TIP3    H279184   4.494   1.610   1.878 -0.5669  0.8075  0.2151
19257TIP3   OH279185   6.729   4.006  12.899 -0.4684 -0.1197 -0.6510
19257TIP3    H179186   6.789   4.046  12.836  1.3385 -0.4491  0.7729
19257TIP3    H279187   6.647   3.996  12.851  0.2899  1.2987 -2.3697
19258TIP3   OH279188   4.690   5.620  12.352 -0.7719 -0.5260  0.4113
19258TIP3    H179189   4.615   5.672  12.380 -2.0846 -1.8609 -0.4269
19258TIP3    H279190   4.654   5.560  12.286  1.5237  0.3626 -1.8168
19259TIP3   OH279191   0.588   6.256  11.936 -0.4593 -0.0886 -0.2835
19259TIP3    H179192   0.615   6.300  12.017 -3.8933 -0.3411  1.2183
19259TIP3    H279193   0.667   6.215  11.902  1.0481 -0.6363  3.4292
19260TIP3   OH279194   6.023   3.588   1.612 -0.2213  0.2922 -0.4767
19260TIP3    H179195   5.973   3.660   1.574  0.0968  0.4199 -0.6639
19260TIP3    H279196   6.107   3.590   1.565 -0.8535 -1.3201 -1.7851
19261TIP3   OH279197   0.546   3.350  15.039 -0.2858 -0.0054 -0.0412
19261TIP3    H179198   0.611   3.380  15.103 -1.5537  2.0452  0.3555
19261TIP3    H279199   0.478   3.417  15.039 -2.0958 -1.7148 -0.9668
19262TIP3   OH279200   1.735   3.765  10.933 -0.0047  0.0753  0.4607
19262TIP3    H179201   1.749   3.744  10.840  0.5633 -0.3130  0.6311
19262TIP3    H279202   1.762   3.686  10.980 -0.3546  0.2453  0.9580
19263TIP3   OH279203   5.929   1.797  17.165 -0.0713 -0.0384 -0.1717
19263TIP3    H179204   5.983   1.874  17.182  0.1159 -0.0662 -0.6316
19263TIP3    H279205   5.841   1.823  17.193 -0.6872  1.4596 -3.1139
19264TIP3   OH279206   6.201   2.681  13.778  0.2502 -0.3138 -0.1827
19264TIP3    H179207   6.203   2.725  13.863  0.4187 -0.0241 -0.3391
19264TIP3    H279208   6.289   2.647  13.766  0.2351 -0.3269 -0.2572
19265TIP3   OH279209   5.813   4.594  16.047 -0.8820  0.1212  0.4529
19265TIP3    H179210   5.801   4.560  15.958 -0.0484  0.1590  0.3137
19265TIP3    H279211   5.908   4.589  16.061 -1.0899 -0.6402  1.6433
19266TIP3   OH279212   4.670   5.824   0.866  0.6732 -0.1591 -0.1967
19266TIP3    H179213   4.679   5.729   0.874  1.2279 -0.1489 -0.6851
19266TIP3    H279214   4.609   5.837   0.793 -0.7786 -0.1580  0.9620
19267TIP3   OH279215   6.386   0.230  14.532 -0.0529 -0.0049  0.3985
19267TIP3    H179216   6.351   0.204  14.617  1.3821 -0.5982  0.8378
19267TIP3    H279217   6.446   0.302  14.551 -0.8699  0.8931 -0.3211
19268TIP3   OH279218   4.467   3.387  12.630 -0.1422 -0.7678 -0.1558
19268TIP3    H179219   4.409   3.419  12.561 -0.2039  0.7887  0.5896
19268TIP3    H279220   4.478   3.461  12.690  0.3868 -1.8894  1.2033
19269TIP3   OH279221   2.119   6.564  16.802 -0.1957 -0.2489  0.1099
19269TIP3    H179222   2.081   6.480  16.778 -0.4473  0.2282 -1.2064
19269TIP3    H279223   2.049   6.609  16.851  0.1826 -1.0542  1.4621
19270TIP3   OH279224   0.821   1.181   5.347  0.1730  0.4580 -0.4968
19270TIP3    H179225   0.805   1.275   5.358 -0.5383  0.3257 -0.4144
19270TIP3    H279226   0.886   1.177   5.276  1.2621  1.0693  0.4230
19271TIP3   OH279227   1.324   6.301  13.176  0.5449  0.0568  0.4217
19271TIP3    H179228   1.365   6.216  13.165  2.6929  0.4938  3.6954
19271TIP3    H279229   1.247   6.284  13.231 -1.1087 -0.1441 -1.8480
19272TIP3   OH279230   4.620   5.156   1.839  0.0857 -0.3318 -0.2004
19272TIP3    H179231   4.602   5.082   1.897  0.2447 -0.7468 -0.6669
19272TIP3    H279232   4.534   5.186   1.810 -0.1373  1.3525  2.0174
19273TIP3   OH279233   1.734   1.826   1.007  0.6267 -0.1343  0.2299
19273TIP3    H179234   1.741   1.751   0.947 -0.4865  0.5265 -0.7603
19273TIP3    H279235   1.792   1.892   0.968  1.3808 -0.3530  0.9458
19274TIP3   OH279236   0.317   2.544  11.991 -0.0034  0.0472  0.9207
19274TIP3    H179237   0.361   2.463  12.017 -1.3017 -1.1841 -0.5948
19274TIP3    H279238   0.379   2.587  11.931  1.7263  1.4591  3.5103
19275TIP3   OH279239   5.664   5.014  15.028  0.1798  0.7426  0.2943
19275TIP3    H179240   5.629   5.016  14.939 -0.5485  1.6338  0.5891
19275TIP3    H279241   5.743   4.960  15.022 -1.9772 -2.6197 -0.0942
19276TIP3   OH279242   5.633   3.620   3.188 -0.4257  0.1552 -0.0877
19276TIP3    H179243   5.554   3.578   3.154 -0.7388 -1.4945  2.4109
19276TIP3    H279244   5.607   3.712   3.201 -0.7967  0.4449 -2.4503
19277TIP3   OH279245   3.473   0.372   3.118  0.2581 -0.3387 -0.1817
19277TIP3    H179246   3.380   0.352   3.110  0.0258  0.2308  1.0140
19277TIP3    H279247   3.516   0.286   3.113 -0.4161 -0.7214  0.5246
19278TIP3   OH279248   0.745   3.345   1.140  0.0467 -0.0278 -0.0998
19278TIP3    H179249   0.685   3.322   1.069 -0.6472  2.1984 -0.3111
19278TIP3    H279250   0.831   3.352   1.099 -0.3845  1.4524 -0.8018
19279TIP3   OH279251   5.596   1.140   4.373  0.5654 -0.4663 -0.2724
19279TIP3    H179252   5.508   1.115   4.401  0.8186 -0.2606  0.7511
19279TIP3    H279253   5.614   1.221   4.421  1.2777 -0.4569 -0.5459
19280TIP3   OH279254   2.393   3.725  12.919 -0.4706  0.3031  0.0893
19280TIP3    H179255   2.356   3.639  12.901 -0.6912 -0.3021  2.9343
19280TIP3    H279256   2.318   3.784  12.914 -0.7575 -0.0340  0.3366
19281TIP3   OH279257   0.576   6.089  14.780  0.6833 -0.1378  0.0282
19281TIP3    H179258   0.640   6.018  14.771  0.9891  0.2931 -1.6361
19281TIP3    H279259   0.605   6.156  14.718  0.7895  1.7860  2.0199
19282TIP3   OH279260   5.644   0.724   0.346 -0.4026  0.0219  0.0076
19282TIP3    H179261   5.692   0.804   0.325 -0.2322  0.0117  0.3520
19282TIP3    H279262   5.704   0.654   0.323 -0.4653 -0.0029 -0.0814
19283TIP3   OH279263   2.212   2.339   1.090  0.0270 -0.0580  0.5093
19283TIP3    H179264   2.167   2.264   1.129  0.3664 -0.8461 -0.5764
19283TIP3    H279265   2.298   2.305   1.065 -0.8575 -0.1681 -2.7301
19284TIP3   OH279266   3.801   3.870   3.617 -0.1381  0.0387 -0.4427
19284TIP3    H179267   3.774   3.959   3.595  2.6162  1.4519  1.2480
19284TIP3    H279268   3.895   3.869   3.599  0.3956 -1.6578  1.9407
19285TIP3   OH279269   2.361   1.299  14.213 -0.3783 -0.5965  0.7113
19285TIP3    H179270   2.405   1.340  14.286 -0.9336 -1.9972  1.8833
19285TIP3    H279271   2.289   1.249  14.253 -1.7670 -0.0288 -0.9342
19286TIP3   OH279272   5.475   2.549   4.046 -0.0639 -0.4588 -0.3154
19286TIP3    H179273   5.419   2.553   3.969 -0.4232  0.7715 -0.0199
19286TIP3    H279274   5.563   2.565   4.012 -0.4216  1.8507 -0.3075
19287TIP3   OH279275   4.961   0.139   1.755  0.6940  0.2803  0.4736
19287TIP3    H179276   5.037   0.101   1.799  1.1241 -0.5382 -0.8872
19287TIP3    H279277   4.896   0.151   1.824  1.2972 -1.0298  1.3168
19288TIP3   OH279278   2.063   0.497   0.920 -0.3281  0.6301 -0.1725
19288TIP3    H179279   2.096   0.582   0.948 -0.2224  0.2640  0.8724
19288TIP3    H279280   2.007   0.515   0.845  2.5129  1.2749 -2.3437
19289TIP3   OH279281   4.924   6.430   3.360 -0.3183  0.1576  0.5286
19289TIP3    H179282   4.890   6.519   3.354  0.1099  0.3215  0.5616
19289TIP3    H279283   5.019   6.439   3.355 -0.0332  0.0047  3.5926
19290TIP3   OH279284   5.151   2.155  13.882 -0.4760  0.4444  0.2961
19290TIP3    H179285   5.143   2.113  13.968  0.6210 -0.0943  0.1398
19290TIP3    H279286   5.186   2.087  13.825 -0.0871  1.1435 -0.3070
19291TIP3   OH279287   2.176   1.200   0.082 -0.1561  0.2325 -0.4919
19291TIP3    H179288   2.117   1.163   0.147  1.7455  0.0186  1.2228
19291TIP3    H279289   2.258   1.215   0.130  0.7472  1.8321 -2.3991
19292TIP3   OH279290   1.872   0.290   4.999 -0.0473  0.0386  0.4913
19292TIP3    H179291   1.944   0.312   4.941 -0.2532 -0.4360  0.0492
19292TIP3    H279292   1.883   0.196   5.016 -0.6332 -0.0634  0.3202
19293TIP3   OH279293   0.680   3.576  11.297  0.5328 -0.0333  0.1995
19293TIP3    H179294   0.763   3.531  11.313 -0.2929 -1.6030  0.3190
19293TIP3    H279295   0.621   3.507  11.266 -0.4646  1.2325 -0.8307
19294TIP3   OH279296   4.045   6.287   6.240  0.2389 -0.1923  0.1824
19294TIP3    H179297   3.989   6.275   6.317 -0.2900  0.5203 -0.0787
19294TIP3    H279298   3.984   6.284   6.166  0.4775  0.9859 -0.0793
19295TIP3   OH279299   0.807   4.479   0.917 -0.1726 -0.1843  0.4352
19295TIP3    H179300   0.862   4.431   0.979 -0.6254  0.2338  1.1808
19295TIP3    H279301   0.855   4.476   0.834  1.6279  1.2393  1.3541
19296TIP3   OH279302   3.826   3.006  12.829 -0.0401 -0.0201  0.1411
19296TIP3    H179303   3.829   2.914  12.804 -1.1161 -0.1923  0.5934
19296TIP3    H279304   3.890   3.049  12.772  0.7377 -1.0970  0.1784
19297TIP3   OH279305   4.268   0.034  10.415 -0.0476  0.9275 -0.2796
19297TIP3    H179306   4.263   0.115  10.366  0.1919  0.2847 -1.4142
19297TIP3    H279307   4.360   0.007  10.408  0.1031  1.0521  0.9320
19298TIP3   OH279308   2.812   6.332  14.552 -0.3822  0.5944 -0.2566
19298TIP3    H179309   2.804   6.340  14.457 -1.1239 -0.8299 -0.3486
19298TIP3    H279310   2.808   6.422  14.585  1.2652  1.2077 -1.6468
19299TIP3   OH279311   6.120   2.089  15.303  0.3642 -0.1272 -0.0512
19299TIP3    H179312   6.201   2.055  15.265  0.0289 -1.4392  0.3416
19299TIP3    H279313   6.052   2.062  15.241  0.2270  1.0956 -0.4564
19300TIP3   OH279314   5.820   2.933   0.116  0.4280 -0.1584 -0.0153
19300TIP3    H179315   5.817   2.839   0.095 -2.1379 -0.3214  0.7536
19300TIP3    H279316   5.803   2.937   0.210  0.0511  1.1077 -0.1221
19301TIP3   OH279317   2.842   2.661  15.601  0.0546 -0.1033 -0.1147
19301TIP3    H179318   2.914   2.685  15.659 -0.5096  1.2390  0.0609
19301TIP3    H279319   2.819   2.572  15.627  1.0981 -0.2483  0.3762
19302TIP3   OH279320   0.360   3.312  12.166 -0.1945  0.0159  0.7515
19302TIP3    H179321   0.359   3.216  12.163 -2.2799  0.0105 -0.6723
19302TIP3    H279322   0.360   3.334  12.259  1.0673 -1.3377  1.1045
19303TIP3   OH279323   2.297   5.782  14.315  0.8553  0.0175  0.7944
19303TIP3    H179324   2.299   5.698  14.269 -4.2952 -1.0734  1.8882
19303TIP3    H279325   2.273   5.846  14.249 -0.2606 -0.3979  0.7707
19304TIP3   OH279326   3.404   6.608   4.008 -0.2472  0.0846  0.0349
19304TIP3    H179327   3.380   6.558   3.930 -2.2975  1.5285 -0.3715
19304TIP3    H279328   3.442   6.544   4.068  0.1858 -1.3019 -1.6609
19305TIP3   OH279329   2.297   4.984   2.539 -0.2501 -0.6275 -0.3213
19305TIP3    H179330   2.359   5.057   2.547  1.1716 -1.7460 -0.6960
19305TIP3    H279331   2.231   5.001   2.606  1.6907 -0.5616  1.6817
19306TIP3   OH279332   1.908   5.938  14.582  0.2619 -0.1477 -0.1724
19306TIP3    H179333   1.926   5.959  14.674 -0.6774 -1.7968  0.4372
19306TIP3    H279334   1.819   5.970  14.567  0.8800  1.2865 -0.9257
19307TIP3   OH279335   4.635   4.056   6.467  0.3191 -0.1956 -0.0234
19307TIP3    H179336   4.576   3.988   6.434 -2.1084  0.7842  1.9845
19307TIP3    H279337   4.701   4.009   6.518  0.0538 -1.1788 -0.5632
19308TIP3   OH279338   1.122   0.818   0.174 -0.5314  0.0576 -0.0677
19308TIP3    H179339   1.209   0.820   0.135 -1.0798 -0.8528 -1.4120
19308TIP3    H279340   1.099   0.725   0.174 -1.8422  0.3645 -0.5299
19309TIP3   OH279341   1.614   6.262  13.407 -0.5143 -0.1509  0.2986
19309TIP3    H179342   1.708   6.260  13.391  0.0573  0.2138  3.1275
19309TIP3    H279343   1.596   6.351  13.435 -1.4997 -0.4941  0.8075
19310TIP3   OH279344   2.244   5.837  15.234 -0.6168 -0.2459  0.1064
19310TIP3    H179345   2.176   5.871  15.292  1.5106  1.5921  1.7221
19310TIP3    H279346   2.285   5.766  15.283  0.5324  0.6429  0.4765
19311TIP3   OH279347   2.340   3.685  16.313 -0.1698 -0.0951  1.1146
19311TIP3    H179348   2.430   3.710  16.290 -0.7997  0.3623 -1.0713
19311TIP3    H279349   2.316   3.745  16.383  0.8414  0.5566  0.9298
19312TIP3   OH279350   3.477   0.865   3.081 -0.0338 -0.7961 -0.3943
19312TIP3    H179351   3.431   0.883   2.999 -0.9720  1.0543  0.4621
19312TIP3    H279352   3.412   0.820   3.135  0.2931 -1.2273 -0.3579
19313TIP3   OH279353   0.981   5.755  10.261  0.0651  0.4725  0.0822
19313TIP3    H179354   0.977   5.824  10.327 -3.2534 -1.0007  1.6291
19313TIP3    H279355   0.931   5.789  10.187  0.2792  0.5110 -0.0490
19314TIP3   OH279356   3.806   2.154  16.272  0.0980  0.0973  0.0446
19314TIP3    H179357   3.779   2.183  16.359 -3.7023 -1.2755 -0.4921
19314TIP3    H279358   3.857   2.074  16.287  0.5251  0.5319  0.9949
19315TIP3   OH279359   3.908   3.792   3.280 -0.0858  0.0994  0.2500
19315TIP3    H179360   3.900   3.888   3.276  0.4416  0.1144 -0.9737
19315TIP3    H279361   3.988   3.778   3.331  0.0128  0.3117  0.1565
19316TIP3   OH279362   0.402   0.135   0.038  0.6023  0.0605  0.5959
19316TIP3    H179363   0.497   0.137   0.031  0.4927 -0.4954 -2.2213
19316TIP3    H279364   0.377   0.048   0.008 -0.8765  0.8201 -0.4786
19317TIP3   OH279365   2.654   0.652   3.310  0.3557  0.3909 -0.4044
19317TIP3    H179366   2.574   0.701   3.331  0.3737  0.2860 -0.0795
19317TIP3    H279367   2.623   0.565   3.286  0.3928  0.2505  0.0500
19318TIP3   OH279368   1.731   2.668  10.979  0.8255  0.2643  0.8095
19318TIP3    H179369   1.676   2.666  11.058  1.7139  1.5042  1.4779
19318TIP3    H279370   1.821   2.666  11.012  1.2256 -0.7286 -0.2440
19319TIP3   OH279371   5.972   2.848  11.474  0.0036 -0.1351 -0.6083
19319TIP3    H179372   6.029   2.777  11.447 -1.5096 -0.5423 -3.0496
19319TIP3    H279373   5.939   2.821  11.560  1.0785 -1.3294 -0.5384
19320TIP3   OH279374   2.052   3.408   1.559 -0.6924 -0.3114  0.2728
19320TIP3    H179375   1.972   3.363   1.530 -1.0406  1.0637 -1.0275
19320TIP3    H279376   2.052   3.490   1.511 -1.2908  2.2310  4.1838
19321TIP3   OH279377   5.317   6.790  14.866  0.4603 -0.3588 -0.1492
19321TIP3    H179378   5.288   6.767  14.955  0.6726 -1.9646 -0.4565
19321TIP3    H279379   5.239   6.775  14.812  0.4447  0.2333 -0.2956
19322TIP3   OH279380   2.860   2.126  14.240  0.0834  0.2405  0.0468
19322TIP3    H179381   2.943   2.155  14.201 -0.2793  0.1898 -0.7954
19322TIP3    H279382   2.850   2.035  14.210 -2.0339  1.3069 -3.0269
19323TIP3   OH279383   4.339   5.330   6.148  0.7211 -0.6048  0.2434
19323TIP3    H179384   4.307   5.354   6.061  0.7979  0.8775  0.6053
19323TIP3    H279385   4.352   5.235   6.143 -0.0529 -0.6661 -1.1013
19324TIP3   OH279386   0.558   3.159   3.588  0.1849 -0.2805  0.3094
19324TIP3    H179387   0.527   3.182   3.501 -0.3585  1.1237  0.8565
19324TIP3    H279388   0.628   3.095   3.572 -1.1386 -1.4710 -1.0504
19325TIP3   OH279389   5.782   5.544  16.164  0.3652 -0.0582 -0.0524
19325TIP3    H179390   5.812   5.514  16.250  3.1375 -0.7993 -1.1711
19325TIP3    H279391   5.713   5.607  16.183  2.1047  1.1704  2.8108
19326TIP3   OH279392   6.602   0.179   0.586 -0.3592  0.5029  1.0304
19326TIP3    H179393   6.527   0.234   0.566  0.0349  0.7659  0.2428
19326TIP3    H279394   6.564   0.093   0.606 -0.9128  0.8210  1.3614
19327TIP3   OH279395   1.155   5.370   0.642  0.0077  0.7065 -0.3668
19327TIP3    H179396   1.094   5.299   0.660 -0.8435  1.7568  1.0535
19327TIP3    H279397   1.231   5.326   0.603 -1.1957 -0.7424 -1.2088
19328TIP3   OH279398   0.920   4.244   5.838 -0.3024 -0.9132 -0.0532
19328TIP3    H179399   0.963   4.284   5.914 -0.7820 -0.9900  0.2618
19328TIP3    H279400   0.929   4.150   5.852  0.3508 -0.9247 -0.5237
19329TIP3   OH279401   6.420   4.100   2.046 -0.1478 -0.5131 -0.7027
19329TIP3    H179402   6.349   4.072   2.103 -2.0637 -0.9008 -3.1201
19329TIP3    H279403   6.439   4.024   1.991  0.1327  0.4555 -2.0124
19330TIP3   OH279404   0.256   0.502   3.638  0.0807 -0.7176  1.0978
19330TIP3    H179405   0.275   0.443   3.711  0.4634 -1.2369  0.5844
19330TIP3    H279406   0.342   0.519   3.599  0.1045  0.8615  1.7414
19331TIP3   OH279407   4.583   0.237  11.937 -0.0367 -0.2345 -0.9164
19331TIP3    H179408   4.640   0.259  12.011 -0.9745  0.3391 -0.3461
19331TIP3    H279409   4.552   0.321  11.904 -0.5835 -0.5412 -1.2019
19332TIP3   OH279410   2.277   5.236   0.215  0.1120  0.3604 -0.0035
19332TIP3    H179411   2.364   5.215   0.180 -1.2116 -1.6345 -2.4032
19332TIP3    H279412   2.281   5.211   0.307  1.9484 -0.0931 -0.1739
19333TIP3   OH279413   6.462   4.311  12.422 -0.3626 -0.3141  0.0112
19333TIP3    H179414   6.517   4.267  12.358 -1.0798  1.1335 -1.6710
19333TIP3    H279415   6.446   4.398  12.385  0.5441  1.2242  2.9292
19334TIP3   OH279416   0.720   2.498  15.097  0.0626  0.0935 -0.2962
19334TIP3    H179417   0.643   2.485  15.042  2.0023  0.3844 -3.3211
19334TIP3    H279418   0.770   2.417  15.088 -0.2137 -0.4562  2.3557
19335TIP3   OH279419   2.208   5.237  12.625 -0.3599  0.4161 -0.1730
19335TIP3    H179420   2.236   5.185  12.701 -1.9640 -0.6253 -0.2675
19335TIP3    H279421   2.191   5.324  12.661  1.6509  0.7440  0.1166
19336TIP3   OH279422   4.628   6.232   1.165  0.1837 -0.2900 -0.1277
19336TIP3    H179423   4.680   6.152   1.180 -0.2957 -0.4455  0.7852
19336TIP3    H279424   4.602   6.260   1.253  2.5892  2.4185 -0.1201
19337TIP3   OH279425   6.248   0.321   2.408  0.0923 -0.1397 -1.1889
19337TIP3    H179426   6.309   0.352   2.475 -0.7921 -0.4465 -0.2187
19337TIP3    H279427   6.304   0.296   2.334  1.0716  0.3440 -0.6315
19338TIP3   OH279428   1.223   2.701   4.009  0.0828 -0.2598 -0.7805
19338TIP3    H179429   1.274   2.672   3.934  0.5570 -0.5019 -0.3736
19338TIP3    H279430   1.285   2.752   4.062  0.5339 -2.2378  0.7486
19339TIP3   OH279431   3.627   4.458  14.604  0.4457 -0.4810 -0.5431
19339TIP3    H179432   3.694   4.501  14.550 -0.5998 -0.4224 -1.8372
19339TIP3    H279433   3.631   4.366  14.579  0.5459 -0.6136 -0.0577
19340TIP3   OH279434   2.762   3.207  15.917  0.0859  0.4321 -0.2461
19340TIP3    H179435   2.718   3.122  15.904 -0.8612  0.6766  1.1878
19340TIP3    H279436   2.755   3.224  16.011 -0.2868  2.3854 -0.5811
19341TIP3   OH279437   2.036   1.153  10.353  1.0026  0.2866 -0.0756
19341TIP3    H179438   2.005   1.078  10.403  2.4524 -1.1572 -1.2454
19341TIP3    H279439   1.959   1.186  10.307  0.5853 -1.3200 -0.5621
19342TIP3   OH279440   4.299   1.289  13.611 -0.1349 -0.0305  0.4910
19342TIP3    H179441   4.232   1.295  13.679 -0.1778 -1.5400  0.6274
19342TIP3    H279442   4.350   1.211  13.636  0.6661  0.1712 -0.4832
19343TIP3   OH279443   1.979   4.331   3.358  0.5171  0.0584 -0.0912
19343TIP3    H179444   2.002   4.253   3.308  4.2664  0.4047  0.8423
19343TIP3    H279445   2.042   4.397   3.331 -1.2020  2.1680  0.7089
19344TIP3   OH279446   4.791   2.564   4.232  0.3480 -0.1714  0.1611
19344TIP3    H179447   4.740   2.641   4.206 -1.9146 -1.1705  1.3701
19344TIP3    H279448   4.880   2.596   4.243 -0.4158  2.1238  0.0253
19345TIP3   OH279449   0.246   4.569  16.952  0.6070 -0.1720  0.6366
19345TIP3    H179450   0.321   4.604  17.000  2.0622  0.8414 -2.1273
19345TIP3    H279451   0.237   4.479  16.983  0.8912  0.6461  3.3104
19346TIP3   OH279452   4.741   5.097   1.004 -0.3292  0.4191 -0.4110
19346TIP3    H179453   4.818   5.117   0.949 -1.0062  0.7289 -1.2804
19346TIP3    H279454   4.684   5.046   0.946  0.4294 -2.3483  1.1102
19347TIP3   OH279455   6.024   0.629  14.242  0.5305 -0.0033 -0.2905
19347TIP3    H179456   6.111   0.606  14.276  0.4650  0.0703 -0.0680
19347TIP3    H279457   5.990   0.693  14.306 -0.7092 -1.8424  0.9804
19348TIP3   OH279458   3.279   2.345  10.567 -0.0775 -0.0410 -1.0804
19348TIP3    H179459   3.338   2.409  10.528  2.4130 -1.3719  0.2566
19348TIP3    H279460   3.208   2.397  10.605  1.7839  1.9549 -0.1263
19349TIP3   OH279461   4.022   4.842  14.084  0.0072  0.3950 -0.0437
19349TIP3    H179462   4.068   4.885  14.013 -0.2424 -0.4758 -0.7518
19349TIP3    H279463   3.945   4.802  14.042 -0.4737  0.3899  0.8160
19350TIP3   OH279464   0.454   3.190  15.597  0.7018 -0.3013 -0.0011
19350TIP3    H179465   0.528   3.247  15.620 -0.7028  1.0021  1.6540
19350TIP3    H279466   0.493   3.113  15.557  2.9669  0.2204  1.0751
19351TIP3   OH279467   2.868   4.709  13.543 -0.7331  0.3510  0.1327
19351TIP3    H179468   2.926   4.785  13.544 -1.4097  0.8722  0.4938
19351TIP3    H279469   2.880   4.671  13.456  0.1827  0.4151  0.2184
19352TIP3   OH279470   0.563   4.491   3.679 -0.1765  0.0941 -0.0406
19352TIP3    H179471   0.479   4.519   3.643 -0.4235  0.7886  1.0098
19352TIP3    H279472   0.540   4.431   3.750  0.2788 -0.8385 -0.6591
19353TIP3   OH279473   1.226   3.784   0.794  0.3455 -0.6175 -0.3471
19353TIP3    H179474   1.277   3.772   0.714  0.0192 -1.5507 -0.4156
19353TIP3    H279475   1.292   3.806   0.860  0.6815 -0.4480 -0.7312
19354TIP3   OH279476   4.045   5.305   2.962  0.4316  0.3855  0.2251
19354TIP3    H179477   4.096   5.227   2.984 -0.0019 -0.1937 -0.7612
19354TIP3    H279478   3.975   5.272   2.905  0.2286  1.4930 -0.1851
19355TIP3   OH279479   0.788   5.481   0.840 -0.5442 -0.5696  0.0923
19355TIP3    H179480   0.762   5.431   0.917 -2.7608 -0.3819 -0.4621
19355TIP3    H279481   0.731   5.559   0.842  1.1464  0.7436 -0.3623
19356TIP3   OH279482   4.686   2.345   4.132  0.2446 -0.2455 -0.0046
19356TIP3    H179483   4.720   2.365   4.044  0.9155 -1.7455 -0.1217
19356TIP3    H279484   4.714   2.419   4.185 -1.5641  1.5184 -1.3310
19357TIP3   OH279485   3.955   0.920  11.980  0.4146 -0.0371 -0.1137
19357TIP3    H179486   3.978   0.986  11.914  0.5385 -0.2061 -0.2411
19357TIP3    H279487   3.884   0.959  12.030  0.7098  0.3338  0.0263
19358TIP3   OH279488   1.401   4.324   2.380 -0.0839 -0.2699 -0.2948
19358TIP3    H179489   1.394   4.230   2.364  0.0083 -0.3831  0.3300
19358TIP3    H279490   1.453   4.332   2.459 -1.5969  0.2459  0.6942
19359TIP3   OH279491   5.091   0.923  11.714  0.2840  0.5286  0.4747
19359TIP3    H179492   5.154   0.994  11.709  0.7770  0.0211 -1.2554
19359TIP3    H279493   5.136   0.853  11.761 -0.4913  1.5636  2.9466
19360TIP3   OH279494   3.347   1.510   2.571  0.3241 -0.4031  0.3483
19360TIP3    H179495   3.321   1.599   2.547  2.7607  0.5957  1.0775
19360TIP3    H279496   3.265   1.461   2.575 -1.0618  1.7293 -0.3521
19361TIP3   OH279497   4.218   2.279  12.874 -0.2730 -0.3468  0.1790
19361TIP3    H179498   4.145   2.247  12.821  0.9142 -1.6938 -0.7306
19361TIP3    H279499   4.223   2.372  12.854 -0.6094 -0.5999 -1.1785
19362TIP3   OH279500   1.356   3.195  12.219 -0.1087 -0.0557  0.1745
19362TIP3    H179501   1.406   3.117  12.196 -0.1706 -0.2958  0.8430
19362TIP3    H279502   1.423   3.262  12.236 -0.0408 -0.1697  0.3459
19363TIP3   OH279503   1.086   0.176   3.075 -0.4603  0.0165 -0.2135
19363TIP3    H179504   0.998   0.139   3.077 -1.2951  1.8343 -0.9232
19363TIP3    H279505   1.115   0.165   2.984 -1.0760  1.7878 -0.6597
19364TIP3   OH279506   5.451   0.400   4.361 -0.1272  0.1569 -0.1162
19364TIP3    H179507   5.539   0.424   4.388 -0.3005  1.8474 -0.9482
19364TIP3    H279508   5.461   0.372   4.270 -0.3903 -0.0755 -0.0744
19365TIP3   OH279509   2.516   3.918  11.164 -0.0050 -0.2510  0.2624
19365TIP3    H179510   2.452   3.927  11.236 -1.7931 -0.8608 -1.1765
19365TIP3    H279511   2.500   3.830  11.130  1.0584 -0.0886 -0.6700
19366TIP3   OH279512   0.567   2.097  14.396 -0.0949 -0.0168  0.0177
19366TIP3    H179513   0.658   2.084  14.371  0.0664  2.0705 -0.6466
19366TIP3    H279514   0.522   2.115  14.314 -1.3137 -1.7868  0.2292
19367TIP3   OH279515   1.346   6.292  11.899  0.3708  0.4776  0.6950
19367TIP3    H179516   1.275   6.332  11.849  0.9359 -1.3001 -1.7006
19367TIP3    H279517   1.385   6.365  11.948 -0.9792  2.0944 -0.5289
19368TIP3   OH279518   1.386   1.406  11.307 -0.4033 -0.7744 -0.4183
19368TIP3    H179519   1.364   1.313  11.296 -1.7841 -0.5015 -0.2301
19368TIP3    H279520   1.314   1.441  11.360 -0.0531  0.4692 -0.7378
19369TIP3   OH279521   3.791   6.012  12.696  0.4537 -0.2902  0.7359
19369TIP3    H179522   3.878   5.986  12.664  0.5402  1.6832 -0.8229
19369TIP3    H279523   3.807   6.086  12.754 -0.1562  0.0029  0.5444
19370TIP3   OH279524   6.060   2.321  11.026 -0.1684  0.0233 -0.1919
19370TIP3    H179525   6.049   2.289  11.115 -1.5966 -1.4398 -0.8491
19370TIP3    H279526   6.060   2.241  10.972 -0.7429  0.9624 -1.6276
19371TIP3   OH279527   5.968   5.342   3.778  0.5895  0.0774  0.0706
19371TIP3    H179528   5.987   5.248   3.773  0.9326  0.2024 -1.7932
19371TIP3    H279529   5.881   5.350   3.737 -0.5735  0.3304  2.3977
19372TIP3   OH279530   0.710   4.989   1.038  0.2995  0.2335 -0.1290
19372TIP3    H179531   0.618   5.014   1.040  0.4092  0.6170  0.9799
19372TIP3    H279532   0.740   5.000   1.128  1.8534  1.7197 -0.7666
19373TIP3   OH279533   6.373   4.002   5.909 -0.5924 -0.5100  0.5049
19373TIP3    H179534   6.397   3.990   6.001  1.1853  1.6102  0.3905
19373TIP3    H279535   6.291   4.052   5.912  0.5160  1.3555  0.9946
19374TIP3   OH279536   3.762   6.738   1.946 -0.5874  0.7537 -0.1005
19374TIP3    H179537   3.833   6.801   1.957 -0.3902  0.7670 -1.2592
19374TIP3    H279538   3.685   6.782   1.980  0.0415  0.5192  1.7314
19375TIP3   OH279539   4.310   3.361  15.586  0.1944  0.6233  0.2405
19375TIP3    H179540   4.232   3.325  15.629 -0.6195  0.6169 -1.1601
19375TIP3    H279541   4.283   3.447  15.556  0.5256  0.3962 -0.7651
19376TIP3   OH279542   1.365   3.234   2.391 -0.5455 -0.0518 -0.1533
19376TIP3    H179543   1.344   3.241   2.484  0.0499  1.8512 -0.1179
19376TIP3    H279544   1.287   3.267   2.346 -2.2578 -4.0625 -0.5947
19377TIP3   OH279545   5.246   0.556  14.206 -0.3273  0.3451  0.0985
19377TIP3    H179546   5.331   0.514  14.192  0.0871  1.5263 -1.1306
19377TIP3    H279547   5.187   0.483  14.223  0.8018 -0.5500  0.3341
19378TIP3   OH279548   1.285   2.494  14.318  0.4447  0.1790 -0.2930
19378TIP3    H179549   1.213   2.507  14.380  0.5335 -0.0691 -0.1379
19378TIP3    H279550   1.292   2.399  14.309  0.3428  0.2148 -0.7908
19379TIP3   OH279551   1.604   1.434  16.015  0.0264  0.1777  0.2863
19379TIP3    H179552   1.607   1.355  15.962 -0.6923  1.4004 -1.6573
19379TIP3    H279553   1.511   1.449  16.032  0.0207  1.4114 -0.6848
19380TIP3   OH279554   1.982   4.753   5.971  0.0569 -0.2304  0.1290
19380TIP3    H179555   1.977   4.701   5.890 -1.0358 -0.4898  0.3469
19380TIP3    H279556   1.921   4.825   5.957 -1.1327 -0.9846  1.1931
19381TIP3   OH279557   2.489   5.023   9.996  0.9980  0.0211  0.2394
19381TIP3    H179558   2.570   4.979  10.023  0.1781  0.0055  3.0100
19381TIP3    H279559   2.420   4.982  10.048 -0.4650  1.5670 -0.3542
19382TIP3   OH279560   4.857   1.011  12.247  0.4582  0.3455 -0.3692
19382TIP3    H179561   4.879   1.101  12.221 -0.4339  0.3720 -1.0859
19382TIP3    H279562   4.791   0.983  12.184  1.3628 -1.1519 -0.6929
19383TIP3   OH279563   3.689   1.131   5.110 -0.2983 -0.1376  0.1196
19383TIP3    H179564   3.769   1.123   5.161 -0.1517  1.6339  0.2554
19383TIP3    H279565   3.620   1.096   5.166  0.0901  0.3395  0.9139
19384TIP3   OH279566   5.450   2.214   0.936 -0.8709 -0.0258  0.4182
19384TIP3    H179567   5.419   2.304   0.935 -1.9658 -0.3808 -0.5130
19384TIP3    H279568   5.390   2.168   0.878  1.6131 -0.6944 -1.8391
19385TIP3   OH279569   5.972   6.378  12.584  0.3519  0.1533  0.1284
19385TIP3    H179570   6.023   6.436  12.527  0.0876  0.5753  0.3136
19385TIP3    H279571   6.034   6.354  12.654  0.4354  0.3010  0.1079
19386TIP3   OH279572   3.591   5.257  15.645 -0.5844 -0.4482  0.0192
19386TIP3    H179573   3.589   5.340  15.694 -2.7698 -1.1171  1.2291
19386TIP3    H279574   3.676   5.218  15.667 -0.2832  0.6457  0.9084
19387TIP3   OH279575   0.806   5.837   5.229 -0.2735 -0.3733  0.2356
19387TIP3    H179576   0.853   5.754   5.226  0.7187  0.0716  1.9045
19387TIP3    H279577   0.869   5.902   5.198 -0.3639  0.0070  0.8366
19388TIP3   OH279578   6.583   0.065  13.038  0.2290 -0.3966 -0.1487
19388TIP3    H179579   6.596  -0.022  13.076 -0.6353 -0.2831  0.4339
19388TIP3    H279580   6.587   0.125  13.113 -0.8383 -0.1038 -0.3212
19389TIP3   OH279581   1.430   3.013  14.878 -0.1449  0.3222 -0.0952
19389TIP3    H179582   1.456   2.928  14.914  0.8619  1.0356  0.9456
19389TIP3    H279583   1.361   3.043  14.937 -0.0064  0.5342 -0.0397
19390TIP3   OH279584   1.582   4.439  15.561  0.0585  0.0506 -0.5528
19390TIP3    H179585   1.618   4.514  15.610  0.7973 -0.5040 -0.2313
19390TIP3    H279586   1.571   4.472  15.472  0.7156  0.4467 -0.4979
19391TIP3   OH279587   1.654   4.487  16.260 -1.1596  0.4149  0.1457
19391TIP3    H179588   1.669   4.425  16.189  2.9648  0.2572  0.8929
19391TIP3    H279589   1.626   4.433  16.333  4.4951 -1.4286  1.4817
19392TIP3   OH279590   2.030   1.488   3.700 -0.0268 -0.3151  0.2546
19392TIP3    H179591   2.093   1.441   3.756  0.1572 -1.2418 -0.6932
19392TIP3    H279592   1.978   1.418   3.660 -1.6153  0.4334  0.9483
19393TIP3   OH279593   5.790   1.900   3.136  0.5604 -0.5282  0.3644
19393TIP3    H179594   5.739   1.835   3.087 -1.3427  1.6709 -0.7558
19393TIP3    H279595   5.778   1.982   3.088 -0.5096  1.5769  3.8506
19394TIP3   OH279596   0.498   3.416   6.469 -0.0304 -0.4099  0.1373
19394TIP3    H179597   0.505   3.321   6.477 -0.0853 -0.4668 -0.4362
19394TIP3    H279598   0.568   3.451   6.523  0.8435 -0.8146 -0.7066
19395TIP3   OH279599   1.007   1.425  15.980  0.4410 -0.0300 -0.1241
19395TIP3    H179600   0.950   1.366  16.030  0.5263  1.2601  1.5879
19395TIP3    H279601   0.948   1.469  15.919 -0.2528  0.4961  0.8883
19396TIP3   OH279602   0.013   2.135  11.226  0.0083  0.0103  0.0756
19396TIP3    H179603   0.053   2.057  11.189  0.4994  0.3565 -0.1503
19396TIP3    H279604   0.027   2.203  11.159 -0.7740  0.1937  0.0889
19397TIP3   OH279605   4.415   1.437  10.923 -0.1422  0.2071  0.1734
19397TIP3    H179606   4.415   1.347  10.890 -0.4307 -0.0902  0.9725
19397TIP3    H279607   4.493   1.477  10.883  0.9010 -0.8600  1.0542
19398TIP3   OH279608   6.596   5.425  13.842 -0.6887  0.0822  0.1260
19398TIP3    H179609   6.511   5.420  13.887 -0.8478  0.8642 -0.0706
19398TIP3    H279610   6.637   5.340  13.859 -1.5249 -0.3268  0.1938
19399TIP3   OH279611   4.395   6.276   0.228 -0.6763 -0.0727  0.2631
19399TIP3    H179612   4.363   6.362   0.255 -1.7239 -0.2806 -0.2814
19399TIP3    H279613   4.468   6.259   0.288 -0.7507  0.9813  0.6889
19400TIP3   OH279614   1.211   3.635  14.462 -0.1584  0.1809 -0.3112
19400TIP3    H179615   1.305   3.645  14.448 -0.0824 -0.4335 -0.2474
19400TIP3    H279616   1.202   3.609  14.553 -0.4918  1.6332  0.0962
19401TIP3   OH279617   3.715   6.522   4.327  0.0045 -0.5985 -0.3985
19401TIP3    H179618   3.787   6.460   4.321  2.0887  1.7134 -0.8184
19401TIP3    H279619   3.664   6.507   4.248  1.4576 -0.6490 -1.3718
19402TIP3   OH279620   4.122   1.512  14.968  0.1500  0.6363 -0.2990
19402TIP3    H179621   4.096   1.456  15.041 -1.2623  1.3768 -0.1967
19402TIP3    H279622   4.062   1.587  14.972  0.9517  1.3744 -1.3835
19403TIP3   OH279623   1.734   2.159  16.283 -0.5658  0.9470 -0.3715
19403TIP3    H179624   1.680   2.082  16.267 -2.9583  2.3519  0.4471
19403TIP3    H279625   1.684   2.232  16.245  1.9436  2.0861 -1.7548
19404TIP3   OH279626   5.582   0.296   1.300  0.3797  0.2634  0.5273
19404TIP3    H179627   5.636   0.272   1.376  1.7602  2.7017  0.4104
19404TIP3    H279628   5.599   0.226   1.237 -0.8804 -1.8819  2.4108
19405TIP3   OH279629   5.041   0.760   1.400 -0.1317  0.6374 -0.5608
19405TIP3    H179630   5.090   0.708   1.336 -0.5980 -0.9051  0.2755
19405TIP3    H279631   5.087   0.844   1.403  0.0947  0.6253 -2.6408
19406TIP3   OH279632   4.946   6.632   4.008  0.2264 -0.1156  0.4522
19406TIP3    H179633   4.865   6.673   4.037  0.0109 -0.3139  0.1442
19406TIP3    H279634   5.015   6.675   4.058  0.0467  0.9368 -0.1787
19407TIP3   OH279635   2.261   0.122   0.108 -0.0424  0.2448  0.7797
19407TIP3    H179636   2.225   0.178   0.039 -0.1484  0.5443  1.0800
19407TIP3    H279637   2.352   0.108   0.083 -0.4736 -0.9447 -0.2728
19408TIP3   OH279638   0.103   2.683  11.437  0.1302 -0.0507  0.2110
19408TIP3    H179639   0.142   2.662  11.352 -0.6670 -0.6251 -0.0212
19408TIP3    H279640   0.029   2.623  11.445 -0.1427  0.3859  1.0623
19409TIP3   OH279641   6.629   4.673   3.897 -0.0023  0.1842  0.1529
19409TIP3    H179642   6.636   4.594   3.950  0.5346 -1.5872 -2.3667
19409TIP3    H279643   6.715   4.715   3.905 -0.7538  1.4064  2.6699
19410TIP3   OH279644   5.079   3.995  14.745 -0.3481 -0.2358  0.9472
19410TIP3    H179645   5.103   4.064  14.684 -0.2883 -0.7183  0.4085
19410TIP3    H279646   5.010   4.033  14.800 -0.1049  0.3396  0.8564
19411TIP3   OH279647   0.336   4.768   3.756  0.3350  0.2762 -0.5619
19411TIP3    H179648   0.375   4.852   3.730 -0.6383  0.4133 -1.6656
19411TIP3    H279649   0.344   4.713   3.678 -0.4632 -0.1296 -0.3643
19412TIP3   OH279650   6.187   4.385  14.721  0.0507  0.7366 -1.2131
19412TIP3    H179651   6.107   4.350  14.760 -0.3475  1.3283 -1.4741
19412TIP3    H279652   6.201   4.330  14.643  0.8757 -0.4742 -0.2503
19413TIP3   OH279653   0.492   0.606   2.294  0.2275  0.0729  0.1332
19413TIP3    H179654   0.455   0.672   2.353  3.5780  0.7024  1.7921
19413TIP3    H279655   0.512   0.532   2.351 -1.5108 -1.5992 -1.3289
19414TIP3   OH279656   4.934   1.537  12.273 -0.0367 -0.3454 -0.3582
19414TIP3    H179657   4.992   1.603  12.310  1.4716 -0.9426 -1.5553
19414TIP3    H279658   4.870   1.519  12.342 -0.4762  2.3031  0.0037
19415TIP3   OH279659   1.597   2.673  11.212  0.0136 -0.0548  0.2283
19415TIP3    H179660   1.511   2.644  11.242 -0.4695 -0.1257 -1.1755
19415TIP3    H279661   1.605   2.762  11.247 -0.0078 -0.5478  1.5491
19416TIP3   OH279662   4.438   3.508   1.778  0.2942  0.3885 -0.3762
19416TIP3    H179663   4.507   3.450   1.810 -1.6165 -0.5912  2.2323
19416TIP3    H279664   4.480   3.557   1.707  3.9981  0.6166  1.7075
19417TIP3   OH279665   1.079   4.480  17.129 -0.5061 -1.0466 -0.5006
19417TIP3    H179666   1.006   4.431  17.090 -1.6591 -0.0540  0.3316
19417TIP3    H279667   1.098   4.550  17.067 -0.6540 -0.9594 -0.4479
19418TIP3   OH279668   1.412   0.150  14.578  0.6203 -0.3449  0.3455
19418TIP3    H179669   1.401   0.216  14.646  0.5088  1.0211 -0.9320
19418TIP3    H279670   1.335   0.093  14.588  0.2535  0.2347  0.9298
19419TIP3   OH279671   1.750   1.050   2.041  0.1517  0.6107 -0.0565
19419TIP3    H179672   1.667   1.007   2.023  0.6471 -0.6678  0.5505
19419TIP3    H279673   1.795   1.053   1.957  0.5745 -1.1628  0.0590
19420TIP3   OH279674   2.979   4.669   3.178  0.2594  0.2461  0.4356
19420TIP3    H179675   2.950   4.748   3.132 -1.3909 -0.2200  0.6069
19420TIP3    H279676   3.069   4.655   3.148  0.9286  2.6794  1.0850
19421TIP3   OH279677   2.991   1.309   2.197 -0.0178  0.2940  0.1068
19421TIP3    H179678   3.080   1.340   2.212  0.7550 -0.6407 -2.0740
19421TIP3    H279679   2.937   1.360   2.258  1.8549  1.6343  0.7495
19422TIP3   OH279680   5.788   0.521   4.967 -0.2476 -0.1599 -0.5913
19422TIP3    H179681   5.870   0.473   4.955  0.0283  0.2980 -0.5761
19422TIP3    H279682   5.759   0.498   5.056  0.7319  0.9509  0.0496
19423TIP3   OH279683   4.094   3.270  12.064  0.2991 -0.0568  0.4823
19423TIP3    H179684   4.125   3.275  11.973  0.4381  0.5250  0.5582
19423TIP3    H279685   4.173   3.279  12.117  0.2199 -0.4144  0.6654
19424TIP3   OH279686   5.476   0.234   1.909  0.0807 -0.3961  0.7456
19424TIP3    H179687   5.550   0.201   1.961 -0.5954 -2.3058  0.5423
19424TIP3    H279688   5.512   0.242   1.821  0.7272  1.1437  1.1129
19425TIP3   OH279689   6.512   6.132   4.726 -0.4110 -0.0696 -0.0154
19425TIP3    H179690   6.479   6.108   4.639 -3.1112 -1.4698  1.2720
19425TIP3    H279691   6.576   6.065   4.747 -0.5930 -0.3816 -0.4385
19426TIP3   OH279692   2.730   3.908   5.628 -0.2683  0.6997 -0.0089
19426TIP3    H179693   2.656   3.965   5.607 -0.1695  0.7509 -0.2209
19426TIP3    H279694   2.698   3.853   5.699  0.2872  2.3923  1.6424
19427TIP3   OH279695   0.779   4.979   5.272 -0.1882  0.0158 -0.1602
19427TIP3    H179696   0.824   4.991   5.189 -0.0258  1.2883  0.0968
19427TIP3    H279697   0.716   4.909   5.256 -0.4956  0.5830 -1.4797
19428TIP3   OH279698   1.390   5.286  10.743 -0.1485 -0.0604 -0.0968
19428TIP3    H179699   1.363   5.375  10.764  0.1096 -0.0884  0.3779
19428TIP3    H279700   1.389   5.282  10.647 -0.6049  0.3103 -0.1094
19429TIP3   OH279701   2.204   5.579  10.728  0.4649 -0.0852  0.1371
19429TIP3    H179702   2.176   5.665  10.696  0.0489  0.5427  2.0515
19429TIP3    H279703   2.138   5.518  10.694  0.5166  0.4113 -0.8762
19430TIP3   OH279704   4.740   4.976   2.440 -0.5498  0.2348 -0.4773
19430TIP3    H179705   4.670   4.914   2.461  0.0501  0.3424  2.0972
19430TIP3    H279706   4.809   4.922   2.401 -1.4170 -0.1014 -1.6127
19431TIP3   OH279707   6.375   1.377  11.235  0.2695 -0.6302 -0.1094
19431TIP3    H179708   6.348   1.383  11.144 -0.6105 -0.9787  0.1178
19431TIP3    H279709   6.466   1.408  11.236 -0.6814  2.4879 -0.6144
19432TIP3   OH279710   6.244   0.879  14.269  1.0827  0.0663  0.3006
19432TIP3    H179711   6.284   0.940  14.330 -0.5899  2.4698 -0.8699
19432TIP3    H279712   6.160   0.855  14.309  1.1799 -0.5069  0.1739
19433TIP3   OH279713   2.170   6.640  12.507  0.3869  0.4671  0.2704
19433TIP3    H179714   2.107   6.702  12.544 -0.7846 -1.0120  0.8859
19433TIP3    H279715   2.252   6.658  12.554  0.3681  2.1603 -0.2634
19434TIP3   OH279716   4.178   1.296  15.946  0.0778  0.4879 -0.2876
19434TIP3    H179717   4.248   1.311  15.882 -0.1231 -3.5618 -1.7043
19434TIP3    H279718   4.111   1.247  15.897 -1.7579  0.3527  2.1833
19435TIP3   OH279719   1.128   2.668   1.304 -0.1755 -0.3802 -0.1441
19435TIP3    H179720   1.184   2.650   1.380 -0.8017 -0.1511  0.3909
19435TIP3    H279721   1.134   2.763   1.291  1.4507 -0.6409 -1.6231
19436TIP3   OH279722   2.478   5.637   0.254  0.3247 -0.0321 -0.0867
19436TIP3    H179723   2.536   5.644   0.330  1.3538 -1.7596 -0.6406
19436TIP3    H279724   2.522   5.575   0.197 -0.2755  1.4556 -2.2683
19437TIP3   OH279725   5.534   3.735   5.427  0.0221  0.1058  0.1644
19437TIP3    H179726   5.552   3.656   5.376 -0.3052 -1.0399  1.7582
19437TIP3    H279727   5.526   3.805   5.361 -0.6976 -1.3557 -1.3767
19438TIP3   OH279728   2.874   2.929  10.607 -0.1037  0.5722 -0.1945
19438TIP3    H179729   2.889   2.949  10.515  2.8679  1.9329  0.4557
19438TIP3    H279730   2.846   2.838  10.608  1.4223  0.0157 -2.3405
19439TIP3   OH279731   3.555   2.594  15.968  0.0035  0.0141  0.3892
19439TIP3    H179732   3.467   2.611  16.001 -0.2962  1.1144 -0.8805
19439TIP3    H279733   3.608   2.665  16.004 -0.4144  1.4810 -1.7012
19440TIP3   OH279734   6.678   3.559   3.117  0.5354 -0.2752  0.1334
19440TIP3    H179735   6.747   3.500   3.088  0.7153  1.0438 -2.4514
19440TIP3    H279736   6.605   3.544   3.056 -0.9763 -0.6454  1.9395
19441TIP3   OH279737   5.291   1.044  16.018 -0.4115 -0.2114 -0.1819
19441TIP3    H179738   5.286   0.950  15.999 -1.8351 -0.5538  1.6489
19441TIP3    H279739   5.376   1.056  16.059 -0.4096 -0.7782 -0.0138
19442TIP3   OH279740   1.218   2.164  13.768 -0.1402  0.0833 -0.7759
19442TIP3    H179741   1.214   2.126  13.681 -1.5662  0.7082 -1.0072
19442TIP3    H279742   1.209   2.258  13.754  0.4088  0.2578 -0.0118
19443TIP3   OH279743   3.241   0.579  16.123  0.4544 -0.5034  0.1832
19443TIP3    H179744   3.334   0.558  16.126  0.7712  0.8925  2.2661
19443TIP3    H279745   3.238   0.664  16.079  0.2096 -0.3027  0.5921
19444TIP3   OH279746   2.948   0.669   1.367  0.7209  0.0917 -0.0407
19444TIP3    H179747   2.901   0.594   1.405  0.6310  0.1467 -0.0435
19444TIP3    H279748   2.881   0.736   1.355  0.8550  0.2693  0.2136
19445TIP3   OH279749   4.405   0.363  15.098  0.1467  0.1275  0.1913
19445TIP3    H179750   4.347   0.430  15.062 -1.1177 -0.0068  1.8623
19445TIP3    H279751   4.486   0.410  15.119  0.2492  0.5600 -1.0690
19446TIP3   OH279752   1.312   2.270   1.444  0.7096 -0.2373 -0.6359
19446TIP3    H179753   1.233   2.257   1.391  0.8951 -0.2876 -0.9008
19446TIP3    H279754   1.355   2.345   1.405 -0.5988  1.5605  1.1749
19447TIP3   OH279755   2.628   4.807  12.155 -0.1100 -0.2513 -0.7015
19447TIP3    H179756   2.645   4.837  12.066 -1.8570  0.0431 -0.9849
19447TIP3    H279757   2.644   4.713  12.152 -2.1812 -0.6291 -1.9437
19448TIP3   OH279758   5.487   4.837  11.926 -0.0105 -0.6879 -1.0216
19448TIP3    H179759   5.433   4.779  11.874  1.6194 -0.6418 -2.8771
19448TIP3    H279760   5.577   4.814  11.901  0.7698  0.5447  0.4955
19449TIP3   OH279761   4.144   5.729   5.201  0.3661 -0.3265 -0.3363
19449TIP3    H179762   4.120   5.639   5.181 -0.9793  0.1503 -1.0409
19449TIP3    H279763   4.147   5.772   5.115  1.0474  0.2893 -0.0180
19450TIP3   OH279764   1.785   6.062  13.734  0.3119  0.1768 -0.6236
19450TIP3    H179765   1.862   6.097  13.688  0.1405  0.0138 -1.0388
19450TIP3    H279766   1.710   6.093  13.683  0.1219 -0.0370 -0.4750
19451TIP3   OH279767   2.031   5.938  14.266  0.2603  0.1916 -0.1781
19451TIP3    H179768   2.014   6.032  14.272  1.5695  0.4149  0.4958
19451TIP3    H279769   2.108   5.931  14.210 -0.7044 -0.6045 -1.4422
19452TIP3   OH279770   5.927   2.513  16.535 -0.0537 -0.3549  0.5534
19452TIP3    H179771   5.991   2.553  16.476 -0.8340 -1.2146 -0.9216
19452TIP3    H279772   5.847   2.506  16.483 -0.6024 -1.7033  1.5189
19453TIP3   OH279773   6.263   2.020  15.662 -0.2120 -0.2686  0.1949
19453TIP3    H179774   6.336   1.963  15.639  0.1658 -1.0175  2.9040
19453TIP3    H279775   6.304   2.095  15.705 -1.0082 -0.5788  1.5186
19454TIP3   OH279776   5.302   2.920   2.519 -0.0479  0.4621 -0.1629
19454TIP3    H179777   5.236   2.983   2.490 -0.5310  0.0046 -0.0670
19454TIP3    H279778   5.266   2.882   2.599 -0.0056 -0.3248 -0.5119
19455TIP3   OH279779   6.261   4.678   0.890 -0.9789  0.0958 -0.0230
19455TIP3    H179780   6.319   4.748   0.862 -1.4829  0.2609 -0.6620
19455TIP3    H279781   6.233   4.636   0.809 -1.6703 -0.0448  0.2856
19456TIP3   OH279782   4.131   3.334   0.192  0.4854 -0.3541 -0.4296
19456TIP3    H179783   4.130   3.420   0.234  0.3809 -1.1944  1.3469
19456TIP3    H279784   4.056   3.336   0.132  0.8349  0.9744 -0.8560
19457TIP3   OH279785   3.524   0.720  16.833  0.1580 -0.3609 -0.0832
19457TIP3    H179786   3.431   0.728  16.857 -0.5722  1.7037 -3.0239
19457TIP3    H279787   3.530   0.632  16.795 -0.3369 -0.9047  1.0602
19458TIP3   OH279788   6.423   5.695   4.904  0.1960 -0.0053  0.0103
19458TIP3    H179789   6.389   5.658   4.985 -0.5835 -1.4484 -0.9408
19458TIP3    H279790   6.490   5.757   4.933 -1.5475  1.1299  1.8226
19459TIP3   OH279791   6.614   5.996  14.980 -0.2588  0.2150  0.0779
19459TIP3    H179792   6.575   6.075  14.943 -2.1926 -0.2807  0.9690
19459TIP3    H279793   6.672   5.963  14.911 -0.8558  1.3809 -1.0185
19460TIP3   OH279794   1.868   5.515   3.143 -0.1583 -0.0439  0.2002
19460TIP3    H179795   1.823   5.445   3.095 -2.6898  0.3797  1.7508
19460TIP3    H279796   1.821   5.595   3.117 -0.4380  0.4134  1.9632
19461TIP3   OH279797   5.203   1.568  14.577 -0.2300 -0.1291  0.2840
19461TIP3    H179798   5.256   1.627  14.524  0.3152 -1.5473 -0.8265
19461TIP3    H279799   5.130   1.545  14.520 -1.0607  0.3520  1.1309
19462TIP3   OH279800   6.135   1.979  16.381 -0.0958 -0.6972 -0.6617
19462TIP3    H179801   6.228   1.959  16.371  0.6401  2.3969 -1.1879
19462TIP3    H279802   6.130   2.026  16.464 -1.3357 -1.3763 -0.3296
19463TIP3   OH279803   6.499   3.871  12.298  0.1800  0.2098  0.1670
19463TIP3    H179804   6.531   3.786  12.269 -0.5486 -0.2787  0.7676
19463TIP3    H279805   6.479   3.918  12.217  0.4836 -0.2244 -0.1679
19464TIP3   OH279806   2.208   5.686  14.631 -0.2075  0.0008  0.2331
19464TIP3    H179807   2.279   5.717  14.687  0.0243 -1.9369  1.1125
19464TIP3    H279808   2.226   5.593  14.620 -2.2615 -0.4034 -0.0654
19465TIP3   OH279809   6.268   5.102  16.358  0.7349 -0.0399  0.2570
19465TIP3    H179810   6.288   5.069  16.445 -1.5633 -1.4371  0.3330
19465TIP3    H279811   6.258   5.197  16.369 -0.3959 -0.3041  1.7092
19466TIP3   OH279812   5.686   0.902  14.562 -0.4562 -0.0118 -0.3679
19466TIP3    H179813   5.771   0.892  14.518 -1.0213 -0.6287 -1.3527
19466TIP3    H279814   5.682   0.828  14.623 -1.3793 -1.6022 -2.2232
19467TIP3   OH279815   0.737   4.547  10.807  0.3698  0.0607 -0.8551
19467TIP3    H179816   0.712   4.487  10.737  0.0432  1.7880 -2.2972
19467TIP3    H279817   0.829   4.568  10.789  0.5787 -0.2370 -0.1701
19468TIP3   OH279818   2.226   4.245   1.968  0.0902  0.0522  0.0798
19468TIP3    H179819   2.215   4.270   1.877  2.6173 -2.1604 -0.9418
19468TIP3    H279820   2.321   4.240   1.981 -0.1969 -0.0401  2.7369
19469TIP3   OH279821   1.052   0.522   1.544 -0.0168  0.1319 -0.5672
19469TIP3    H179822   1.012   0.458   1.603 -0.7812  1.4808  0.4229
19469TIP3    H279823   1.052   0.604   1.593  1.8044  0.7130 -1.4617
19470TIP3   OH279824   4.964   1.104  11.963  0.0557 -0.7551  0.6048
19470TIP3    H179825   4.989   1.078  11.874  1.7393  0.4878  0.6599
19470TIP3    H279826   5.014   1.044  12.019 -2.1404 -2.5455  0.7908
19471TIP3   OH279827   3.918   1.715  16.162 -0.1237 -0.1555 -0.4830
19471TIP3    H179828   3.961   1.655  16.102 -1.1570 -0.7600 -0.6374
19471TIP3    H279829   3.918   1.668  16.246  1.0620  0.5675 -0.0533
19472TIP3   OH279830   5.997   2.223   3.158 -0.0521 -0.4022  0.3993
19472TIP3    H179831   5.976   2.150   3.216 -1.7580 -1.5025 -1.5028
19472TIP3    H279832   5.939   2.212   3.083 -0.0479  2.6555 -0.1815
19473TIP3   OH279833   5.346   3.556  16.106  0.0302  0.0036 -0.2253
19473TIP3    H179834   5.289   3.502  16.051 -1.3262  0.6222  0.5105
19473TIP3    H279835   5.370   3.630  16.051 -1.5484  0.7657  0.0627
19474TIP3   OH279836   5.128   2.590  14.050 -0.1871 -0.0242  0.2873
19474TIP3    H179837   5.140   2.653  14.121 -0.0553  1.9892 -1.4587
19474TIP3    H279838   5.043   2.611  14.012  0.5327  0.1696 -1.3065
19475TIP3   OH279839   0.350   2.630   0.540 -0.2757 -0.1510 -0.1651
19475TIP3    H179840   0.302   2.547   0.541  1.2461 -1.0988 -1.1904
19475TIP3    H279841   0.425   2.616   0.598 -0.6779  0.9603  0.6486
19476TIP3   OH279842   4.270   5.845   2.692  0.0711 -0.6196  0.4157
19476TIP3    H179843   4.280   5.928   2.741 -0.8876 -0.2879  0.0627
19476TIP3    H279844   4.308   5.864   2.606  1.9093 -1.2530  1.0282
19477TIP3   OH279845   4.404   6.650  10.931 -0.7385 -0.1245  0.5227
19477TIP3    H179846   4.497   6.638  10.910 -0.8905  1.5165 -1.3991
19477TIP3    H279847   4.380   6.730  10.885 -3.1774 -0.6365  0.8107
19478TIP3   OH279848   1.419   5.391   5.553  0.2473  0.2870 -0.5296
19478TIP3    H179849   1.324   5.382   5.546  0.3394  0.5292 -2.7764
19478TIP3    H279850   1.441   5.467   5.500  1.6388  0.8685  0.7734
19479TIP3   OH279851   0.787   3.503  12.069  0.1719  0.2971 -0.1520
19479TIP3    H179852   0.841   3.475  11.995 -0.4948  2.1490 -1.3799
19479TIP3    H279853   0.700   3.514  12.033 -0.1590  1.2573  0.8992
19480TIP3   OH279854   3.568   6.188   5.620  0.0256 -0.1699 -0.3098
19480TIP3    H179855   3.574   6.220   5.709  0.6624 -0.9003 -0.0786
19480TIP3    H279856   3.606   6.258   5.566 -0.9298  0.5355 -0.0848
19481TIP3   OH279857   6.123   6.314   1.430  0.0630  0.5122  0.1511
19481TIP3    H179858   6.029   6.304   1.449  0.0686  1.8555  0.9824
19481TIP3    H279859   6.152   6.225   1.408 -0.7472 -0.5756  2.9343
19482TIP3   OH279860   4.357   0.776   0.728 -0.4193  0.1789  0.8414
19482TIP3    H179861   4.274   0.808   0.693  0.0661  2.6283  1.6783
19482TIP3    H279862   4.405   0.743   0.652 -1.7118 -0.1881  0.1748
19483TIP3   OH279863   1.149   3.622   4.327  0.7025  0.0675 -0.1868
19483TIP3    H179864   1.228   3.574   4.353  0.0239 -1.2506 -0.4852
19483TIP3    H279865   1.097   3.628   4.407  0.9366  0.6438 -0.0682
19484TIP3   OH279866   0.184   2.013  13.949  0.1567 -0.3947 -0.0782
19484TIP3    H179867   0.191   1.919  13.936 -1.6559 -0.3988 -1.2773
19484TIP3    H279868   0.244   2.051  13.884  1.6119 -0.6824  1.0287
19485TIP3   OH279869   4.749   2.084   5.945 -0.3631  0.0214  0.1631
19485TIP3    H179870   4.668   2.130   5.923 -1.2093 -1.7386 -0.6285
19485TIP3    H279871   4.719   2.001   5.982  1.0953 -0.5983 -0.0148
19486TIP3   OH279872   2.666   5.306  11.171 -0.6285 -0.1093 -0.0276
19486TIP3    H179873   2.747   5.355  11.186 -0.5885 -0.3218  0.4746
19486TIP3    H279874   2.677   5.226  11.222 -1.5342  0.2688  0.7839
19487TIP3   OH279875   6.417   0.198  11.837  0.1910  0.0328  0.6988
19487TIP3    H179876   6.467   0.192  11.756  1.9404 -1.7386  1.8176
19487TIP3    H279877   6.478   0.237  11.900 -0.6161 -0.0220  1.5339
19488TIP3   OH279878   0.019   3.732   3.800  0.3915 -0.2897  0.1349
19488TIP3    H179879   0.014   3.637   3.805  0.5396 -0.3379 -0.5578
19488TIP3    H279880   0.102   3.754   3.841  1.7100 -0.6877 -2.1617
19489TIP3   OH279881   1.449   6.126  13.954  0.0108  0.1030 -0.2425
19489TIP3    H179882   1.418   6.110  13.865 -1.4405  0.2580  0.2134
19489TIP3    H279883   1.381   6.180  13.994  1.8702  2.3151  0.1657
19490TIP3   OH279884   5.258   3.779  14.610  0.3710  0.5759  0.0360
19490TIP3    H179885   5.187   3.827  14.653 -0.2327  0.5395 -0.8810
19490TIP3    H279886   5.259   3.814  14.521  0.1892 -0.8206 -0.5374
19491TIP3   OH279887   0.491   5.252   5.702 -0.2906 -0.1062  0.3178
19491TIP3    H179888   0.502   5.303   5.781  1.4894  0.5036 -0.2650
19491TIP3    H279889   0.399   5.226   5.701 -1.1683  2.7350  0.8412
19492TIP3   OH279890   1.099   6.682  13.918 -0.6698  0.0651 -0.4144
19492TIP3    H179891   1.131   6.617  13.856  0.2819 -0.0856  0.2179
19492TIP3    H279892   1.010   6.653  13.939  0.2045 -1.8643  0.9206
19493TIP3   OH279893   2.989   6.284   4.384  0.8777  0.4534  0.6861
19493TIP3    H179894   3.064   6.340   4.404  0.3609  0.4992  2.8085
19493TIP3    H279895   3.022   6.218   4.324  1.8691  2.1512 -0.6968
19494TIP3   OH279896   5.594   6.115  17.115  0.2548  0.2061  0.2346
19494TIP3    H179897   5.559   6.095  17.028 -0.6199 -1.5087  0.9273
19494TIP3    H279898   5.662   6.048  17.128  0.6065  0.6576  0.7595
19495TIP3   OH279899   5.523   2.202  16.513  0.3130 -0.0163  0.0050
19495TIP3    H179900   5.615   2.198  16.489  0.5076 -1.3118  0.8291
19495TIP3    H279901   5.476   2.181  16.433  0.7695 -0.0986 -0.2442
19496TIP3   OH279902   1.101   2.437  12.354  0.4973 -0.2438 -0.2622
19496TIP3    H179903   1.185   2.416  12.395  1.3274  0.8418 -1.3571
19496TIP3    H279904   1.086   2.529  12.375 -1.0439 -0.7162  0.9245
19497TIP3   OH279905   6.479   1.015  14.450  0.4791  0.0606  0.5002
19497TIP3    H179906   6.503   1.035  14.359 -1.5537 -0.3589 -0.1862
19497TIP3    H279907   6.421   1.087  14.475  0.1447 -0.4002  1.0731
19498TIP3   OH279908   3.196   3.145   2.292 -0.0930 -0.0384  0.0582
19498TIP3    H179909   3.245   3.208   2.346  0.3545 -1.7654  1.7896
19498TIP3    H279910   3.261   3.110   2.232  0.3311 -0.8214  0.9544
19499TIP3   OH279911   0.982   2.479  15.617 -0.2951 -0.4559  0.7993
19499TIP3    H179912   0.904   2.515  15.658 -0.0215  0.3105  0.6610
19499TIP3    H279913   0.961   2.387  15.601 -1.5078 -0.0547 -0.0442
19500TIP3   OH279914   0.576   4.713  16.103  0.1793  0.1176 -0.2011
19500TIP3    H179915   0.546   4.796  16.065 -2.8207 -0.1197  1.3529
19500TIP3    H279916   0.496   4.666  16.124  1.7854 -2.5174  0.4747
19501TIP3   OH279917   3.853   6.227   4.332  0.5590  0.0131  0.5455
19501TIP3    H179918   3.936   6.188   4.360  0.3870 -0.6469  0.1484
19501TIP3    H279919   3.828   6.177   4.255 -1.0543 -0.9023  1.6139
19502TIP3   OH279920   5.132   5.561  11.680 -0.1835 -0.1668  0.0603
19502TIP3    H179921   5.192   5.556  11.605  1.3120  1.7939  1.0248
19502TIP3    H279922   5.189   5.550  11.756 -1.6374 -1.8398  0.9789
19503TIP3   OH279923   1.447   2.236  14.870 -0.3655  0.5162  0.3028
19503TIP3    H179924   1.384   2.164  14.863  0.1455  0.0025  0.7961
19503TIP3    H279925   1.448   2.277  14.783 -1.2926  0.4684  0.2617
19504TIP3   OH279926   4.395   2.046   5.611  0.1605 -0.7392  0.2155
19504TIP3    H179927   4.332   2.085   5.551  0.5199  0.7561  0.7632
19504TIP3    H279928   4.369   1.954   5.616 -1.6868 -0.2728  0.0531
19505TIP3   OH279929   5.788   5.108   1.661  0.3057  0.4501 -0.4518
19505TIP3    H179930   5.731   5.063   1.598 -1.4560  1.5122  0.3110
19505TIP3    H279931   5.876   5.081   1.637 -0.3142  0.6025 -3.2094
19506TIP3   OH279932   2.316   3.280   5.542 -0.4486  0.4736 -0.3408
19506TIP3    H179933   2.377   3.279   5.468  0.4062  1.4359  0.3126
19506TIP3    H279934   2.245   3.222   5.516  0.1532  0.2873 -1.6422
19507TIP3   OH279935   2.540   0.145   5.699  0.1168 -0.1107  0.1403
19507TIP3    H179936   2.606   0.125   5.634  0.1435  0.2126  0.0675
19507TIP3    H279937   2.464   0.093   5.672  1.1199 -2.5573  1.6810
19508TIP3   OH279938   0.162   4.244   4.715  1.1148  0.0043  0.3676
19508TIP3    H179939   0.072   4.260   4.746  1.3333  0.7181  0.6569
19508TIP3    H279940   0.150   4.200   4.631  0.4306  2.1406 -0.7302
19509TIP3   OH279941   3.715   1.626   4.919 -0.1989  0.1933  0.2769
19509TIP3    H179942   3.783   1.567   4.952  1.1017  0.9350 -0.9164
19509TIP3    H279943   3.720   1.703   4.976 -0.6992 -0.1235  0.7603
19510TIP3   OH279944   4.531   5.190  13.682  0.1447  0.0130 -0.1743
19510TIP3    H179945   4.496   5.223  13.599 -3.7109 -0.8685  0.9039
19510TIP3    H279946   4.504   5.256  13.747  1.5872 -0.1644  0.6555
19511TIP3   OH279947   1.821   2.859  12.125 -0.4206 -0.0439  0.4864
19511TIP3    H179948   1.750   2.823  12.178 -0.8018  1.1556  0.8173
19511TIP3    H279949   1.831   2.949  12.155  2.1606 -0.5323  1.4287
19512TIP3   OH279950   5.596   0.151   4.538 -0.1125 -0.1177 -0.4244
19512TIP3    H179951   5.522   0.173   4.595  1.6228  0.1619  1.8624
19512TIP3    H279952   5.613   0.231   4.487 -0.6987  0.1597 -0.1884
19513TIP3   OH279953   5.797   0.196  15.354 -1.0740  0.3946  0.5965
19513TIP3    H179954   5.808   0.133  15.282 -0.5543  1.1975 -0.0484
19513TIP3    H279955   5.704   0.219  15.352 -1.6351 -1.5314  1.8734
19514TIP3   OH279956   6.367   4.966  16.915  0.1307  0.1601  0.0836
19514TIP3    H179957   6.335   5.027  16.849  1.2743  0.5393 -0.1349
19514TIP3    H279958   6.402   4.893  16.865 -0.3955 -0.2559  0.3205
19515TIP3   OH279959   5.348   1.826   3.326  0.2796  0.4316  0.0661
19515TIP3    H179960   5.258   1.814   3.356  0.1147 -0.7235 -0.8377
19515TIP3    H279961   5.347   1.800   3.234  1.7370 -0.6420  0.3083
19516TIP3   OH279962   4.305   3.959   1.472  0.4938 -0.2005 -0.2921
19516TIP3    H179963   4.360   3.909   1.412  2.6136 -1.1282  2.2352
19516TIP3    H279964   4.278   3.896   1.539  2.2069  1.6435  2.3341
19517TIP3   OH279965   1.573   6.054   0.602  0.2417 -0.0651 -0.1711
19517TIP3    H179966   1.566   5.959   0.595  1.2465 -0.2544  1.0119
19517TIP3    H279967   1.609   6.081   0.518 -0.0850 -0.7121 -0.5346
19518TIP3   OH279968   4.005   3.154   5.837  0.7680  0.6343  0.7128
19518TIP3    H179969   3.965   3.106   5.910 -0.7710  1.5251  0.5042
19518TIP3    H279970   4.073   3.207   5.878  0.2018  0.8068  1.4387
19519TIP3   OH279971   6.744   0.126  12.577 -0.4507  0.0491 -0.5017
19519TIP3    H179972   6.744   0.032  12.560 -2.1800 -0.2845  0.9553
19519TIP3    H279973   6.686   0.136  12.652  0.0239  2.2557 -0.3602
19520TIP3   OH279974   3.870   5.293   2.584 -0.3723  0.2279 -0.3747
19520TIP3    H179975   3.845   5.267   2.672  0.1171  2.0999  0.3731
19520TIP3    H279976   3.963   5.315   2.590 -0.2524  0.0855 -1.4421
19521TIP3   OH279977   6.040   5.428   3.517 -0.3867 -0.1647 -0.5524
19521TIP3    H179978   5.969   5.399   3.459  0.3685 -2.5190 -0.3894
19521TIP3    H279979   6.024   5.383   3.600  1.1861 -0.6281 -0.4656
19522TIP3   OH279980   3.698   4.118   5.088  0.7630 -0.0722  0.3050
19522TIP3    H179981   3.613   4.087   5.118  0.1128  0.7638 -0.6474
19522TIP3    H279982   3.760   4.053   5.122 -0.3454 -1.2521  0.1510
19523TIP3   OH279983   2.610   0.350  15.873  0.2567  0.3297 -0.2749
19523TIP3    H179984   2.580   0.441  15.879  1.4141  0.7054  0.1013
19523TIP3    H279985   2.530   0.299  15.861 -0.3973  1.4159 -0.6941
19524TIP3   OH279986   3.112   0.758   5.793 -0.0530  0.0629 -0.2371
19524TIP3    H179987   3.048   0.704   5.839 -2.3977  2.5884 -0.2630
19524TIP3    H279988   3.139   0.824   5.857  1.8934 -0.3824 -0.5271
19525TIP3   OH279989   3.873   4.083   5.599 -0.2942 -0.1378 -0.2717
19525TIP3    H179990   3.830   4.101   5.683 -3.2682  0.0676 -1.7251
19525TIP3    H279991   3.928   4.160   5.583 -3.0161  1.9203 -0.4395
19526TIP3   OH279992   0.708   3.594  16.590  0.1744 -0.1971  0.4189
19526TIP3    H179993   0.761   3.534  16.642  2.1019 -0.3717 -1.6062
19526TIP3    H279994   0.654   3.537  16.535  0.1257 -0.0487  0.3108
19527TIP3   OH279995   5.527   3.912  11.697  0.3152 -0.0214  0.4759
19527TIP3    H179996   5.574   3.868  11.627  0.2593  0.9819 -0.2134
19527TIP3    H279997   5.573   3.996  11.707 -2.4144  1.8773 -1.5553
19528TIP3   OH279998   6.161   1.297  13.633  0.1000  0.0332  0.2698
19528TIP3    H179999   6.220   1.238  13.680  0.0111 -0.0760  0.2439
19528TIP3    H280000   6.216   1.372  13.610 -0.3905  1.2962  2.7606
19529TIP3   OH280001   0.243   2.263   1.435 -0.0718 -0.5987 -0.2044
19529TIP3    H180002   0.303   2.335   1.454 -0.9062  0.4125 -1.1788
19529TIP3    H280003   0.244   2.208   1.513  3.1332 -1.3917 -0.6922
19530TIP3   OH280004   0.709   2.635   0.624 -0.4925 -0.7222 -0.0853
19530TIP3    H180005   0.782   2.685   0.661 -0.5562 -0.5247 -0.2263
19530TIP3    H280006   0.640   2.641   0.690 -0.7133 -0.1158 -0.3597
19531TIP3   OH280007   2.470   1.316  17.117 -0.7112 -0.3952 -0.2111
19531TIP3    H180008   2.531   1.389  17.127  1.7649 -2.3422 -0.3808
19531TIP3    H280009   2.408   1.327  17.189  0.8854  0.6841  1.0694
19532TIP3   OH280010   2.064   3.133   2.906  0.2660 -0.1086 -0.1620
19532TIP3    H180011   2.076   3.143   2.812 -0.4747 -1.6801 -0.4528
19532TIP3    H280012   2.150   3.104   2.938  0.0772 -1.2002 -0.6210
19533TIP3   OH280013   1.967   3.425   1.144 -0.1289  0.1927  0.0741
19533TIP3    H180014   1.892   3.379   1.182 -0.0107 -1.3150 -1.4041
19533TIP3    H280015   1.942   3.440   1.052  1.4568 -0.5905 -0.5194
19534TIP3   OH280016   0.655   4.338   2.285  0.4257  0.2149  0.4348
19534TIP3    H180017   0.669   4.260   2.338 -0.0166 -0.2789 -0.1546
19534TIP3    H280018   0.610   4.400   2.343 -1.0600 -0.7219  0.3228
19535TIP3   OH280019   2.623   0.325   1.065 -0.0551  0.7340 -0.1804
19535TIP3    H180020   2.553   0.264   1.089  1.0558 -0.6254 -0.2946
19535TIP3    H280021   2.616   0.333   0.970 -0.8355  1.6132 -0.0662
19536TIP3   OH280022   1.154   1.714   4.193 -0.2295  0.8581  0.5027
19536TIP3    H180023   1.093   1.651   4.231 -1.2161  0.3590 -1.7326
19536TIP3    H280024   1.168   1.682   4.104  1.2461  2.4372  0.1260
19537TIP3   OH280025   4.325   1.682   2.652 -0.1125 -0.1626  0.3191
19537TIP3    H180026   4.275   1.758   2.681  1.1715  0.4746  0.9492
19537TIP3    H280027   4.415   1.714   2.646  0.1675 -1.1643 -1.1921
19538TIP3   OH280028   4.256   6.384   4.777  0.0162 -0.5917  0.3560
19538TIP3    H180029   4.336   6.334   4.793  0.0818 -0.4246  0.5509
19538TIP3    H280030   4.188   6.340   4.828 -0.5816 -2.2411 -1.7405
19539TIP3   OH280031   5.175   3.476   3.422  0.0699 -0.1647 -0.5894
19539TIP3    H180032   5.239   3.449   3.488 -1.3024 -0.9877  0.4750
19539TIP3    H280033   5.097   3.498   3.473 -0.7270  0.1068 -1.8864
19540TIP3   OH280034   4.541   2.992  12.362  0.2888 -0.5825 -0.0367
19540TIP3    H180035   4.627   3.024  12.336 -0.3579  0.9496 -0.3873
19540TIP3    H280036   4.543   2.989  12.457  0.6854 -0.4405 -0.0431
19541TIP3   OH280037   6.316   1.217   2.168 -0.3782  0.6630 -0.0588
19541TIP3    H180038   6.256   1.145   2.184  0.7937 -0.4114 -0.3070
19541TIP3    H280039   6.391   1.199   2.225  0.8136  0.5714 -1.5811
19542TIP3   OH280040   1.195   4.381  14.939 -0.4711  0.4116 -0.4216
19542TIP3    H180041   1.111   4.411  14.973 -0.0750  0.3947  0.6456
19542TIP3    H280042   1.200   4.416  14.850 -1.5786  0.4445 -0.4781
19543TIP3   OH280043   3.899   4.972  16.805 -0.5159  0.1006 -0.7195
19543TIP3    H180044   3.993   4.976  16.826 -0.6443 -1.4655  0.3732
19543TIP3    H280045   3.856   4.978  16.890 -1.4307  1.0691 -1.2383
19544TIP3   OH280046   1.074   4.279   0.746 -0.3700 -0.1389  0.0233
19544TIP3    H180047   1.036   4.192   0.760 -0.5562 -0.0082  0.3447
19544TIP3    H280048   1.123   4.297   0.826  0.8199 -0.5257 -0.5891
19545TIP3   OH280049   5.055   6.341  13.466 -0.1274 -0.1225  0.4903
19545TIP3    H180050   5.035   6.277  13.398  2.2732 -0.3536 -0.1059
19545TIP3    H280051   5.053   6.426  13.422  0.9669 -0.2316  0.1855
19546TIP3   OH280052   2.802   1.521   3.692 -0.2344 -0.5928  0.3614
19546TIP3    H180053   2.864   1.516   3.765  0.7591 -0.7549 -0.4784
19546TIP3    H280054   2.845   1.476   3.620 -0.1072  1.6998 -1.0929
19547TIP3   OH280055   0.775   6.066  16.478  0.6166  0.1141 -0.1429
19547TIP3    H180056   0.754   6.035  16.390  3.0267 -2.4005  0.0559
19547TIP3    H280057   0.731   6.005  16.536 -0.4546  1.4010  0.4448
19548TIP3   OH280058   6.078   2.897  10.989 -0.5489  0.0373  0.7407
19548TIP3    H180059   6.078   2.849  10.906 -1.4536  0.2752  0.5963
19548TIP3    H280060   6.002   2.954  10.984 -1.1391 -0.5753  2.0889
19549TIP3   OH280061   4.878   3.095  16.171  0.3496 -0.0736  0.1700
19549TIP3    H180062   4.829   3.033  16.225 -0.7863  0.5224 -0.1507
19549TIP3    H280063   4.954   3.118  16.225  1.1267 -2.1584  0.0672
19550TIP3   OH280064   3.224   6.018  14.850 -0.0938 -0.2342 -0.1744
19550TIP3    H180065   3.201   6.100  14.807 -0.8298  0.6605  1.7932
19550TIP3    H280066   3.314   6.000  14.823  0.1898  1.4097 -0.3892
19551TIP3   OH280067   6.713   3.399   5.244  0.2838 -0.1399  0.2120
19551TIP3    H180068   6.730   3.490   5.268  0.6685 -0.4014  0.9543
19551TIP3    H280069   6.624   3.382   5.274  0.2768 -0.0584  0.2361
19552TIP3   OH280070   3.823   6.367  15.294  0.6045 -0.1793  0.6805
19552TIP3    H180071   3.879   6.401  15.364  0.2202  1.2369  0.3187
19552TIP3    H280072   3.882   6.358  15.219  0.1712  2.6575 -0.1270
19553TIP3   OH280073   3.713   4.779  10.966 -0.0311  0.6449 -0.9149
19553TIP3    H180074   3.674   4.692  10.959  0.9403  0.2791 -2.1065
19553TIP3    H280075   3.701   4.803  11.058 -0.8053 -0.5084 -0.6925
19554TIP3   OH280076   6.719   0.458   0.551 -0.3177 -0.5729  0.6435
19554TIP3    H180077   6.673   0.532   0.512  1.3015 -1.1940 -2.7457
19554TIP3    H280078   6.659   0.384   0.539  0.4696 -0.9111 -1.5372
19555TIP3   OH280079   2.669   2.809  14.851  0.1381 -0.0905 -0.0946
19555TIP3    H180080   2.749   2.757  14.863 -0.8063 -1.3776  0.7912
19555TIP3    H280081   2.597   2.748  14.868 -1.0580  1.0174 -0.9822
19556TIP3   OH280082   6.026   3.498   3.346  1.0179 -0.4368 -0.1816
19556TIP3    H180083   6.069   3.504   3.261 -0.1292  1.4491 -0.6988
19556TIP3    H280084   6.087   3.449   3.401  2.8861  0.3925 -1.4234
19557TIP3   OH280085   4.493   0.793  13.184 -0.1479  0.2483 -0.1445
19557TIP3    H180086   4.429   0.803  13.254  1.3474 -0.3129  1.3737
19557TIP3    H280087   4.562   0.855  13.205  0.4793 -0.1547 -0.9493
19558TIP3   OH280088   1.112   2.017   0.501 -0.0400 -0.0652  0.1399
19558TIP3    H180089   1.180   1.988   0.562 -0.7391  0.5407  1.2386
19558TIP3    H280090   1.114   2.112   0.508 -0.1011  0.0196 -0.8448
19559TIP3   OH280091   4.398   2.709   6.216 -0.0015 -0.2813  0.2405
19559TIP3    H180092   4.489   2.704   6.243 -0.4259  0.1303  1.8669
19559TIP3    H280093   4.358   2.628   6.249 -0.1740 -0.6192 -0.7523
19560TIP3   OH280094   2.024   0.708  13.547  0.1136  0.4269 -0.1301
19560TIP3    H180095   2.011   0.690  13.640 -0.5410  2.2901  0.1751
19560TIP3    H280096   2.024   0.803  13.540  0.7749  0.3499 -1.9693
19561TIP3   OH280097   0.525   0.342   0.600  0.4158 -0.3974 -0.1046
19561TIP3    H180098   0.532   0.260   0.550 -0.1115 -0.9136  0.6400
19561TIP3    H280099   0.472   0.318   0.676  0.0880  0.6916  0.0195
19562TIP3   OH280100   0.226   0.825   0.270  0.0422 -0.1755 -0.1463
19562TIP3    H180101   0.209   0.734   0.294  0.6838 -0.7339 -1.6667
19562TIP3    H280102   0.140   0.867   0.271 -0.1262 -0.5112  1.5910
19563TIP3   OH280103   5.965   1.475   2.942  0.2820 -0.1596  0.0912
19563TIP3    H180104   5.920   1.496   2.860 -1.4202 -0.1278  0.9869
19563TIP3    H280105   5.894   1.455   3.003  1.4279  1.0026  1.8913
19564TIP3   OH280106   4.509   1.020   0.814  0.2387  0.0448  0.2799
19564TIP3    H180107   4.519   0.972   0.896  1.1063 -0.3989 -0.0780
19564TIP3    H280108   4.449   0.966   0.762 -0.7278  0.5901  0.8146
19565TIP3   OH280109   2.592   5.582  13.271 -0.5348 -0.1960  0.1547
19565TIP3    H180110   2.513   5.594  13.218  0.6054 -0.7217 -1.7437
19565TIP3    H280111   2.627   5.497  13.243  1.3903  0.6045 -0.0208
19566TIP3   OH280112   3.351   2.184   5.471  0.8435 -0.1237 -0.2173
19566TIP3    H180113   3.374   2.151   5.558  0.6537 -2.2131 -0.9006
19566TIP3    H280114   3.435   2.197   5.428  1.0428  2.8952  0.8769
19567TIP3   OH280115   4.085   2.904   3.422 -0.4073  0.0559 -0.4809
19567TIP3    H180116   4.074   2.971   3.490  0.8364  1.9682 -2.0706
19567TIP3    H280117   4.018   2.838   3.443 -1.3528  1.5205  1.4350
19568TIP3   OH280118   5.658   4.393   2.329  0.0155  0.0768 -0.1785
19568TIP3    H180119   5.703   4.416   2.248 -0.1457  0.2435 -0.2209
19568TIP3    H280120   5.684   4.462   2.390  1.2773 -0.8026  0.3345
19569TIP3   OH280121   0.021   2.148   0.342 -0.1761 -0.1407  0.7107
19569TIP3    H180122   0.034   2.059   0.373  0.1567 -0.1346  0.5906
19569TIP3    H280123   0.104   2.172   0.300 -0.5683 -0.1091 -0.0788
19570TIP3   OH280124   2.463   2.224  12.300 -0.3255  0.4515  0.5574
19570TIP3    H180125   2.414   2.229  12.382 -0.0829 -1.3787  0.8516
19570TIP3    H280126   2.401   2.184  12.238 -0.1769  0.9243  0.0862
19571TIP3   OH280127   3.790   6.332   0.734 -0.0378  0.0089 -0.3022
19571TIP3    H180128   3.796   6.388   0.812 -0.7985  0.1215 -0.3124
19571TIP3    H280129   3.828   6.248   0.762 -1.3396 -0.3174  0.5640
19572TIP3   OH280130   3.029   4.772   2.128 -0.0742  0.0967 -0.2584
19572TIP3    H180131   3.006   4.859   2.163  1.3006  0.7716 -0.9410
19572TIP3    H280132   3.081   4.732   2.197  1.7227  0.9964 -1.0348
19573TIP3   OH280133   5.628   1.445   0.555 -0.2248 -0.2725  0.1076
19573TIP3    H180134   5.541   1.407   0.542 -0.7993  1.3018 -0.9212
19573TIP3    H280135   5.663   1.399   0.631 -1.7684 -1.2584  0.2661
19574TIP3   OH280136   3.443   3.311  15.952  0.1566 -0.7356  0.3366
19574TIP3    H180137   3.538   3.317  15.950  0.1345 -0.1467  0.8013
19574TIP3    H280138   3.418   3.349  16.036 -0.5178 -0.4510  0.0187
19575TIP3   OH280139   5.443   0.179  11.227 -0.4461 -0.2173  0.3448
19575TIP3    H180140   5.466   0.209  11.139 -0.2867  2.2933  1.1531
19575TIP3    H280141   5.485   0.093  11.234  0.0792 -0.2123 -1.7862
19576TIP3   OH280142   3.259   5.883  15.801  0.6824  0.0706  0.0899
19576TIP3    H180143   3.334   5.855  15.854  0.2097 -0.5088  0.4700
19576TIP3    H280144   3.206   5.936  15.861 -0.3712 -1.4233  0.5295
19577TIP3   OH280145   4.009   1.604   2.116 -0.3519  0.4035 -0.1458
19577TIP3    H180146   4.057   1.543   2.172  0.7871  1.0980 -0.3274
19577TIP3    H280147   3.923   1.611   2.157  0.4763  0.9832  1.6423
19578TIP3   OH280148   0.465   0.062   0.690  0.0199 -0.0608 -0.0545
19578TIP3    H180149   0.555   0.046   0.722 -0.3867  1.7340  2.2721
19578TIP3    H280150   0.409   0.018   0.754 -0.8034  1.2886  0.1835
19579TIP3   OH280151   0.490   0.846   5.589  0.2087  0.1590 -0.3431
19579TIP3    H180152   0.480   0.929   5.635 -0.1105  0.4012 -0.8397
19579TIP3    H280153   0.581   0.820   5.604  0.0607  0.1515  0.5553
19580TIP3   OH280154   1.660   5.795   5.047  0.2798  0.1514 -0.1833
19580TIP3    H180155   1.742   5.797   5.096  0.3283  0.7111 -0.2779
19580TIP3    H280156   1.655   5.707   5.011  0.4831 -0.1112  0.4214
19581TIP3   OH280157   1.096   5.183  11.899  0.6841 -1.2756 -0.2910
19581TIP3    H180158   1.157   5.112  11.879  0.8593 -1.1280 -0.2777
19581TIP3    H280159   1.020   5.138  11.937  0.3815 -1.5483 -1.2019
19582TIP3   OH280160   0.766   0.976   2.160 -0.3671  0.8103 -0.0222
19582TIP3    H180161   0.797   0.913   2.225  0.2986  1.3931  0.2371
19582TIP3    H280162   0.846   1.012   2.121 -0.7054  2.0648  0.3936
19583TIP3   OH280163   5.710   5.668   4.508  1.0060  0.3651  0.4886
19583TIP3    H180164   5.744   5.754   4.483 -1.2281  1.1105 -0.2319
19583TIP3    H280165   5.738   5.610   4.438  1.4301  0.7819  0.3054
19584TIP3   OH280166   6.529   3.911   0.347 -0.2488 -0.1106 -0.2982
19584TIP3    H180167   6.494   3.952   0.426 -1.8010 -0.6866 -0.6629
19584TIP3    H280168   6.474   3.834   0.333 -0.0369  0.0160 -1.9900
19585TIP3   OH280169   2.034   3.890   4.751  0.4072  0.0790 -0.2616
19585TIP3    H180170   1.951   3.884   4.798  0.6733 -0.5400  0.1348
19585TIP3    H280171   2.030   3.975   4.707  0.0624  0.5699  0.6973
19586TIP3   OH280172   5.434   1.376  14.319  0.3795  0.4609 -0.4298
19586TIP3    H180173   5.363   1.407  14.375  0.4235  2.5367 -1.4345
19586TIP3    H280174   5.505   1.354  14.379 -1.0690 -1.7004  0.5958
19587TIP3   OH280175   4.249   2.475  13.103 -0.2145  0.0800 -0.3190
19587TIP3    H180176   4.198   2.544  13.061 -0.1856  0.3684  0.1131
19587TIP3    H280177   4.185   2.428  13.158  0.0438  0.6400  0.4680
19588TIP3   OH280178   6.457   0.344   1.743 -0.4146  0.4202 -0.2778
19588TIP3    H180179   6.460   0.373   1.652  0.9439  1.5274  0.0912
19588TIP3    H280180   6.537   0.292   1.755 -0.2674  0.7931  0.4422
19589TIP3   OH280181   5.413   0.366   6.281 -0.0770  0.1379 -0.3881
19589TIP3    H180182   5.360   0.446   6.279 -0.4864 -0.0951  0.4527
19589TIP3    H280183   5.349   0.295   6.273  0.4875 -0.1400 -4.3337
19590TIP3   OH280184   2.406   2.352   5.670 -0.7398 -0.4506 -0.7487
19590TIP3    H180185   2.361   2.390   5.746  0.1869  0.8698 -0.8205
19590TIP3    H280186   2.445   2.271   5.703  1.2741  1.0336  0.7738
19591TIP3   OH280187   5.745   1.784  11.282  0.0546  0.1836  0.7693
19591TIP3    H180188   5.660   1.772  11.241  0.3105  0.7238  0.0763
19591TIP3    H280189   5.744   1.874  11.314  0.6831  0.4762 -0.0043
19592TIP3   OH280190   4.294   1.920   4.355 -0.1263  0.6947 -0.0833
19592TIP3    H180191   4.209   1.960   4.373 -0.7758  0.3030 -2.0356
19592TIP3    H280192   4.301   1.922   4.260  1.7954  0.1667  0.0174
19593TIP3   OH280193   2.690   5.678   3.383 -0.0322 -0.2917  0.6821
19593TIP3    H180194   2.618   5.635   3.428 -1.1957  0.7671 -0.0923
19593TIP3    H280195   2.703   5.760   3.431 -0.4817  0.2886 -0.1483
19594TIP3   OH280196   1.833   4.354  12.442  0.8686  0.4984 -0.1381
19594TIP3    H180197   1.805   4.445  12.432  0.0275  0.1965 -0.6916
19594TIP3    H280198   1.928   4.356  12.431  0.7451  1.1668 -1.2557
19595TIP3   OH280199   6.468   0.280  13.255 -0.5014 -0.5380  0.4726
19595TIP3    H180200   6.529   0.351  13.234 -2.1773  1.0051  0.5730
19595TIP3    H280201   6.481   0.265  13.349  0.6268 -1.1650  0.2395
19596TIP3   OH280202   0.227   2.422  16.579  0.1672 -0.2874  0.5074
19596TIP3    H180203   0.261   2.374  16.503  2.9905  0.5448  1.1530
19596TIP3    H280204   0.302   2.470  16.613 -1.4219  0.7175  2.8369
19597TIP3   OH280205   0.010   0.632   3.607  0.5234  0.1190  0.1003
19597TIP3    H180206  -0.037   0.641   3.690  1.2007  1.2100  0.3997
19597TIP3    H280207   0.082   0.572   3.626  0.5130  0.1502  0.2421
19598TIP3   OH280208   1.076   1.332   3.555  0.6192 -0.3703 -0.7256
19598TIP3    H180209   1.079   1.406   3.494  4.1123  0.4056  0.1467
19598TIP3    H280210   1.075   1.255   3.499  1.5457  0.3377 -1.7555
19599TIP3   OH280211   4.359   6.556  11.201 -0.4151  0.4885 -0.3644
19599TIP3    H180212   4.363   6.590  11.111 -2.0839  0.2059 -0.5692
19599TIP3    H280213   4.400   6.469  11.195 -2.7042 -0.6108 -1.4445
19600TIP3   OH280214   3.294   4.407   2.170 -0.0360 -0.2677  0.3557
19600TIP3    H180215   3.364   4.420   2.106  1.5388  0.7274  2.1375
19600TIP3    H280216   3.218   4.451   2.133  1.1090  1.1559 -0.4180
19601TIP3   OH280217   0.180   3.468  15.446  0.3954 -0.0624  0.6766
19601TIP3    H180218   0.221   3.402  15.390  0.9395  1.3162 -0.6339
19601TIP3    H280219   0.248   3.491  15.509 -0.8379 -3.0522  3.3748
19602TIP3   OH280220   6.565   5.853   0.279  0.6591  0.6205 -0.3025
19602TIP3    H180221   6.638   5.862   0.219 -0.2779  0.6348 -1.4714
19602TIP3    H280222   6.602   5.871   0.366  2.1636 -0.0286 -0.7927
19603TIP3   OH280223   5.105   6.471  11.312  0.1900  0.1658 -0.0121
19603TIP3    H180224   5.156   6.434  11.384  0.5002 -1.1059 -0.8545
19603TIP3    H280225   5.025   6.504  11.353  0.6345  0.0137  0.9882
19604TIP3   OH280226   1.035   5.595   1.575  0.0674  0.6262  0.5662
19604TIP3    H180227   0.972   5.659   1.608 -0.0859 -0.4739  2.4924
19604TIP3    H280228   1.046   5.532   1.646  2.1234 -0.1139 -0.3301
19605TIP3   OH280229   4.606   5.275   2.439  0.1729 -0.1643  0.0958
19605TIP3    H180230   4.626   5.249   2.349  2.1544  2.2549 -0.2560
19605TIP3    H280231   4.616   5.194   2.490  0.0119 -1.3556 -1.6938
19606TIP3   OH280232   5.245   2.792   5.995  0.2367 -0.7755 -0.1562
19606TIP3    H180233   5.239   2.703   5.961  0.7710 -1.2367  0.8840
19606TIP3    H280234   5.281   2.781   6.084  0.1750  0.4623  0.0418
19607TIP3   OH280235   6.733   5.989   2.497 -0.3854  0.3308 -0.1085
19607TIP3    H180236   6.637   5.993   2.491 -0.3164  2.3490 -0.6409
19607TIP3    H280237   6.760   6.080   2.511  1.3138 -0.5122  2.8459
19608TIP3   OH280238   3.157   1.190  12.322  0.3477 -0.3216  0.1874
19608TIP3    H180239   3.072   1.223  12.351  0.5244  1.5409 -1.2020
19608TIP3    H280240   3.175   1.115  12.379 -1.4889  0.2016  1.5457
19609TIP3   OH280241   0.092   0.948  10.561  0.3553 -0.3049 -0.2854
19609TIP3    H180242   0.028   1.004  10.517 -0.6231 -0.8544  0.4068
19609TIP3    H280243   0.087   0.865  10.514 -0.4445 -0.7830  0.6149
19610TIP3   OH280244   6.596   1.743   1.812 -0.1945  0.3220  0.3651
19610TIP3    H180245   6.545   1.743   1.731  1.7768 -0.8513 -0.9843
19610TIP3    H280246   6.532   1.733   1.882 -1.9026  0.5188 -1.1048
19611TIP3   OH280247   6.734   4.964  17.148  0.0595 -0.2396 -0.2634
19611TIP3    H180248   6.786   4.967  17.228  0.1128  1.8491 -0.3244
19611TIP3    H280249   6.740   5.052  17.112 -0.5296 -0.9510 -2.2218
19612TIP3   OH280250   1.265   1.848  12.659 -0.6025 -0.0875 -0.1464
19612TIP3    H180251   1.251   1.911  12.730 -1.5865  1.4960 -1.6629
19612TIP3    H280252   1.282   1.765  12.704 -1.5303  0.7684  1.9407
19613TIP3   OH280253   4.602   4.926   6.180 -0.0884 -0.0161 -0.1659
19613TIP3    H180254   4.695   4.902   6.185 -0.4285 -1.2474  0.9522
19613TIP3    H280255   4.559   4.849   6.144 -0.6920  0.5348 -0.6529
19614TIP3   OH280256   0.577   0.712   0.256 -0.0117 -0.3087  0.0833
19614TIP3    H180257   0.599   0.749   0.342 -1.1120 -0.3783  0.4044
19614TIP3    H280258   0.536   0.783   0.208  0.5920 -0.2739 -0.4024
19615TIP3   OH280259   6.055   1.764   1.540  0.3914 -0.5327  0.1734
19615TIP3    H180260   5.963   1.780   1.560  0.6907 -0.0794  1.2529
19615TIP3    H280261   6.097   1.849   1.554  0.8224 -0.4580 -1.3442
19616TIP3   OH280262   0.548   1.688   1.355  0.0976  0.1364 -0.2002
19616TIP3    H180263   0.534   1.594   1.362  1.6115 -0.4207 -2.9480
19616TIP3    H280264   0.479   1.717   1.294  1.6101  0.1036 -2.0139
19617TIP3   OH280265   3.163   5.597  10.297 -0.0655  0.4220  0.6570
19617TIP3    H180266   3.102   5.523  10.294  0.8591 -0.3988  1.3957
19617TIP3    H280267   3.219   5.584  10.221  0.2005  0.2584  0.8781
19618TIP3   OH280268   2.051   2.816  17.183  0.0655 -0.1434 -0.1963
19618TIP3    H180269   1.977   2.790  17.238  0.6461  0.7661  1.0568
19618TIP3    H280270   2.011   2.846  17.102 -0.8766 -0.5493  0.0971
19619TIP3   OH280271   1.485   1.174   1.242  0.5957  0.6976 -0.7517
19619TIP3    H180272   1.569   1.135   1.218 -0.1587 -1.6286  0.0642
19619TIP3    H280273   1.508   1.244   1.303  1.9519 -0.6957  0.4491
19620TIP3   OH280274   4.343   1.532  12.060 -0.3985 -0.5578  0.0390
19620TIP3    H180275   4.399   1.455  12.071  0.1169 -0.1730  0.1296
19620TIP3    H280276   4.366   1.567  11.974 -0.3326 -0.2640  0.1753
19621TIP3   OH280277   5.799   5.371  15.956 -0.4083  0.4481 -0.3912
19621TIP3    H180278   5.832   5.289  15.992  2.5427  0.5528 -2.4840
19621TIP3    H280279   5.812   5.435  16.025 -0.0340 -0.3069  0.2513
19622TIP3   OH280280   1.529   0.859   2.743  0.2331  0.0629  0.1489
19622TIP3    H180281   1.531   0.890   2.833  1.1904 -0.5693  0.3504
19622TIP3    H280282   1.528   0.764   2.750 -1.1478 -0.0044 -0.4974
19623TIP3   OH280283   3.814   1.274  15.297  0.6033  0.5577 -0.4191
19623TIP3    H180284   3.743   1.327  15.261 -0.9020 -1.2522 -0.3121
19623TIP3    H280285   3.820   1.301  15.389  0.6802  1.3617 -0.6557
19624TIP3   OH280286   1.572   5.769   2.448  0.5368  0.5410  0.2007
19624TIP3    H180287   1.494   5.785   2.395  0.1836  0.4779  0.6954
19624TIP3    H280288   1.579   5.844   2.506 -1.1117 -0.9418  2.5018
19625TIP3   OH280289   5.002   0.183   2.444 -0.9125  0.4615  0.1680
19625TIP3    H180290   4.964   0.235   2.515  0.1517 -0.1971  1.2607
19625TIP3    H280291   5.066   0.127   2.487  0.2688  0.5249 -1.4210
19626TIP3   OH280292   6.688   5.291  15.687 -0.2681  0.1763  0.0682
19626TIP3    H180293   6.602   5.316  15.722  0.0276  1.7637 -0.2502
19626TIP3    H280294   6.732   5.375  15.671  0.6490 -0.5604 -1.4911
19627TIP3   OH280295   2.087   3.635   2.548  0.5007 -0.2008  0.6599
19627TIP3    H180296   2.057   3.587   2.470  1.8917 -1.0704  0.6058
19627TIP3    H280297   2.162   3.686   2.516  0.2390  0.4867  1.1457
19628TIP3   OH280298   4.728   2.532   3.117 -0.9114 -0.1657  0.4583
19628TIP3    H180299   4.722   2.617   3.160 -0.5811  0.5662 -0.9042
19628TIP3    H280300   4.679   2.473   3.175 -1.0280  0.9021  1.4922
19629TIP3   OH280301   5.363   0.835   3.009  0.2904  0.1545 -0.3621
19629TIP3    H180302   5.453   0.807   2.997 -0.4220 -2.9188  0.5102
19629TIP3    H280303   5.368   0.930   3.020  3.2816  0.1692 -1.1527
19630TIP3   OH280304   1.093   0.462  11.066  0.0528 -0.0321  0.2323
19630TIP3    H180305   1.183   0.492  11.069 -0.3347  1.0802  1.1649
19630TIP3    H280306   1.099   0.367  11.079  1.1118 -0.0506 -0.2928
19631TIP3   OH280307   4.594   5.866  15.387 -0.2595  0.2870 -0.0505
19631TIP3    H180308   4.641   5.831  15.463  1.8040  0.5409 -1.1169
19631TIP3    H280309   4.646   5.837  15.312 -1.7285  0.8042 -1.3145
19632TIP3   OH280310   6.405   2.047  14.870  0.7140 -0.3480  0.0948
19632TIP3    H180311   6.329   2.069  14.816  0.2132  0.5453  1.1211
19632TIP3    H280312   6.480   2.080  14.820  0.0959  2.6802  0.9519
19633TIP3   OH280313   6.538   1.314  15.497  0.0052 -0.0745  0.2219
19633TIP3    H180314   6.614   1.363  15.528  0.4331  0.4227 -1.4998
19633TIP3    H280315   6.528   1.243  15.559  2.2183 -0.4565  0.2107
19634TIP3   OH280316   2.280   1.835   2.551 -0.5066 -0.5004  0.2560
19634TIP3    H180317   2.281   1.930   2.540 -0.5209 -0.2701  1.9089
19634TIP3    H280318   2.369   1.808   2.530 -0.2412  0.0098  0.6844
19635TIP3   OH280319   2.870   3.557  13.934  0.1655 -0.0829  0.7079
19635TIP3    H180320   2.954   3.589  13.966  1.2829 -2.4218  0.3710
19635TIP3    H280321   2.887   3.533  13.843 -1.4707  1.3469 -0.0202
19636TIP3   OH280322   5.663   1.530   4.709  0.6772 -0.9207  0.8255
19636TIP3    H180323   5.602   1.600   4.689 -0.4492 -1.1197  3.2275
19636TIP3    H280324   5.746   1.574   4.727  0.8287 -0.5112 -0.7641
19637TIP3   OH280325   5.662   3.506  15.635 -0.0126 -0.1391  0.2521
19637TIP3    H180326   5.688   3.441  15.569 -1.9809 -0.2308 -0.5168
19637TIP3    H280327   5.667   3.589  15.588 -1.0487 -0.1638  0.0800
19638TIP3   OH280328   6.380   1.278   4.972  0.4827 -0.3238  0.4085
19638TIP3    H180329   6.425   1.362   4.978  0.3944 -0.2098 -0.4710
19638TIP3    H280330   6.417   1.226   5.044  2.4418 -0.4380 -0.6174
19639TIP3   OH280331   2.038   3.583   5.934  0.1278  0.0339  0.5435
19639TIP3    H180332   2.106   3.524   5.967  0.5653 -0.2323 -0.7771
19639TIP3    H280333   2.018   3.640   6.008  1.8630  0.1679  0.9526
19640TIP3   OH280334   3.549   1.531  10.486 -0.5106 -0.0964 -0.0106
19640TIP3    H180335   3.620   1.470  10.465 -1.5129 -1.2361 -0.1800
19640TIP3    H280336   3.581   1.580  10.562  0.3849 -0.6974  0.0121
19641TIP3   OH280337   0.549   6.401   1.791  0.1172 -0.3678  0.1251
19641TIP3    H180338   0.477   6.367   1.739 -1.3611  2.6070  0.0247
19641TIP3    H280339   0.600   6.455   1.731  1.3372 -0.8452  0.6717
19642TIP3   OH280340   0.120   5.313   0.203  0.4817  0.5773  0.2164
19642TIP3    H180341   0.175   5.244   0.166  0.4372  1.2703 -1.2164
19642TIP3    H280342   0.181   5.379   0.234  0.4808  0.7093 -0.0670
19643TIP3   OH280343   6.342   1.651  14.972  0.2505  0.2008 -0.1146
19643TIP3    H180344   6.424   1.690  14.999 -0.9424  1.4510  1.9898
19643TIP3    H280345   6.275   1.696  15.024 -1.6815 -1.4163 -1.0293
19644TIP3   OH280346   0.044   5.023  13.689 -0.2862  0.2088  0.4615
19644TIP3    H180347   0.087   5.044  13.606 -0.8692  0.0237  0.1071
19644TIP3    H280348  -0.046   5.002  13.665 -0.2407 -0.7149  1.0434
19645TIP3   OH280349   6.354   0.890  15.883 -0.6570 -0.2539  1.0372
19645TIP3    H180350   6.421   0.857  15.943  0.5474  2.5889  1.4711
19645TIP3    H280351   6.314   0.963  15.930  0.2864  2.0585 -1.4360
19646TIP3   OH280352   6.520   1.864  15.243 -0.3155  0.0817  0.1668
19646TIP3    H180353   6.511   1.955  15.213 -0.1470  0.0311 -0.0412
19646TIP3    H280354   6.583   1.825  15.182 -0.7067 -0.2937 -0.0046
19647TIP3   OH280355   0.234   4.362   2.322 -0.6153 -0.2983 -0.1876
19647TIP3    H180356   0.285   4.367   2.403 -0.2987 -0.3464 -0.3815
19647TIP3    H280357   0.161   4.303   2.344 -1.3379  0.8035  0.4810
19648TIP3   OH280358   2.767   4.619  14.473  0.4485  0.0503 -0.4879
19648TIP3    H180359   2.777   4.635  14.379 -0.8639 -1.6578 -0.9718
19648TIP3    H280360   2.673   4.606  14.485  0.6545 -0.1985  0.9962
19649TIP3   OH280361   0.466   4.295  15.981  0.3529 -0.1279 -0.1873
19649TIP3    H180362   0.518   4.320  16.058 -0.5930  2.0542 -0.1847
19649TIP3    H280363   0.531   4.271  15.915  1.1788 -3.6197  1.6815
19650TIP3   OH280364   3.590   3.720   1.410  0.7460 -0.0700 -0.4917
19650TIP3    H180365   3.622   3.632   1.390 -0.7828 -0.8589  0.3513
19650TIP3    H280366   3.661   3.778   1.384  1.4546 -1.4841 -1.8826
19651TIP3   OH280367   3.427   0.798   0.666 -0.2154  0.0277  0.0027
19651TIP3    H180368   3.358   0.854   0.702  0.4136  1.7045 -1.2814
19651TIP3    H280369   3.380   0.720   0.636 -1.3860  0.6206  0.2045
19652TIP3   OH280370   5.264   6.182  15.209 -0.2088 -0.1714 -0.6141
19652TIP3    H180371   5.291   6.207  15.121  0.2445 -1.1708 -0.7755
19652TIP3    H280372   5.302   6.248  15.266 -1.8554  1.4276 -1.2734
19653TIP3   OH280373   2.807   0.826  15.582  1.1837  0.1376 -0.2846
19653TIP3    H180374   2.846   0.903  15.622  0.2701  0.5575 -0.1580
19653TIP3    H280375   2.823   0.755  15.644  1.6509  0.3199 -0.1968
19654TIP3   OH280376   5.179   2.913  12.605 -0.5830 -0.1569 -0.0589
19654TIP3    H180377   5.095   2.869  12.619  0.5607 -2.2331  0.5968
19654TIP3    H280378   5.211   2.933  12.693  0.8021 -1.8110 -0.1390
19655TIP3   OH280379   4.959   4.003   3.277 -0.0447 -0.0727 -0.1340
19655TIP3    H180380   5.049   4.021   3.305 -0.1917  0.5846 -0.0761
19655TIP3    H280381   4.923   4.088   3.253 -1.2240 -0.0480  1.5240
19656TIP3   OH280382   5.880   5.136  12.395 -0.9183  0.0636  0.5234
19656TIP3    H180383   5.850   5.126  12.305 -0.1256 -0.3906  0.3001
19656TIP3    H280384   5.860   5.052  12.437 -0.0910 -0.2017  0.4037
19657TIP3   OH280385   6.312   2.428  12.744 -0.6633  0.0975  0.2209
19657TIP3    H180386   6.368   2.358  12.712 -1.4336  0.1377 -1.3050
19657TIP3    H280387   6.257   2.387  12.811 -1.4600 -0.9041 -1.0152
19658TIP3   OH280388   3.934   2.532  17.057  0.0204 -0.3378  0.4053
19658TIP3    H180389   3.901   2.472  17.124 -0.7458 -0.8389 -0.3957
19658TIP3    H280390   3.947   2.615  17.103  1.9431 -1.3137  1.7421
19659TIP3   OH280391   1.455   4.079   4.900  0.8242 -0.2715 -0.2271
19659TIP3    H180392   1.525   4.014   4.906 -0.5895 -1.8066  0.6659
19659TIP3    H280393   1.375   4.027   4.891 -0.3031  1.3725 -0.1465
19660TIP3   OH280394   6.066   2.456  13.390 -0.2641 -0.0590  0.3025
19660TIP3    H180395   6.106   2.536  13.426  0.0478 -0.7122  1.4653
19660TIP3    H280396   6.026   2.484  13.308 -0.0605  1.2695  0.6322
19661TIP3   OH280397   4.187   0.114   4.308 -0.4556 -0.7435 -0.5593
19661TIP3    H180398   4.110   0.166   4.330 -1.4783 -2.4222 -0.0237
19661TIP3    H280399   4.247   0.128   4.381 -1.3519 -1.4771  0.3562
19662TIP3   OH280400   0.679   0.720  14.427  0.5029 -0.5452  0.3710
19662TIP3    H180401   0.634   0.662  14.489 -0.9146  1.0963  0.9515
19662TIP3    H280402   0.772   0.709  14.448  0.0941 -0.3362  2.5688
19663TIP3   OH280403   3.307   3.082   5.387  0.2550  0.0002  0.1989
19663TIP3    H180404   3.261   3.023   5.329  0.3394  1.5205 -1.5059
19663TIP3    H280405   3.242   3.149   5.411  0.9690  1.0064 -0.5621
19664TIP3   OH280406   3.276   3.142  13.292 -0.6266 -0.1235 -0.1775
19664TIP3    H180407   3.319   3.188  13.365  0.3210 -0.6075 -0.4237
19664TIP3    H280408   3.191   3.186  13.284  0.3242  1.7485 -0.5568
19665TIP3   OH280409   3.572   4.742  14.963 -0.5171 -0.0846  0.1434
19665TIP3    H180410   3.631   4.724  15.037  0.9088 -0.2860 -1.0019
19665TIP3    H280411   3.487   4.760  15.004  0.6473  1.7126  1.9599
19666TIP3   OH280412   4.891   4.030   1.216  0.4104  0.2375  0.1096
19666TIP3    H180413   4.913   4.114   1.176  1.1563 -0.2239 -0.4764
19666TIP3    H280414   4.816   3.998   1.165  1.7737 -0.6642 -1.4453
19667TIP3   OH280415   2.806   4.386  13.704 -0.2697 -0.0874  0.1770
19667TIP3    H180416   2.863   4.365  13.778  0.0062  0.2148  0.0510
19667TIP3    H280417   2.748   4.455  13.737  1.3850  1.7547 -0.5637
19668TIP3   OH280418   2.333   2.836   6.194 -1.1280  0.0704  0.7388
19668TIP3    H180419   2.401   2.802   6.135 -1.7401  0.1466 -0.0279
19668TIP3    H280420   2.251   2.819   6.148 -1.6949 -0.7097  1.9930
19669TIP3   OH280421   3.912   1.073  16.584  0.7855 -0.3511 -0.1236
19669TIP3    H180422   3.948   0.988  16.561 -1.1601 -0.9065 -1.3587
19669TIP3    H280423   3.972   1.107  16.651  2.6509 -1.8441 -0.9314
19670TIP3   OH280424   6.136   4.094  13.971  0.3336  0.1855  0.2819
19670TIP3    H180425   6.108   4.008  14.003  1.8645 -0.6757 -0.5608
19670TIP3    H280426   6.224   4.079  13.937  0.0470  1.7624 -1.2930
19671TIP3   OH280427   2.958   2.085   4.070  0.3527  0.5092 -0.0801
19671TIP3    H180428   2.887   2.140   4.101  0.8421  0.8891  0.3811
19671TIP3    H280429   3.014   2.072   4.146  0.4633 -0.2824 -0.2904
19672TIP3   OH280430   6.380   0.026   0.712  0.4475  0.2549 -0.1286
19672TIP3    H180431   6.327  -0.054   0.712  0.0596  0.4668 -2.0568
19672TIP3    H280432   6.340   0.081   0.779  1.0836 -1.3516  1.6633
19673TIP3   OH280433   2.474   1.886  11.396  0.6057  0.2277 -0.0981
19673TIP3    H180434   2.413   1.814  11.380  0.0907  0.5636  0.3429
19673TIP3    H280435   2.553   1.861  11.348  1.4847 -2.0284  2.2507
19674TIP3   OH280436   0.892   6.706   0.079  0.3480 -0.0552 -0.3450
19674TIP3    H180437   0.912   6.786   0.126  0.7099 -0.8624  0.9239
19674TIP3    H280438   0.842   6.653   0.141  1.8872 -1.6573 -0.3703
19675TIP3   OH280439   3.170   5.766  13.447  0.4783 -0.1992  0.9217
19675TIP3    H180440   3.110   5.736  13.516  1.2373 -1.0548  1.2248
19675TIP3    H280441   3.142   5.718  13.369  0.6999 -0.5268  1.0407
19676TIP3   OH280442   1.410   1.745   0.794  0.0428 -0.1711 -0.1175
19676TIP3    H180443   1.433   1.838   0.790  0.4811 -0.2736 -0.0422
19676TIP3    H280444   1.486   1.704   0.834 -0.2461 -0.5323  0.0610
19677TIP3   OH280445   6.495   3.797  13.093 -0.1529  0.5716 -0.3015
19677TIP3    H180446   6.419   3.851  13.112 -0.2064  0.4774 -0.2462
19677TIP3    H280447   6.506   3.803  12.998  0.1659  1.1107 -0.2317
19678TIP3   OH280448   0.615   1.733  11.791 -0.1676 -0.1471  0.1964
19678TIP3    H180449   0.570   1.650  11.806  1.1825 -0.9425  0.0885
19678TIP3    H280450   0.601   1.784  11.871 -1.0716 -0.4407  0.2339
19679TIP3   OH280451   3.580   0.914  13.585  0.4584  0.4158 -0.2655
19679TIP3    H180452   3.579   0.849  13.515  1.9079  0.0667 -0.0080
19679TIP3    H280453   3.490   0.945  13.591  0.1017 -0.3037 -1.5721
19680TIP3   OH280454   4.148   2.857   0.478  0.1317 -0.0602  0.0394
19680TIP3    H180455   4.076   2.914   0.504 -1.0122 -1.5430  0.2581
19680TIP3    H280456   4.206   2.914   0.428 -2.9285  0.4847 -3.2767
19681TIP3   OH280457   1.911   3.250  15.194 -0.1116 -0.3383 -0.3862
19681TIP3    H180458   1.829   3.202  15.186 -0.2231 -0.4456  1.1587
19681TIP3    H280459   1.979   3.183  15.185 -0.2483 -0.6308  0.6482
19682TIP3   OH280460   6.213   1.558   1.613 -0.0004 -0.7478 -0.1906
19682TIP3    H180461   6.166   1.509   1.681  0.2732  0.2223  0.7207
19682TIP3    H280462   6.150   1.625   1.584  0.5354  0.0638  0.4849
19683TIP3   OH280463   2.379   0.529   2.947  0.3574  0.1534 -0.3467
19683TIP3    H180464   2.292   0.490   2.955  1.4846 -2.6834 -0.7705
19683TIP3    H280465   2.412   0.534   3.037  0.4330 -0.5190 -0.3309
19684TIP3   OH280466   5.482   6.622  15.229  0.3528  0.2029  0.0827
19684TIP3    H180467   5.531   6.542  15.210  0.4605  0.8050 -2.4702
19684TIP3    H280468   5.476   6.623  15.325  4.7138 -0.2805  0.5827
19685TIP3   OH280469   1.613   1.069  12.856  0.1518 -0.4322  0.3450
19685TIP3    H180470   1.700   1.087  12.820  0.0503  0.4137  0.4947
19685TIP3    H280471   1.557   1.138  12.819 -0.2689 -0.4545  0.9248
19686TIP3   OH280472   3.396   5.875  13.545  0.3072 -0.7454  0.3385
19686TIP3    H180473   3.320   5.837  13.501 -0.4318 -1.1391  1.8485
19686TIP3    H280474   3.416   5.954  13.495 -0.8162 -0.8814 -0.3721
19687TIP3   OH280475   2.590   1.440  14.630  0.3130  0.4198  0.0752
19687TIP3    H180476   2.567   1.434  14.538  0.8260  1.7533 -0.1660
19687TIP3    H280477   2.587   1.350  14.662  1.5507 -0.2524 -1.5870
19688TIP3   OH280478   2.290   4.467   5.354 -0.3901  0.0058  0.2288
19688TIP3    H180479   2.308   4.505   5.440 -0.1356 -1.7158  0.9743
19688TIP3    H280480   2.194   4.466   5.348 -0.4508 -1.1219  1.1097
19689TIP3   OH280481   3.949   1.776   4.144  0.3520  0.1602  0.9262
19689TIP3    H180482   3.858   1.770   4.171 -0.2093 -0.4307 -0.9784
19689TIP3    H280483   3.992   1.704   4.191 -0.3102 -0.0277  1.2565
19690TIP3   OH280484   5.068   3.202  16.317  0.6479  0.2582 -0.4349
19690TIP3    H180485   5.114   3.286  16.311  0.2375  0.5233  0.0492
19690TIP3    H280486   5.122   3.149  16.375  0.5200  0.4524 -0.1372
19691TIP3   OH280487   2.766   5.296  15.485 -0.4369  0.0946  0.6490
19691TIP3    H180488   2.859   5.316  15.472 -0.3482  0.1692  1.3456
19691TIP3    H280489   2.741   5.347  15.563 -0.8739 -0.4866  0.8994
19692TIP3   OH280490   1.713   4.109  15.347 -0.2667  0.0160 -0.0982
19692TIP3    H180491   1.736   4.021  15.320 -1.4921 -0.0227 -1.1242
19692TIP3    H280492   1.625   4.123  15.311 -0.0001  1.7351 -0.1784
19693TIP3   OH280493   2.568   6.003   4.651 -0.3286 -0.2554  0.2920
19693TIP3    H180494   2.514   6.082   4.646 -0.3781 -0.3359 -0.5347
19693TIP3    H280495   2.640   6.027   4.710 -1.0102 -0.0052  1.0396
19694TIP3   OH280496   3.437   4.094  12.130  0.0518 -0.1787 -0.2188
19694TIP3    H180497   3.359   4.144  12.108  0.0708 -0.0203  0.0753
19694TIP3    H280498   3.457   4.045  12.050 -0.3929 -0.2827 -0.2675
19695TIP3   OH280499   3.048   5.665  13.678  0.7333  0.1639  0.3254
19695TIP3    H180500   3.097   5.585  13.659  0.5610 -0.1237  1.0471
19695TIP3    H280501   3.068   5.684  13.770  1.1502  1.2189  0.0282
19696TIP3   OH280502   5.577   1.653  16.061 -0.0360 -0.0228 -0.2525
19696TIP3    H180503   5.628   1.733  16.050 -1.7110  1.1717  0.3240
19696TIP3    H280504   5.574   1.639  16.156  1.3662 -1.5753 -0.3809
19697TIP3   OH280505   4.713   2.997   1.768 -0.5317  0.3098  0.1781
19697TIP3    H180506   4.631   2.948   1.764 -1.2343  1.4584 -0.0250
19697TIP3    H280507   4.703   3.065   1.701 -0.4057  1.9215  1.7237
19698TIP3   OH280508   2.992   3.825   0.301 -0.4756 -0.4440 -0.2617
19698TIP3    H180509   2.907   3.807   0.339 -0.8422  0.8553 -0.4057
19698TIP3    H280510   3.035   3.739   0.294 -1.2317 -0.9476  1.0462
19699TIP3   OH280511   1.677   2.435   0.664  0.5225 -0.0781  0.5107
19699TIP3    H180512   1.704   2.436   0.573  2.7086 -0.6737  1.1035
19699TIP3    H280513   1.679   2.527   0.691  0.7609  0.0014  0.2206
19700TIP3   OH280514   1.781   6.314  11.175  0.1541 -0.0139  0.2946
19700TIP3    H180515   1.712   6.287  11.236  0.3958 -0.5609  0.3325
19700TIP3    H280516   1.809   6.233  11.133 -1.9518  0.6170 -2.6915
19701TIP3   OH280517   0.247   6.263   4.614  0.0632  0.1951  0.4486
19701TIP3    H180518   0.177   6.202   4.637  0.1550 -0.1629 -0.1839
19701TIP3    H280519   0.237   6.275   4.519  1.6838 -0.9244  0.1003
19702TIP3   OH280520   5.508   4.211  12.822 -0.4166 -0.2159 -0.0685
19702TIP3    H180521   5.509   4.275  12.751 -1.6257 -1.3004 -1.1070
19702TIP3    H280522   5.447   4.247  12.886 -2.2136 -0.9119 -1.2901
19703TIP3   OH280523   0.592   2.343   1.230 -0.8366 -0.3221 -0.2102
19703TIP3    H180524   0.562   2.258   1.199 -1.1031 -0.2183 -0.2320
19703TIP3    H280525   0.526   2.405   1.201 -0.8891 -0.1713  0.2242
19704TIP3   OH280526   4.292   3.053   4.825  0.1421 -0.9996 -0.1039
19704TIP3    H180527   4.200   3.062   4.851 -0.2697  0.1192 -1.7605
19704TIP3    H280528   4.340   3.105   4.889 -0.5731 -0.2058 -0.1938
19705TIP3   OH280529   2.350   3.294  15.902  0.0171 -0.0737  0.4007
19705TIP3    H180530   2.296   3.235  15.849  0.3422 -0.3791  0.4061
19705TIP3    H280531   2.358   3.373  15.849 -1.8068  0.6202  1.0878
19706TIP3   OH280532   2.984   3.300  16.483  0.2183 -0.0950 -0.1543
19706TIP3    H180533   3.002   3.251  16.403  0.3465 -0.9497  0.3873
19706TIP3    H280534   3.070   3.331  16.511 -0.0441  2.0244 -1.4529
19707TIP3   OH280535   2.848   0.946  13.147 -0.2366  0.2031 -0.7399
19707TIP3    H180536   2.863   0.852  13.155 -1.8671 -0.0170  0.1570
19707TIP3    H280537   2.847   0.977  13.238 -1.0270  0.8564 -0.9662
19708TIP3   OH280538   4.592   6.057  12.661  0.2871  0.3708 -0.0704
19708TIP3    H180539   4.565   6.148  12.670 -0.1240  0.5504 -2.5358
19708TIP3    H280540   4.659   6.045  12.728 -0.1871  2.2520  0.7881
19709TIP3   OH280541   1.043   2.407  13.384 -0.5239 -0.0246 -0.5087
19709TIP3    H180542   1.110   2.442  13.325  1.2820 -0.1826  1.3393
19709TIP3    H280543   0.963   2.407  13.331  0.4380  2.1849 -2.1525
19710TIP3   OH280544   6.251   3.374   5.606 -0.4434 -0.0584 -0.8654
19710TIP3    H180545   6.177   3.390   5.665 -0.3750 -0.0215 -0.7894
19710TIP3    H280546   6.305   3.452   5.614  0.2811 -0.6214  0.0739
19711TIP3   OH280547   1.181   0.620  15.768  0.2038 -0.2748 -0.0647
19711TIP3    H180548   1.138   0.535  15.763 -1.2413  0.4430 -0.2668
19711TIP3    H280549   1.110   0.683  15.757  0.9620  1.0068  1.9982
19712TIP3   OH280550   6.687   0.392  14.966 -0.0879  0.0139 -0.1020
19712TIP3    H180551   6.722   0.310  15.001 -0.2946 -0.5125 -1.0785
19712TIP3    H280552   6.753   0.421  14.904  0.5275  1.2189  1.0846
19713TIP3   OH280553   4.326   5.887   4.206 -0.2460 -0.4825  0.0098
19713TIP3    H180554   4.352   5.864   4.117 -2.8135  0.3093 -1.0273
19713TIP3    H280555   4.346   5.980   4.214  1.6221 -0.9075  0.9673
19714TIP3   OH280556   5.461   4.556   3.935  0.0518  0.3813 -0.0535
19714TIP3    H180557   5.500   4.474   3.905  2.5729  1.0058  1.1763
19714TIP3    H280558   5.371   4.534   3.958  0.7178 -2.1028  0.4276
19715TIP3   OH280559   3.294   3.497  11.571 -0.3679 -0.0077  0.0176
19715TIP3    H180560   3.310   3.591  11.563 -0.7629 -0.0481 -1.6209
19715TIP3    H280561   3.372   3.463  11.614  0.8621  0.7612 -1.5151
19716TIP3   OH280562   1.343   5.793   2.869 -0.2904 -0.3655  1.1122
19716TIP3    H180563   1.389   5.752   2.795  0.5667 -0.2201  1.5571
19716TIP3    H280564   1.294   5.866   2.829 -0.6522 -0.9072  0.5409
19717TIP3   OH280565   4.059   6.767  10.918  0.2606  0.2642  0.7124
19717TIP3    H180566   4.090   6.681  10.891  1.1049  0.7947 -0.0988
19717TIP3    H280567   3.999   6.794  10.849 -1.4739 -0.4248  1.8906
19718TIP3   OH280568   1.098   5.361   5.044 -0.3258 -0.4344  0.3505
19718TIP3    H180569   1.167   5.304   5.010 -2.1509 -1.6619 -1.5163
19718TIP3    H280570   1.035   5.301   5.084 -0.1591  0.6986  2.4625
19719TIP3   OH280571   5.554   0.221   4.190  0.3747 -0.0912  0.3998
19719TIP3    H180572   5.503   0.154   4.235 -0.4842  0.6605  0.5687
19719TIP3    H280573   5.645   0.192   4.199 -0.0676 -2.2836 -1.2313
19720TIP3   OH280574   5.276   5.580  16.976  0.1279  0.1226  0.7301
19720TIP3    H180575   5.272   5.502  17.031 -1.0060  1.2197  2.2787
19720TIP3    H280576   5.207   5.637  17.010  0.8736  1.7800 -0.4057
19721TIP3   OH280577   2.964   0.928  13.613  0.1878  0.0786 -0.1177
19721TIP3    H180578   3.043   0.974  13.585  1.4753 -1.3797  0.9335
19721TIP3    H280579   2.985   0.835  13.601 -0.3561 -0.4690  2.6124
19722TIP3   OH280580   0.167   4.999   1.063  0.4646 -0.0222 -0.0461
19722TIP3    H180581   0.098   5.065   1.054  0.8900  0.4824  0.3743
19722TIP3    H280582   0.121   4.915   1.051 -0.3879  0.2659  1.0260
19723TIP3   OH280583   2.932   3.667   1.412  0.3755  0.2038 -0.2436
19723TIP3    H180584   2.913   3.573   1.408  0.4862  0.0556  1.6767
19723TIP3    H280585   2.851   3.706   1.444  0.5604  0.6675 -0.3430
19724TIP3   OH280586   1.083   2.041   0.161 -0.3224  0.5407 -0.5852
19724TIP3    H180587   1.115   1.959   0.199  0.4196  0.6934 -0.8646
19724TIP3    H280588   0.989   2.028   0.152 -0.3702  0.1235  0.3649
19725TIP3   OH280589   2.074   2.789   2.814 -0.1318  0.4805  0.0768
19725TIP3    H180590   2.075   2.821   2.724 -2.3841 -3.8144 -1.8041
19725TIP3    H280591   2.165   2.766   2.832  0.0103 -1.4243 -2.4706
19726TIP3   OH280592   4.580   5.552   3.988  0.4809 -0.1195  0.5399
19726TIP3    H180593   4.612   5.575   4.076 -0.8939 -1.6242  1.4998
19726TIP3    H280594   4.486   5.543   3.998  0.0737  1.3091 -1.5303
19727TIP3   OH280595   4.873   5.536   2.284 -0.3665  0.1768  0.1346
19727TIP3    H180596   4.886   5.569   2.195 -2.3001  1.5897  0.3088
19727TIP3    H280597   4.852   5.443   2.273  2.6566 -0.5387 -0.5738
19728TIP3   OH280598   1.905   3.451   3.842  0.0033 -0.4979 -0.3198
19728TIP3    H180599   1.841   3.386   3.872  0.4722 -0.3891  0.9818
19728TIP3    H280600   1.903   3.444   3.746  2.2956 -4.6686 -0.3019
19729TIP3   OH280601   3.134   6.768  14.554 -0.5816  0.4769  0.2588
19729TIP3    H180602   3.136   6.819  14.473  1.9545 -2.0016 -1.4013
19729TIP3    H280603   3.053   6.719  14.550 -0.8716  0.9990 -0.3563
19730TIP3   OH280604   0.603   2.813   1.681  0.6365  0.1315  0.2072
19730TIP3    H180605   0.652   2.896   1.676  1.5570 -0.4136 -0.1531
19730TIP3    H280606   0.532   2.823   1.618  1.3840  0.2542 -0.6418
19731TIP3   OH280607   0.030   0.948   5.390  0.4815 -0.5967 -0.1710
19731TIP3    H180608   0.100   0.997   5.433  0.6832  0.1110 -1.2733
19731TIP3    H280609   0.066   0.861   5.376  1.1845 -0.2204 -0.7882
19732TIP3   OH280610   6.142   6.673  13.902  0.5000 -0.3403  0.3090
19732TIP3    H180611   6.193   6.680  13.821  1.5174 -2.5217  0.7076
19732TIP3    H280612   6.060   6.720  13.883  0.0522 -2.0787 -2.5363
19733TIP3   OH280613   1.462   4.267  13.254 -0.0698  0.4669  0.4264
19733TIP3    H180614   1.474   4.174  13.236  0.6831  0.4351  1.0364
19733TIP3    H280615   1.446   4.272  13.348  1.1002  1.0309  0.6198
19734TIP3   OH280616   2.393   4.701   1.555 -0.0835  0.3574  0.3206
19734TIP3    H180617   2.455   4.635   1.525  1.7906  2.1412  0.0841
19734TIP3    H280618   2.385   4.686   1.649  2.4731  1.4587  0.7639
19735TIP3   OH280619   6.619   3.520   1.965 -0.1161 -0.0855  0.0952
19735TIP3    H180620   6.691   3.482   1.914  0.7727  1.7294 -0.0594
19735TIP3    H280621   6.574   3.444   2.002  0.1002 -1.4096 -2.1731
19736TIP3   OH280622   5.162   1.615  15.510  0.2922  0.3700  0.1038
19736TIP3    H180623   5.201   1.540  15.465  0.2440 -1.1043  2.3363
19736TIP3    H280624   5.067   1.601  15.503  0.2467  1.0413 -0.7293
19737TIP3   OH280625   6.008   2.200  13.067  0.1614 -0.2079  0.0719
19737TIP3    H180626   5.996   2.188  12.973  0.7652  1.3350 -0.2183
19737TIP3    H280627   6.073   2.134  13.092 -1.9783 -2.5126 -0.0181
19738TIP3   OH280628   4.585   3.428  15.187  0.2932 -0.3263 -0.0179
19738TIP3    H180629   4.498   3.445  15.152  0.6548 -1.0501 -1.3215
19738TIP3    H280630   4.632   3.511  15.176  0.5798 -0.6930 -1.8619
19739TIP3   OH280631   4.524   2.408   1.197  0.0781 -0.5424  0.8744
19739TIP3    H180632   4.430   2.416   1.215  0.2027  1.5441  0.8729
19739TIP3    H280633   4.560   2.494   1.221  1.3491  0.1363 -2.8465
19740TIP3   OH280634   6.092   3.381  12.566  0.0660 -0.1065  0.0131
19740TIP3    H180635   6.017   3.347  12.518 -1.5030  2.7185  0.2300
19740TIP3    H280636   6.167   3.365  12.509 -1.2232  0.0970 -1.8156
19741TIP3   OH280637   2.115   1.196  11.313 -0.4446 -0.1953  0.4607
19741TIP3    H180638   2.024   1.200  11.344 -0.3699 -1.5454  0.9313
19741TIP3    H280639   2.146   1.286  11.316 -2.1456  0.5018 -0.8735
19742TIP3   OH280640   0.013   6.077  11.922 -0.1899  0.2090 -0.2795
19742TIP3    H180641   0.106   6.068  11.942 -0.3011 -0.1504  0.1028
19742TIP3    H280642   0.009   6.086  11.827  0.3189  1.3986 -0.2098
19743TIP3   OH280643   4.340   2.085   2.543 -0.8401  0.0936  0.5317
19743TIP3    H180644   4.306   2.011   2.491 -1.1247  0.5347  0.0805
19743TIP3    H280645   4.287   2.160   2.514  2.5271  1.5545 -2.5960
19744TIP3   OH280646   0.437   2.091  12.465  0.1724  0.2358  0.7425
19744TIP3    H180647   0.444   2.013  12.520 -1.1166 -0.2323  0.2772
19744TIP3    H280648   0.525   2.104  12.430  0.0887 -1.9456 -0.4294
19745TIP3   OH280649   2.499   6.673   0.464 -0.3307  0.0133 -0.2464
19745TIP3    H180650   2.541   6.605   0.516 -1.3413 -0.3941  0.0712
19745TIP3    H280651   2.415   6.634   0.438  0.8265 -0.5184 -3.7218
19746TIP3   OH280652   4.325   6.697   3.832  0.3074  0.1150 -0.1616
19746TIP3    H180653   4.400   6.746   3.796  0.9426 -0.4324  0.3816
19746TIP3    H280654   4.279   6.762   3.886  1.3414  0.0677  0.8314
19747TIP3   OH280655   1.538   1.165   3.742 -0.3988 -0.2913 -0.2885
19747TIP3    H180656   1.490   1.177   3.824 -0.6480 -0.8068 -0.3580
19747TIP3    H280657   1.469   1.157   3.675 -0.1996  0.8733 -0.6629
19748TIP3   OH280658   5.405   0.493   0.553  0.1544 -0.5030  0.8386
19748TIP3    H180659   5.453   0.573   0.574  0.5706 -0.7465  0.8311
19748TIP3    H280660   5.417   0.437   0.630  0.4435 -0.8234  0.5621
19749TIP3   OH280661   2.265   0.049   4.988 -0.0314  0.4875  0.7473
19749TIP3    H180662   2.321   0.016   5.058 -0.6524  1.7843  1.9051
19749TIP3    H280663   2.325   0.073   4.918  0.5417 -1.7252  0.3957
19750TIP3   OH280664   3.767   0.156   5.153 -0.2970 -0.7306 -0.3851
19750TIP3    H180665   3.766   0.151   5.058  0.3558 -1.3492 -0.3674
19750TIP3    H280666   3.714   0.082   5.182 -1.6180  0.2274 -0.2707
19751TIP3   OH280667   3.005   1.834  14.034  0.4067 -0.2791 -0.1531
19751TIP3    H180668   3.074   1.800  14.091 -1.0009 -1.6106  0.8587
19751TIP3    H280669   3.004   1.775  13.959 -0.2292 -0.8773  0.3028
19752TIP3   OH280670   1.163   2.362   5.082 -0.8297 -0.0091 -0.6526
19752TIP3    H180671   1.193   2.271   5.079 -0.2710  0.2037 -1.7558
19752TIP3    H280672   1.242   2.414   5.088 -1.0232  0.4848 -2.0380
19753TIP3   OH280673   3.394   3.660   5.411  0.5494 -0.0507  0.2535
19753TIP3    H180674   3.326   3.610   5.366 -0.6776 -0.3789  2.3491
19753TIP3    H280675   3.476   3.619   5.383 -0.2572 -1.3915 -0.2686
19754TIP3   OH280676   3.852   1.300   2.133  0.0429 -0.1834  0.0467
19754TIP3    H180677   3.943   1.314   2.106 -0.3737  1.5297 -0.5532
19754TIP3    H280678   3.806   1.380   2.107 -1.2505 -0.1966  2.0517
19755TIP3   OH280679   5.705   0.313  14.121  0.4972 -0.2264  0.3310
19755TIP3    H180680   5.710   0.395  14.169  0.4292 -0.5059  0.8238
19755TIP3    H280681   5.755   0.328  14.041  0.2416  0.3857  0.2830
19756TIP3   OH280682   5.238   0.189   1.363  0.2148 -0.1368  0.3472
19756TIP3    H180683   5.285   0.106   1.363  0.5232  0.0308 -0.0584
19756TIP3    H280684   5.160   0.173   1.416  0.9682 -0.2876  1.4409
19757TIP3   OH280685   1.896   4.523   1.084 -0.3829  0.5926  0.3198
19757TIP3    H180686   1.811   4.527   1.128  0.2850  2.0021  1.5568
19757TIP3    H280687   1.922   4.614   1.073  1.5867  0.1909  1.2230
19758TIP3   OH280688   1.278   3.470   1.226 -0.2079 -0.4943 -0.5289
19758TIP3    H180689   1.344   3.406   1.251  0.0601  0.1170  0.3496
19758TIP3    H280690   1.278   3.468   1.130  0.8584 -0.7275 -0.5317
19759TIP3   OH280691   3.294   5.432   5.287 -0.2562  0.1433 -0.4648
19759TIP3    H180692   3.208   5.447   5.327 -0.7153  0.3420 -1.4813
19759TIP3    H280693   3.309   5.338   5.295 -0.8442  0.0183 -0.8217
19760TIP3   OH280694   5.020   0.247  15.878  0.4616  0.2950  0.7235
19760TIP3    H180695   5.040   0.211  15.964  0.1270  1.7057  1.4136
19760TIP3    H280696   5.090   0.309  15.861  0.6857 -0.1794 -0.1742
19761TIP3   OH280697   2.270   0.611   3.388  0.3377  0.0686  0.4313
19761TIP3    H180698   2.325   0.553   3.335 -1.5359  0.8418 -2.6174
19761TIP3    H280699   2.304   0.699   3.370  0.2045  0.2812  1.2128
19762TIP3   OH280700   1.129   0.678  12.081  0.1201  0.1789  0.1335
19762TIP3    H180701   1.199   0.687  12.017  0.4917 -0.7609  0.3785
19762TIP3    H280702   1.048   0.685  12.030  0.3955  0.9681 -0.1964
19763TIP3   OH280703   1.596   0.481   0.199  0.2211 -0.6596 -0.1212
19763TIP3    H180704   1.674   0.429   0.178  0.2388 -0.9439  0.6111
19763TIP3    H280705   1.561   0.440   0.278  0.1332  0.3347  0.3710
19764TIP3   OH280706   0.028   6.694   1.501 -0.9039 -0.1595  0.2447
19764TIP3    H180707   0.083   6.767   1.473  0.8685 -0.9923  1.4158
19764TIP3    H280708   0.029   6.633   1.427 -0.1309 -0.2296  0.3083
19765TIP3   OH280709   5.502   4.451  12.692 -0.4573  0.1937  0.7321
19765TIP3    H180710   5.536   4.505  12.621  0.6046 -1.6868 -0.2813
19765TIP3    H280711   5.409   4.472  12.697 -0.1943  1.6637  0.0224
19766TIP3   OH280712   1.565   4.335   2.601 -0.4259 -0.1858 -0.3015
19766TIP3    H180713   1.605   4.248   2.594 -0.5070 -0.2366 -0.1517
19766TIP3    H280714   1.639   4.396   2.604 -0.3368 -0.3289  0.6633
19767TIP3   OH280715   3.648   6.345   3.430  0.2684 -0.3056 -0.1684
19767TIP3    H180716   3.714   6.376   3.369 -0.0862  0.1316 -0.3333
19767TIP3    H280717   3.580   6.306   3.375  0.1599 -0.3203 -0.0282
19768TIP3   OH280718   2.298   2.625  12.119 -0.0213 -0.4295 -0.3662
19768TIP3    H180719   2.260   2.651  12.203 -1.7969  1.2355 -1.5964
19768TIP3    H280720   2.390   2.650  12.126 -0.8782  3.2535 -0.1864
19769TIP3   OH280721   1.035   3.880  17.030 -0.5616 -0.2401 -0.3573
19769TIP3    H180722   1.055   3.969  17.057  0.3096 -0.3002 -0.7735
19769TIP3    H280723   1.060   3.826  17.105  0.6720 -0.2895 -0.7709
19770TIP3   OH280724   6.105   5.849   5.282 -0.0788 -0.1366  0.2735
19770TIP3    H180725   6.093   5.905   5.359  0.3709  1.1041 -0.5440
19770TIP3    H280726   6.185   5.801   5.301  1.4052  1.9392 -0.4268
19771TIP3   OH280727   0.581   3.316   0.154  0.1526  0.0028 -0.2623
19771TIP3    H180728   0.611   3.385   0.095  1.1075  0.3788  0.6329
19771TIP3    H280729   0.653   3.254   0.158 -0.2274 -0.4385 -0.1183
19772TIP3   OH280730   4.723   0.025  15.594  0.2220 -0.0577 -0.6115
19772TIP3    H180731   4.630   0.044  15.581  0.2557 -0.3283 -1.3013
19772TIP3    H280732   4.730  -0.069  15.581 -0.1858 -0.9740  4.2165
19773TIP3   OH280733   3.103   3.260   6.184  0.6208  0.7311  0.5028
19773TIP3    H180734   3.146   3.258   6.269  2.8122 -0.4189 -0.5398
19773TIP3    H280735   3.147   3.330   6.136  1.0001 -0.1247 -0.4297
19774TIP3   OH280736   1.477   1.221  16.703 -0.2309 -0.0778  0.4257
19774TIP3    H180737   1.490   1.135  16.743  1.2506  0.3278  0.8765
19774TIP3    H280738   1.391   1.215  16.662  0.0255 -1.9440  0.0445
19775TIP3   OH280739   0.367   5.308  14.750 -0.6688 -0.0904 -0.2173
19775TIP3    H180740   0.348   5.325  14.658 -2.4740  0.0545  0.1475
19775TIP3    H280741   0.342   5.388  14.795 -2.3367 -1.0650  0.6776
19776TIP3   OH280742   1.023   5.658  14.044  0.0280  0.2341  0.0897
19776TIP3    H180743   0.980   5.719  14.104 -0.0402 -0.6035  0.9188
19776TIP3    H280744   1.108   5.697  14.026 -0.4404  1.1066 -0.2602
19777TIP3   OH280745   6.611   2.472  15.745 -0.1494  0.3635 -0.1069
19777TIP3    H180746   6.635   2.425  15.665  0.9406 -1.1562  1.0519
19777TIP3    H280747   6.521   2.502  15.730 -1.3507 -3.0174 -0.5766
19778TIP3   OH280748   5.403   3.956  12.872 -0.2369  0.5716 -0.7094
19778TIP3    H180749   5.402   4.051  12.868 -1.2382  0.6106  0.1484
19778TIP3    H280750   5.437   3.936  12.959  1.0431  0.1118 -1.2899
19779TIP3   OH280751   5.088   6.165   4.961 -0.0324 -0.0592  0.1242
19779TIP3    H180752   5.056   6.145   5.049 -1.1689 -1.0049 -0.4762
19779TIP3    H280753   5.172   6.208   4.976 -0.8641  1.1761  1.7219
19780TIP3   OH280754   4.066   2.734   3.074 -0.1446  0.4002  0.6285
19780TIP3    H180755   4.074   2.704   3.165 -0.1485 -1.6532  0.0059
19780TIP3    H280756   3.975   2.762   3.066 -0.1236  0.6633  1.2748
19781TIP3   OH280757   1.393   2.788   2.080  0.1744  0.0464 -0.0244
19781TIP3    H180758   1.396   2.878   2.111  0.5333  0.0126  0.0350
19781TIP3    H280759   1.397   2.796   1.984 -0.7939  0.1416 -0.0722
19782TIP3   OH280760   4.472   1.805   3.588  0.1353 -0.2943 -0.1852
19782TIP3    H180761   4.393   1.858   3.580  0.3364 -0.0846 -0.8090
19782TIP3    H280762   4.487   1.799   3.683 -0.1581  0.3586 -0.0905
19783TIP3   OH280763   6.268   4.045  15.513  0.0393  0.9909  0.1985
19783TIP3    H180764   6.295   3.953  15.515  0.5494  1.1440  2.4075
19783TIP3    H280765   6.328   4.086  15.451  0.4789  0.0403 -0.0301
19784TIP3   OH280766   3.616   6.415   0.521 -0.2879 -0.1600 -0.3405
19784TIP3    H180767   3.649   6.429   0.432  0.3701  1.0331  0.0736
19784TIP3    H280768   3.694   6.394   0.572 -0.6894 -1.0379 -0.0617
19785TIP3   OH280769   1.050   4.710  13.354  0.0434  0.1467  0.1727
19785TIP3    H180770   1.027   4.761  13.276 -0.3263 -0.8001 -0.3484
19785TIP3    H280771   1.073   4.624  13.321 -0.9591 -0.5307  1.1769
19786TIP3   OH280772   1.298   3.998  16.527  0.0936 -0.4889  0.5334
19786TIP3    H180773   1.339   4.053  16.594  0.2059 -0.4336  0.4190
19786TIP3    H280774   1.209   4.034  16.518 -0.2579 -1.1121  1.3650
19787TIP3   OH280775   5.302   4.785  10.166 -0.1200 -0.2041 -0.1723
19787TIP3    H180776   5.322   4.860  10.110 -2.8457  0.4455 -0.4029
19787TIP3    H280777   5.308   4.819  10.255 -0.1297 -0.0284 -0.2378
19788TIP3   OH280778   2.258   1.518  15.338  0.4825 -0.0784 -0.1807
19788TIP3    H180779   2.236   1.519  15.245  0.8141  0.4832 -0.2617
19788TIP3    H280780   2.193   1.574  15.379 -1.1752 -2.2474  0.3148
19789TIP3   OH280781   3.052   1.923   2.391  1.1136 -0.9085 -0.5163
19789TIP3    H180782   3.009   1.886   2.467  2.2059 -1.8854 -0.3498
19789TIP3    H280783   3.145   1.915   2.410  1.4543  2.2910 -0.2932
19790TIP3   OH280784   4.233   0.317  13.670  0.3662  0.1997  0.1509
19790TIP3    H180785   4.270   0.230  13.661 -0.4651 -0.2324  0.7627
19790TIP3    H280786   4.256   0.362  13.589 -0.1632 -0.9623 -0.6708
19791TIP3   OH280787   3.815   1.431  15.818 -0.2823 -0.1302  0.4757
19791TIP3    H180788   3.823   1.406  15.910  0.9113  1.6805  0.9104
19791TIP3    H280789   3.904   1.431  15.785 -0.7162 -0.9851 -0.7819
19792TIP3   OH280790   2.012   0.941  12.358  0.1183  0.1423  0.2518
19792TIP3    H180791   2.049   0.894  12.433  0.2334 -0.2151 -0.0265
19792TIP3    H280792   2.025   1.034  12.379 -0.3869  0.0640  0.9428
19793TIP3   OH280793   5.168   1.199   1.469 -0.4536  0.1187  0.6155
19793TIP3    H180794   5.107   1.269   1.443  0.0441  0.8333  1.3201
19793TIP3    H280795   5.150   1.186   1.562  2.2037  2.2013  1.5642
19794TIP3   OH280796   1.676   3.954  12.458 -0.5730  0.2671  0.2882
19794TIP3    H180797   1.732   4.009  12.404  1.1795 -1.4927  0.1931
19794TIP3    H280798   1.736   3.888  12.495 -2.3799 -0.9334  1.2077
19795TIP3   OH280799   5.771   2.862   3.884  0.1667 -0.4046 -0.0105
19795TIP3    H180800   5.718   2.882   3.806  0.1922 -1.9580 -0.4625
19795TIP3    H280801   5.774   2.944   3.933 -0.8287  0.2932 -1.0709
19796TIP3   OH280802   2.499   2.728  12.552 -0.1154 -0.8561 -0.2923
19796TIP3    H180803   2.539   2.703  12.635 -2.7607  1.0593  1.7564
19796TIP3    H280804   2.459   2.648  12.519  2.1905 -1.9661 -0.5750
19797TIP3   OH280805   0.923   4.160  15.879  0.2183  0.5466  0.3240
19797TIP3    H180806   0.922   4.106  15.800  0.4309  1.0135 -0.0055
19797TIP3    H280807   1.004   4.210  15.873  0.5275  0.1461  1.1441
19798TIP3   OH280808   3.839   2.220  11.142 -0.1448 -0.6127 -0.3223
19798TIP3    H180809   3.828   2.289  11.077  0.3597  0.5116  0.7389
19798TIP3    H280810   3.883   2.149  11.094  1.0474  0.5330 -1.0093
19799TIP3   OH280811   2.181   2.548   1.303 -0.2516  0.0511 -0.5038
19799TIP3    H180812   2.172   2.489   1.228 -0.2129  0.4032 -0.7856
19799TIP3    H280813   2.273   2.542   1.328 -0.5285 -1.1037  0.3765
19800TIP3   OH280814   0.143   1.182  14.318  0.0806 -0.5904  0.2481
19800TIP3    H180815   0.121   1.093  14.290 -0.4134  0.2168 -2.1188
19800TIP3    H280816   0.059   1.228  14.320  0.5887  0.4501 -1.0319
19801TIP3   OH280817   4.217   4.137  11.780 -0.6240 -0.4031  0.2543
19801TIP3    H180818   4.267   4.193  11.839 -1.5313 -0.7029  1.3375
19801TIP3    H280819   4.131   4.130  11.820 -0.5322 -2.6130  0.2150
19802TIP3   OH280820   0.879   0.802  16.376  0.1361  0.2174 -0.1693
19802TIP3    H180821   0.834   0.883  16.352  1.1939  0.7169 -0.5488
19802TIP3    H280822   0.819   0.757  16.436 -0.7305  0.9804 -0.4566
19803TIP3   OH280823   0.763   4.939  11.792  0.0018 -0.3999  0.2485
19803TIP3    H180824   0.732   5.021  11.831 -1.2892 -0.8612  0.2442
19803TIP3    H280825   0.683   4.892  11.768  0.7294 -1.4247 -0.2574
19804TIP3   OH280826   4.353   0.914   2.898  0.2232 -0.8701 -0.0045
19804TIP3    H180827   4.279   0.854   2.902 -0.0379 -0.6531 -1.1065
19804TIP3    H280828   4.317   0.993   2.857  0.5400  0.0823  1.4569
19805TIP3   OH280829   1.041   4.668  12.363  0.7055 -0.5189  0.2707
19805TIP3    H180830   0.967   4.660  12.303  0.4332  4.3038 -0.4848
19805TIP3    H280831   1.117   4.684  12.306  1.2680 -0.1107  1.1112
19806TIP3   OH280832   5.426   4.250  15.148 -0.3166  0.1980 -0.2611
19806TIP3    H180833   5.433   4.194  15.071 -1.9970  0.2388 -0.4791
19806TIP3    H280834   5.407   4.337  15.112 -1.5169  0.1384  0.1921
19807TIP3   OH280835   0.317   6.686   1.749 -0.3975  0.1889  0.5078
19807TIP3    H180836   0.405   6.723   1.761 -0.1535  0.3334 -1.4195
19807TIP3    H280837   0.262   6.762   1.727 -0.5479 -0.1697 -0.3830
19808TIP3   OH280838   6.204   3.988   1.802  0.4671 -0.3916 -0.0887
19808TIP3    H180839   6.148   3.927   1.755 -0.1191  0.6334 -0.7467
19808TIP3    H280840   6.285   3.939   1.817  0.0012 -1.3356 -0.5646
19809TIP3   OH280841   6.655   1.057  14.834 -0.0785 -0.2931  0.1151
19809TIP3    H180842   6.587   1.083  14.896  0.2150 -0.6138  0.5798
19809TIP3    H280843   6.713   1.000  14.885 -0.9397 -2.2456 -0.9580
19810TIP3   OH280844   0.741   1.119   2.621  0.9624 -0.1983  0.3443
19810TIP3    H180845   0.792   1.200   2.623  1.6952 -0.6564  0.7163
19810TIP3    H280846   0.705   1.115   2.532  0.9329  0.5269  0.3221
19811TIP3   OH280847   3.143   5.757   5.432  0.2971 -0.6054  0.5068
19811TIP3    H180848   3.221   5.758   5.488  0.3540 -2.2737  0.5136
19811TIP3    H280849   3.083   5.819   5.472  0.8510 -0.7956  1.6684
19812TIP3   OH280850   2.106   2.310   4.088 -0.0517 -0.7044  0.3480
19812TIP3    H180851   2.179   2.352   4.043 -0.7143 -0.4066 -0.4800
19812TIP3    H280852   2.103   2.221   4.052 -0.2029 -0.6637  0.2603
19813TIP3   OH280853   0.327   4.442   1.349 -0.5172  0.4268  0.2489
19813TIP3    H180854   0.369   4.452   1.263  1.2890 -2.5569  0.6524
19813TIP3    H280855   0.237   4.470   1.334 -0.4485 -0.5466 -2.8419
19814TIP3   OH280856   5.567   1.645   5.662  0.3703  0.0468 -0.0614
19814TIP3    H180857   5.569   1.572   5.724  2.8456 -0.7478 -0.9628
19814TIP3    H280858   5.656   1.679   5.661 -0.6002  2.8455 -0.0272
19815TIP3   OH280859   1.516   1.823   2.536 -0.8949  0.4555  0.3033
19815TIP3    H180860   1.599   1.797   2.494 -0.0569  0.0076  2.1293
19815TIP3    H280861   1.451   1.764   2.498 -0.5843  1.3459 -1.7648
19816TIP3   OH280862   3.123   3.015  16.783 -0.0731 -0.6761  0.7298
19816TIP3    H180863   3.104   3.040  16.874 -1.1496  0.0532  0.3253
19816TIP3    H280864   3.053   3.055  16.732  0.9749 -0.3729 -0.5310
19817TIP3   OH280865   3.584   4.997  14.803  0.1356  1.3313 -0.3566
19817TIP3    H180866   3.589   4.948  14.885  1.3984  0.5818 -0.8540
19817TIP3    H280867   3.651   5.065  14.811  0.6690  0.8954 -0.9767
19818TIP3   OH280868   5.115   5.202  11.223 -0.4896 -0.7169  0.9373
19818TIP3    H180869   5.196   5.161  11.191 -1.3085 -1.7721  0.1434
19818TIP3    H280870   5.089   5.148  11.298 -0.7984 -0.7589  0.7993
19819TIP3   OH280871   0.680   5.523  16.658 -0.3087 -0.0413  0.4876
19819TIP3    H180872   0.628   5.452  16.620  1.8950 -1.0390 -0.8927
19819TIP3    H280873   0.714   5.572  16.583  2.1221 -0.5315  1.1594
19820TIP3   OH280874   0.551   4.242  16.984 -0.2865 -0.2966 -0.2876
19820TIP3    H180875   0.646   4.249  16.999 -0.2941  2.4414 -0.9180
19820TIP3    H280876   0.512   4.290  17.058 -1.1904 -1.1637 -0.1837
19821TIP3   OH280877   2.835   3.905  12.372 -0.6684  0.1812  0.8351
19821TIP3    H180878   2.906   3.867  12.423  0.0621  1.1840  0.5874
19821TIP3    H280879   2.859   3.997  12.361 -0.8141  0.0176 -1.2988
19822TIP3   OH280880   4.604   2.552  10.762 -0.2982 -0.2729  0.4557
19822TIP3    H180881   4.698   2.570  10.750 -0.2644  0.4514  1.6317
19822TIP3    H280882   4.589   2.469  10.717  0.7971 -0.1384 -0.1957
19823TIP3   OH280883   1.412   0.267  14.821 -0.1824 -0.3197 -0.0185
19823TIP3    H180884   1.442   0.184  14.856 -2.5142  0.1956  3.7612
19823TIP3    H280885   1.474   0.332  14.854  1.0911 -0.3410 -2.1736
19824TIP3   OH280886   0.101   2.477   3.545 -0.0133  0.2890  0.0680
19824TIP3    H180887   0.138   2.502   3.461 -0.1825  0.3288  0.0050
19824TIP3    H280888   0.168   2.501   3.609 -1.0785  3.0924  0.2544
19825TIP3   OH280889   4.918   2.814   1.409  0.0697  0.2358 -0.1489
19825TIP3    H180890   4.961   2.893   1.443 -2.5192  0.5089  2.8928
19825TIP3    H280891   4.869   2.846   1.333 -0.1728  1.3724  0.4535
19826TIP3   OH280892   5.247   2.327  10.913  0.0313 -0.5613  0.1118
19826TIP3    H180893   5.321   2.319  10.853 -0.1435  0.8745 -0.3291
19826TIP3    H280894   5.224   2.237  10.935  1.2458 -1.0538 -0.5626
19827TIP3   OH280895   5.934   1.424   1.166  0.1831  0.2766  0.6858
19827TIP3    H180896   5.871   1.392   1.230 -2.9315  1.5045 -1.5290
19827TIP3    H280897   5.991   1.483   1.215 -0.3415 -0.8885  2.8036
19828TIP3   OH280898   4.374   4.987   4.672  0.2938  0.1093 -0.3839
19828TIP3    H180899   4.341   4.996   4.762  2.6924  1.3716  0.4581
19828TIP3    H280900   4.362   4.894   4.652 -0.1834 -0.2336  1.2943
19829TIP3   OH280901   5.514   5.324  14.161 -0.1602  0.3270 -0.0186
19829TIP3    H180902   5.444   5.385  14.138 -0.4721  0.1920  0.5773
19829TIP3    H280903   5.509   5.255  14.095  0.5049  1.1781 -0.9982
19830TIP3   OH280904   0.795   2.297  15.955 -0.8020 -0.2771  0.0227
19830TIP3    H180905   0.707   2.258  15.962 -1.6654  1.6246  0.4163
19830TIP3    H280906   0.785   2.366  15.890  0.2155  0.4604  0.6275
19831TIP3   OH280907   5.237   4.914   4.062  0.2636 -0.2911  0.3841
19831TIP3    H180908   5.322   4.872   4.046  1.0364  1.0100  0.9024
19831TIP3    H280909   5.181   4.843   4.093  1.9026 -0.7636  2.5325
19832TIP3   OH280910   5.762   3.060  14.936 -0.4961  0.6525  0.0568
19832TIP3    H180911   5.760   2.965  14.945 -2.7072  0.4977 -1.3630
19832TIP3    H280912   5.698   3.092  15.000  0.5252  1.2639  0.8136
19833TIP3   OH280913   6.530   5.550   1.771 -0.0578 -0.4747  0.4635
19833TIP3    H180914   6.565   5.461   1.763  0.7538 -0.0604 -0.8466
19833TIP3    H280915   6.502   5.572   1.682 -2.6759 -0.3608  1.2443
19834TIP3   OH280916   2.088   0.229   1.854 -0.4121  0.4241 -0.3549
19834TIP3    H180917   2.114   0.284   1.780  0.1612  2.0505  0.9938
19834TIP3    H280918   2.002   0.195   1.830 -0.4373  1.2916 -1.5627
19835TIP3   OH280919   5.574   6.061   4.902 -1.0806  0.7116  0.4390
19835TIP3    H180920   5.630   5.984   4.895 -0.7045  0.8345  1.9091
19835TIP3    H280921   5.517   6.055   4.825 -0.2684 -0.3767 -0.1177
19836TIP3   OH280922   3.009   2.362   3.405 -0.0609  0.0459 -0.4027
19836TIP3    H180923   2.954   2.349   3.482 -0.7659 -0.0453 -0.9098
19836TIP3    H280924   2.949   2.396   3.338  0.6894  0.8458 -0.6901
19837TIP3   OH280925   1.504   3.053   5.350 -0.1738  0.2336  0.7140
19837TIP3    H180926   1.564   3.016   5.285 -1.8170  0.5174 -1.0581
19837TIP3    H280927   1.542   3.138   5.371  0.3903  0.1461  0.1129
19838TIP3   OH280928   2.170   3.886  12.139  0.2199  0.0281  0.0719
19838TIP3    H180929   2.264   3.901  12.149  0.6629 -2.0879 -0.3473
19838TIP3    H280930   2.145   3.833  12.215 -0.2986 -0.7105 -0.5959
19839TIP3   OH280931   2.259   1.835  13.799 -0.6440  1.0038 -0.0692
19839TIP3    H180932   2.195   1.846  13.729 -0.6543  0.2614 -0.1818
19839TIP3    H280933   2.332   1.892  13.774 -0.0514 -0.2963 -1.4112
19840TIP3   OH280934   2.018   1.046  13.760 -0.5537 -0.2435 -0.4067
19840TIP3    H180935   2.065   0.993  13.695 -0.1530 -1.5251  0.8843
19840TIP3    H280936   2.041   1.007  13.844  0.2751  2.3681  0.6942
19841TIP3   OH280937   4.427   1.982  11.049  0.6180  0.4066  0.3333
19841TIP3    H180938   4.401   1.931  11.126 -0.5899  0.0311 -0.3014
19841TIP3    H280939   4.346   2.019  11.016  1.3418  2.0312  0.2307
19842TIP3   OH280940   3.802   1.159  14.648  0.0045  0.0423  0.3137
19842TIP3    H180941   3.790   1.064  14.642  0.2752 -0.0198  0.7402
19842TIP3    H280942   3.855   1.172  14.727 -1.9512  0.7055  1.6031
19843TIP3   OH280943   0.325   0.760  16.576  0.4340 -0.3220  0.3528
19843TIP3    H180944   0.323   0.701  16.651  1.8905 -3.5468 -1.9076
19843TIP3    H280945   0.235   0.760  16.542 -0.0283  0.4512  1.5370
19844TIP3   OH280946   5.835   2.053  11.172  0.0308 -0.2274  0.7346
19844TIP3    H180947   5.763   2.082  11.229 -0.5448 -0.0468 -0.0755
19844TIP3    H280948   5.813   2.088  11.086 -0.5448 -2.7709 -0.2452
19845TIP3   OH280949   4.663   3.230   6.131  0.0385  0.0877 -0.7009
19845TIP3    H180950   4.671   3.163   6.063  2.4694 -0.7615  0.3239
19845TIP3    H280951   4.570   3.231   6.153 -0.2769 -1.9602 -1.7342
19846TIP3   OH280952   5.389   2.599   2.443 -0.3714 -0.3647  0.3373
19846TIP3    H180953   5.298   2.595   2.471 -0.1142 -0.0364  1.2922
19846TIP3    H280954   5.439   2.588   2.524  0.4943 -3.0056 -0.4538
19847TIP3   OH280955   5.592   2.500   1.592 -0.2611  0.5229  0.4929
19847TIP3    H180956   5.583   2.590   1.623  2.4190  1.1811 -0.4350
19847TIP3    H280957   5.677   2.471   1.624 -1.0075 -1.6961  0.6843
19848TIP3   OH280958   5.281   5.425  14.273  0.2525 -0.1491  0.2041
19848TIP3    H180959   5.348   5.460  14.331 -1.5162  1.8924  1.1565
19848TIP3    H280960   5.212   5.491  14.273 -1.4539 -1.7997 -1.3036
19849TIP3   OH280961   5.173   1.692  12.310 -0.5813  0.1475  0.1602
19849TIP3    H180962   5.199   1.731  12.393 -0.3217 -1.4185  0.8513
19849TIP3    H280963   5.197   1.599  12.318  0.4126  0.1484 -2.0453
19850TIP3   OH280964   2.221   2.457  10.637 -0.5065 -0.3764  0.7149
19850TIP3    H180965   2.143   2.498  10.601  0.0061  0.4309  0.5032
19850TIP3    H280966   2.236   2.381  10.582  0.0376  0.6193 -0.5698
19851TIP3   OH280967   6.127   5.228   2.354 -0.4365 -0.6883 -0.7135
19851TIP3    H180968   6.124   5.139   2.319  1.6697 -0.1737 -2.4245
19851TIP3    H280969   6.220   5.242   2.376 -0.7363  1.0364 -0.3905
19852TIP3   OH280970   2.786   6.388  14.257  0.7642  0.2023 -0.5472
19852TIP3    H180971   2.758   6.305  14.217  1.6615 -0.1759 -0.4191
19852TIP3    H280972   2.811   6.443  14.183  1.1800 -0.0247 -0.5746
19853TIP3   OH280973   1.733   5.224  14.070  0.6195  0.3127 -0.2384
19853TIP3    H180974   1.822   5.244  14.042  0.4828  0.1520 -0.8058
19853TIP3    H280975   1.739   5.140  14.114  0.5793 -0.2555 -1.2753
19854TIP3   OH280976   3.113   1.900   1.649  0.1166 -0.2968 -0.1488
19854TIP3    H180977   3.140   1.812   1.620  2.7565  1.2741 -3.0394
19854TIP3    H280978   3.145   1.906   1.739  0.7613 -1.9357 -0.2247
19855TIP3   OH280979   6.191   1.208  10.664  0.4238  0.4456  0.1543
19855TIP3    H180980   6.127   1.158  10.714  1.8442  1.2065  2.9050
19855TIP3    H280981   6.150   1.218  10.578 -0.9197 -3.3645  0.1426
19856TIP3   OH280982   6.773   3.982  11.139 -0.8519 -0.5116  0.1290
19856TIP3    H180983   6.851   3.991  11.195 -1.5213 -0.5593  1.0945
19856TIP3    H280984   6.759   3.888  11.132 -0.7570 -0.5067 -0.1472
19857TIP3   OH280985   4.638   4.470  12.414 -0.1720 -0.2093 -0.0146
19857TIP3    H180986   4.697   4.479  12.489  2.1877  0.3502 -1.8135
19857TIP3    H280987   4.583   4.549  12.417  1.1470  0.7384  0.1517
19858TIP3   OH280988   3.237   6.381   6.554  0.3586  0.7746 -0.4039
19858TIP3    H180989   3.204   6.373   6.644  1.6258  0.1582  0.0210
19858TIP3    H280990   3.175   6.441   6.512 -0.2001  1.1593  0.9034
19859TIP3   OH280991   2.898   1.010  12.703  0.2495  0.3189 -0.3344
19859TIP3    H180992   2.875   0.958  12.625  0.1652 -1.6028  0.9055
19859TIP3    H280993   2.834   1.081  12.704  0.6469  0.7706 -2.3400
19860TIP3   OH280994   6.083   5.554  16.975 -0.6296  0.5881 -0.6800
19860TIP3    H180995   5.994   5.518  16.980 -0.1574 -0.7414 -1.4434
19860TIP3    H280996   6.115   5.526  16.890  0.5832  0.9321 -0.3477
19861TIP3   OH280997   2.684   5.564  15.171 -0.4636  0.0365  0.4452
19861TIP3    H180998   2.694   5.596  15.261 -1.3155  1.9149 -0.0732
19861TIP3    H280999   2.632   5.484  15.179 -0.8800  0.4055  1.6030
19862TIP3   OH281000   1.543   3.525  12.138  0.1446  0.2462  0.0524
19862TIP3    H181001   1.596   3.596  12.102  0.2429 -0.1579 -0.6163
19862TIP3    H281002   1.466   3.521  12.082  0.6885 -0.9271 -0.6589
19863TIP3   OH281003   1.284   3.976   1.790 -0.4153 -0.2674 -0.1604
19863TIP3    H181004   1.376   3.951   1.777 -0.0907 -0.0816  1.5971
19863TIP3    H281005   1.252   3.994   1.702  0.7397 -2.0246 -1.0066
19864TIP3   OH281006   5.058   5.505   3.538 -0.0635  0.1181  0.3137
19864TIP3    H181007   5.146   5.542   3.534  0.0244 -0.1836 -1.0797
19864TIP3    H281008   5.001   5.576   3.510 -0.1603 -0.0185  0.1655
19865TIP3   OH281009   3.995   6.176   5.504  0.6436  0.4114 -0.1678
19865TIP3    H181010   4.020   6.127   5.582 -0.2124  0.3682  0.0962
19865TIP3    H281011   3.979   6.265   5.535 -0.0285  0.3186 -0.2162
19866TIP3   OH281012   5.765   0.559  14.234  0.0070  0.6079 -0.9737
19866TIP3    H181013   5.858   0.560  14.214  0.5525 -2.2382  0.8706
19866TIP3    H281014   5.743   0.650  14.254  2.4225  1.2964 -1.2263
19867TIP3   OH281015   1.739   4.753  16.307 -0.3421 -0.1527  0.2958
19867TIP3    H181016   1.691   4.673  16.288  0.1797 -0.0632 -1.5800
19867TIP3    H281017   1.792   4.732  16.385  0.3920 -1.9044 -0.6248
19868TIP3   OH281018   2.569   2.059   2.416  0.3136  0.3167  0.9075
19868TIP3    H181019   2.648   2.082   2.465  0.5154  0.8663  0.3462
19868TIP3    H281020   2.600   2.047   2.326  0.0329 -1.1542  0.9787
19869TIP3   OH281021   6.751   5.953   0.462 -0.0632  0.2124 -0.6403
19869TIP3    H181022   6.744   5.896   0.538 -1.7102 -1.5981 -2.0475
19869TIP3    H281023   6.840   5.988   0.466  0.5611 -1.4229  1.0113
19870TIP3   OH281024   1.564   0.661  12.106 -0.1022 -0.5975  0.0023
19870TIP3    H181025   1.607   0.647  12.190 -0.3634 -0.6034  0.1367
19870TIP3    H281026   1.522   0.747  12.114  0.6485 -0.1838 -0.4559
19871TIP3   OH281027   0.115   3.822   0.482 -0.1363  0.4916 -0.3220
19871TIP3    H181028   0.167   3.748   0.450  0.8031  1.2455 -0.5825
19871TIP3    H281029   0.102   3.803   0.575 -0.2745 -0.2008 -0.4728
19872TIP3   OH281030   3.870   1.173   4.887  0.3930  0.7405  0.3721
19872TIP3    H181031   3.797   1.176   4.949 -1.1512 -3.0870 -0.9755
19872TIP3    H281032   3.835   1.215   4.808 -0.6283 -1.3059 -0.3569
19873TIP3   OH281033   5.683   3.826   2.856 -0.0051  0.6361  0.0616
19873TIP3    H181034   5.730   3.809   2.938  0.3483 -0.4710 -0.3562
19873TIP3    H281035   5.727   3.772   2.791 -0.8551  0.8158 -0.6820
19874TIP3   OH281036   2.044   3.609   4.077  0.2689 -0.0283  0.2133
19874TIP3    H181037   2.122   3.643   4.033 -0.7555  0.6574 -1.1502
19874TIP3    H281038   2.006   3.548   4.014 -0.4197 -0.1634  0.7561
19875TIP3   OH281039   1.111   3.283   2.256  0.3626  0.0535 -0.4406
19875TIP3    H181040   1.028   3.301   2.211  0.5188 -1.2990 -1.3052
19875TIP3    H281041   1.086   3.231   2.332  0.3997 -0.2629 -0.6429
19876TIP3   OH281042   4.081   6.129  17.051 -0.0817 -0.2923  0.0624
19876TIP3    H181043   4.064   6.035  17.045 -2.6543  0.1546 -1.9376
19876TIP3    H281044   4.175   6.138  17.035  0.2645 -2.5262  0.5756
19877TIP3   OH281045   3.909   2.540   1.137 -1.0709 -0.1665 -0.0760
19877TIP3    H181046   3.941   2.629   1.143  0.1845 -0.5360 -0.8840
19877TIP3    H281047   3.904   2.509   1.228  2.2743 -0.5348  0.0871
19878TIP3   OH281048   4.781   3.860  11.663  0.1118  0.3359  0.3027
19878TIP3    H181049   4.845   3.907  11.716 -0.8087  1.6551  0.3066
19878TIP3    H281050   4.829   3.833  11.584  0.7871  0.8579  0.5300
19879TIP3   OH281051   2.050   3.024   1.302  0.2212 -0.6117  0.6171
19879TIP3    H181052   2.121   3.070   1.347 -0.4002  1.4928 -0.4329
19879TIP3    H281053   2.095   2.960   1.247  1.5660  1.8846 -1.4305
19880TIP3   OH281054   2.196   2.828  12.788  0.3299 -0.0881  0.4349
19880TIP3    H181055   2.220   2.791  12.873 -0.6198 -1.2823  0.2060
19880TIP3    H281056   2.199   2.754  12.728 -1.7944  0.1465 -0.0143
19881TIP3   OH281057   2.256   3.437  14.163 -0.1561 -0.2551 -0.3834
19881TIP3    H181058   2.205   3.513  14.135  0.3733 -0.2570 -1.4156
19881TIP3    H281059   2.219   3.364  14.113 -0.8177 -0.7438  0.7751
19882TIP3   OH281060   5.297   0.673  11.394  0.8944  0.0337 -0.2211
19882TIP3    H181061   5.353   0.602  11.427  1.4460  0.9003  0.7859
19882TIP3    H281062   5.249   0.703  11.472 -1.2329 -0.8733 -1.1122
19883TIP3   OH281063   3.102   1.341   1.492  0.3587  0.4820 -0.0370
19883TIP3    H181064   3.188   1.340   1.535  1.2208  1.0292 -1.6750
19883TIP3    H281065   3.111   1.279   1.419  0.4524  2.8567 -2.1559
19884TIP3   OH281066   4.250   4.569   4.975 -0.0985  0.3711  0.1383
19884TIP3    H181067   4.298   4.643   5.014  0.6936 -0.3567  0.5774
19884TIP3    H281068   4.158   4.593   4.983  0.0785  0.6551  1.6571
19885TIP3   OH281069   5.931   0.359  12.640  0.3265 -0.2246 -0.2306
19885TIP3    H181070   5.950   0.448  12.671  1.3218 -0.7676  0.7965
19885TIP3    H281071   6.017   0.321  12.621 -0.0278 -1.2448  0.1537
19886TIP3   OH281072   5.006   3.396   1.440 -0.1013 -0.0667  0.3471
19886TIP3    H181073   5.042   3.485   1.433 -1.1521  0.2717 -1.4146
19886TIP3    H281074   4.919   3.409   1.478 -0.0233 -0.4222  0.6470
19887TIP3   OH281075   2.054   0.500  15.942  0.3178  0.2345 -0.2983
19887TIP3    H181076   1.981   0.534  15.890 -0.3312 -0.6186  0.0423
19887TIP3    H281077   2.049   0.551  16.023 -1.1784 -1.1820  0.5594
19888TIP3   OH281078   5.931   0.251   5.406  0.4474 -0.2194 -0.3404
19888TIP3    H181079   5.849   0.301   5.410  1.2471  1.1784 -0.7765
19888TIP3    H281080   5.979   0.278   5.484  0.2333 -1.5558  0.2778
19889TIP3   OH281081   2.125   1.818  12.317  0.4766  0.4351 -0.3635
19889TIP3    H181082   2.143   1.853  12.230 -0.2607 -0.9508 -1.1103
19889TIP3    H281083   2.067   1.744  12.302  1.4178 -0.7008  1.1888
19890TIP3   OH281084   2.510   1.694  13.789 -0.7123  0.0066  0.9036
19890TIP3    H181085   2.583   1.752  13.767 -0.1000 -0.4814  1.5844
19890TIP3    H281086   2.457   1.744  13.851 -1.8371  0.9570 -0.7415
19891TIP3   OH281087   5.313   5.220  14.601 -0.3577  0.3532  0.0223
19891TIP3    H181088   5.218   5.213  14.601 -0.3493 -0.0075  0.9669
19891TIP3    H281089   5.343   5.151  14.543 -0.7019  1.3116 -1.3327
19892TIP3   OH281090   5.330   2.052   0.756  0.5187 -0.0103  0.2339
19892TIP3    H181091   5.356   2.075   0.666 -0.3460 -0.0186 -0.0294
19892TIP3    H281092   5.236   2.035   0.750  0.2762  0.8046  1.2990
19893TIP3   OH281093   2.878   6.447   0.269  0.0947  0.1071  0.4636
19893TIP3    H181094   2.825   6.525   0.282 -0.0190  0.4678 -1.7748
19893TIP3    H281095   2.948   6.454   0.333 -0.2650  1.7318  0.7149
19894TIP3   OH281096   2.959   4.164  11.811 -0.0172 -0.0675  0.5765
19894TIP3    H181097   3.022   4.182  11.742 -0.3750  0.0265  0.2679
19894TIP3    H281098   2.874   4.165  11.767 -0.4386  1.8398  1.3225
19895TIP3   OH281099   4.238   6.013  15.696  0.0329  0.0174 -0.0017
19895TIP3    H181100   4.195   5.938  15.736 -0.9900  0.6432  0.1203
19895TIP3    H281101   4.168   6.059  15.650  0.7522  0.5772 -0.5663
19896TIP3   OH281102   4.555   3.374  15.692 -0.1955 -0.3307  0.3942
19896TIP3    H181103   4.567   3.469  15.693  0.9230 -0.4477 -0.2142
19896TIP3    H281104   4.466   3.362  15.659 -0.8463  0.5196  1.7100
19897TIP3   OH281105   0.391   0.365   4.981 -0.3018  0.1150  0.2280
19897TIP3    H181106   0.452   0.389   5.051  0.3279  1.3393 -0.7017
19897TIP3    H281107   0.306   0.361   5.024 -0.0586  1.7141  0.9223
19898TIP3   OH281108   2.653   6.175  10.564  0.3688 -0.1366 -0.2239
19898TIP3    H181109   2.744   6.197  10.544  0.4810 -0.3482  0.0425
19898TIP3    H281110   2.658   6.097  10.619  0.0094 -0.3459 -0.4823
19899TIP3   OH281111   0.861   0.093  13.835  0.0688  0.0574  0.2768
19899TIP3    H181112   0.918   0.170  13.829 -1.6970  1.5748  1.7917
19899TIP3    H281113   0.774   0.126  13.814 -0.4603 -1.9928 -0.9943
19900TIP3   OH281114   3.624   0.132   0.323  0.6021  0.6517  0.4325
19900TIP3    H181115   3.657   0.092   0.404 -0.8972 -0.5198  0.5104
19900TIP3    H281116   3.660   0.077   0.253  0.9760  0.9867  0.3579
19901TIP3   OH281117   3.729   2.251  14.262 -0.4392 -0.3873 -0.0635
19901TIP3    H181118   3.641   2.239  14.227 -0.6487  1.2947 -0.2149
19901TIP3    H281119   3.786   2.254  14.185 -0.5232  0.4679 -0.1024
19902TIP3   OH281120   3.096   2.626  14.144  0.3535  0.2052  0.7869
19902TIP3    H181121   3.119   2.534  14.156 -2.4896 -0.6076  0.8205
19902TIP3    H281122   3.080   2.635  14.050  1.1106  0.8276  0.7053
19903TIP3   OH281123   3.143   0.297  12.226 -0.0305 -0.7517  0.2219
19903TIP3    H181124   3.180   0.358  12.161 -2.1625 -0.7832 -1.1351
19903TIP3    H281125   3.056   0.332  12.245  0.7904 -0.3338  3.7390
19904TIP3   OH281126   4.605   4.298  17.141  0.2014 -0.3167  0.4867
19904TIP3    H181127   4.662   4.343  17.078  1.1173 -0.7365  0.9923
19904TIP3    H281128   4.516   4.324  17.117  0.6323  0.6507 -0.0905
19905TIP3   OH281129   0.110   5.902  14.608  0.3479 -0.5882  0.6134
19905TIP3    H181130   0.201   5.920  14.632  1.0158 -1.2011 -1.2587
19905TIP3    H281131   0.104   5.806  14.609 -0.2438 -0.5559  0.5425
19906TIP3   OH281132   6.480   1.476  11.464 -0.3409  0.0142  0.5934
19906TIP3    H181133   6.394   1.476  11.420 -0.2850 -0.4216  0.4784
19906TIP3    H281134   6.543   1.461  11.393 -0.1663  0.3422  0.6770
19907TIP3   OH281135   0.111   4.249   5.908  0.1004  0.1410  0.8721
19907TIP3    H181136   0.114   4.266   5.814 -0.4652  1.8519  1.1319
19907TIP3    H281137   0.073   4.161   5.915  0.6970 -0.2561 -0.4888
19908TIP3   OH281138   6.594   3.736  11.396 -0.1138  0.2924 -0.7244
19908TIP3    H181139   6.623   3.815  11.442  0.6051  0.1453 -0.9143
19908TIP3    H281140   6.672   3.704  11.351 -0.6340  0.0188 -1.4557
19909TIP3   OH281141   1.902   0.330  16.977 -0.1911  0.5081 -0.1833
19909TIP3    H181142   1.934   0.419  16.963  0.5663  0.0660 -1.4440
19909TIP3    H281143   1.940   0.304  17.061  3.0641 -0.0483 -1.6827
19910TIP3   OH281144   2.660   1.981  14.073  0.2661 -0.0941  0.3228
19910TIP3    H181145   2.704   1.959  13.990 -0.5615 -1.2240  0.1550
19910TIP3    H281146   2.635   2.073  14.063 -0.6798 -0.4649 -1.1077
19911TIP3   OH281147   4.170   4.881  11.633  0.4355  0.0032 -0.2184
19911TIP3    H181148   4.102   4.947  11.622 -0.2004 -0.8027 -1.2469
19911TIP3    H281149   4.215   4.878  11.549 -0.4570 -1.8430 -0.6767
19912TIP3   OH281150   1.583   4.474  15.290  0.2638 -0.5308 -0.4337
19912TIP3    H181151   1.649   4.409  15.267  0.3468 -0.3238 -0.7847
19912TIP3    H281152   1.503   4.423  15.304  0.8536 -0.9713  1.5812
19913TIP3   OH281153   4.534   4.379   5.101  0.0316 -0.0358 -0.5936
19913TIP3    H181154   4.453   4.355   5.057  0.7498  1.1894 -2.7512
19913TIP3    H281155   4.600   4.320   5.065  0.4221  0.1739 -0.2402
19914TIP3   OH281156   5.976   2.994  14.201  0.3057  0.3723 -0.2429
19914TIP3    H181157   5.891   2.960  14.172  0.1567  0.7198 -0.2062
19914TIP3    H281158   5.978   3.085  14.171  0.6733  0.3631 -0.2595
19915TIP3   OH281159   6.224   5.271  13.209  0.2104  0.2107 -0.0696
19915TIP3    H181160   6.311   5.297  13.241  1.1484 -0.8864 -1.6120
19915TIP3    H281161   6.186   5.352  13.175  0.8529  0.5994  0.1120
19916TIP3   OH281162   5.108   2.595   6.534 -0.6512  0.2844  0.3289
19916TIP3    H181163   5.020   2.632   6.546 -0.5565  0.6304 -0.0202
19916TIP3    H281164   5.159   2.632   6.607 -1.0686 -0.8172  1.1978
19917TIP3   OH281165   5.967   4.084  12.679 -0.0645  0.0402 -0.7154
19917TIP3    H181166   6.051   4.123  12.701 -0.2420  1.2662 -2.1262
19917TIP3    H281167   5.948   4.026  12.754  1.1187  1.1523  0.5005
19918TIP3   OH281168   0.444   4.262  13.590 -0.3261 -0.2004  0.7773
19918TIP3    H181169   0.386   4.293  13.659  2.4680 -0.1699  3.3053
19918TIP3    H281170   0.533   4.280  13.623  1.2398  1.7468 -3.7311
19919TIP3   OH281171   0.077   6.536   0.229 -0.4789  0.5951  0.1377
19919TIP3    H181172   0.158   6.496   0.199 -0.4531  0.9522 -0.2787
19919TIP3    H281173   0.103   6.624   0.259 -0.5055  0.2562  1.1956
19920TIP3   OH281174   6.115   6.573   1.567  0.2784  0.5910 -0.8822
19920TIP3    H181175   6.094   6.556   1.659  0.5065  1.2901 -0.6929
19920TIP3    H281176   6.148   6.490   1.534  0.5855  0.4432 -0.2151
19921TIP3   OH281177   6.303   4.472   4.922 -0.3669  0.0646 -0.5982
19921TIP3    H181178   6.345   4.404   4.974 -2.9369 -0.2839  1.2278
19921TIP3    H281179   6.362   4.487   4.848  1.9498 -1.6238  0.8122
19922TIP3   OH281180   6.456   5.000  14.819  0.1240  0.1336  0.2008
19922TIP3    H181181   6.410   4.934  14.871 -1.0584  0.8538  0.1211
19922TIP3    H281182   6.549   4.980  14.829 -0.0205  0.5644  3.0252
19923TIP3   OH281183   1.500   0.331   2.911  0.3982  0.0821 -1.0632
19923TIP3    H181184   1.580   0.318   2.861  0.8598 -1.3166 -0.0451
19923TIP3    H281185   1.487   0.248   2.958  0.1472  1.3664  1.3296
19924TIP3   OH281186   6.722   0.360   2.709  0.3311 -0.2654 -0.0165
19924TIP3    H181187   6.699   0.435   2.765 -0.0641  0.1358 -0.6948
19924TIP3    H281188   6.734   0.288   2.770 -1.4693 -0.1885  0.5072
19925TIP3   OH281189   5.857   3.231   4.992  0.0429  0.2481  0.0495
19925TIP3    H181190   5.886   3.319   5.015 -0.7147  0.5254 -0.0457
19925TIP3    H281191   5.785   3.212   5.052  1.0288 -0.8291  0.9407
19926TIP3   OH281192   1.428   2.987  17.053 -0.1904 -0.7494  0.1241
19926TIP3    H181193   1.405   3.032  17.135  1.2778  1.4404 -0.5683
19926TIP3    H281194   1.514   2.949  17.070  0.6622  0.7147 -0.6864
19927TIP3   OH281195   6.144   0.111   5.244  0.1991  0.3292 -0.7438
19927TIP3    H181196   6.069   0.161   5.277  1.6651  1.5372  0.8995
19927TIP3    H281197   6.118   0.088   5.154 -1.4745  2.1329 -0.8141
19928TIP3   OH281198   0.769   3.840   0.204 -0.6761  0.0881 -0.0403
19928TIP3    H181199   0.849   3.787   0.206 -0.5767  0.2250 -0.3302
19928TIP3    H281200   0.787   3.908   0.139 -1.7067 -0.9730 -1.5076
19929TIP3   OH281201   5.248   0.266  12.456  0.2267  0.0817  0.4588
19929TIP3    H181202   5.281   0.283  12.368 -0.1903  0.3412  0.3493
19929TIP3    H281203   5.321   0.287  12.514  0.8874 -1.2194  0.1086
19930TIP3   OH281204   0.626   1.350   0.070 -0.3043 -0.1631  0.7121
19930TIP3    H181205   0.633   1.399  -0.012 -0.7398 -1.8055 -0.3530
19930TIP3    H281206   0.541   1.375   0.106  0.6979  2.0418  1.7148
19931TIP3   OH281207   3.582   1.639  13.987  0.4282 -0.1946 -0.5194
19931TIP3    H181208   3.583   1.731  14.014 -0.1687 -0.3920  0.2210
19931TIP3    H281209   3.514   1.599  14.041  1.3590 -1.2911 -0.1258
19932TIP3   OH281210   5.590   0.332   2.391 -0.0323  0.7837 -0.9158
19932TIP3    H181211   5.619   0.413   2.348  0.3461  1.4267  0.5015
19932TIP3    H281212   5.662   0.309   2.449 -1.0626  0.6580  0.3444
19933TIP3   OH281213   6.331   5.696  15.927 -0.1921  1.0406 -0.1804
19933TIP3    H181214   6.348   5.679  16.020  0.7348  0.3943 -0.4490
19933TIP3    H281215   6.241   5.667  15.913  0.1524 -0.2928  0.1913
19934TIP3   OH281216   2.662   6.617  12.955  0.2643  0.2216  0.5453
19934TIP3    H181217   2.690   6.542  13.008  0.6208 -0.0086  0.0353
19934TIP3    H281218   2.587   6.584  12.906  0.2554  0.2788  0.5212
19935TIP3   OH281219   4.421   0.324  11.643 -0.3293  0.4309  0.3998
19935TIP3    H181220   4.488   0.255  11.645  0.0559  0.7814 -0.1416
19935TIP3    H281221   4.425   0.365  11.729 -1.0451 -0.6757  0.9820
19936TIP3   OH281222   0.656   0.650   2.016 -0.4107 -0.2190  0.2537
19936TIP3    H181223   0.704   0.683   1.939  1.3566  2.6003  2.3721
19936TIP3    H281224   0.723   0.643   2.084 -2.0999 -1.6707  1.8680
19937TIP3   OH281225   0.097   0.331   5.407  0.3545  0.0643 -0.1649
19937TIP3    H181226   0.110   0.241   5.434 -0.3164 -0.6019 -1.9089
19937TIP3    H281227   0.150   0.383   5.468  0.9897 -1.5124  0.6716
19938TIP3   OH281228   2.819   6.059   1.304  0.0966 -0.1252 -0.6451
19938TIP3    H181229   2.876   5.983   1.289 -0.4550 -0.5661 -0.5194
19938TIP3    H281230   2.763   6.062   1.227  0.1696  0.2040 -0.6857
19939TIP3   OH281231   1.978   6.570   6.627 -0.1039 -0.0460 -0.4510
19939TIP3    H181232   1.982   6.512   6.551  1.6586 -0.0521 -0.3872
19939TIP3    H281233   2.004   6.514   6.700  0.5687  0.5458 -0.2281
19940TIP3   OH281234   2.504   6.258  14.647 -0.0235 -0.1954  0.3209
19940TIP3    H181235   2.546   6.341  14.671 -0.8185 -0.0331  1.1788
19940TIP3    H281236   2.567   6.191  14.673  0.0647  0.0843  0.8382
19941TIP3   OH281237   6.775   1.827  11.673 -0.2214  0.4964  0.0805
19941TIP3    H181238   6.738   1.841  11.586 -0.2576  1.2470  0.2134
19941TIP3    H281239   6.859   1.785  11.657  0.4423  1.9463 -0.4138
19942TIP3   OH281240   3.980   2.655  15.856 -0.2581  0.0650  0.1038
19942TIP3    H181241   3.906   2.699  15.899 -0.3689 -0.5539  0.5612
19942TIP3    H281242   3.948   2.566  15.840  1.3835 -1.2295  3.1547
19943TIP3   OH281243   6.262   2.001   3.458 -0.8703  0.2091  0.2624
19943TIP3    H181244   6.354   1.980   3.478 -0.6607 -0.7455 -1.4974
19943TIP3    H281245   6.266   2.083   3.410 -0.6854 -0.8468 -1.6191
19944TIP3   OH281246   3.400   5.654   3.594  0.0231  0.3661  0.1580
19944TIP3    H181247   3.354   5.737   3.589 -0.8432 -0.1347 -0.3512
19944TIP3    H281248   3.452   5.649   3.514 -0.7903 -0.0707 -0.3569
19945TIP3   OH281249   4.072   2.586   3.305 -0.0624 -0.0344 -0.2048
19945TIP3    H181250   4.117   2.503   3.320  0.4254  0.1261 -0.7540
19945TIP3    H281251   3.997   2.584   3.365 -0.3912 -1.1136 -0.6389
19946TIP3   OH281252   5.496   1.820   1.230 -0.3451 -0.0926 -0.2675
19946TIP3    H181253   5.461   1.820   1.141  0.0075  0.2461 -0.4070
19946TIP3    H281254   5.448   1.890   1.275  1.4364  1.6958 -0.9830
19947TIP3   OH281255   3.033   3.056  11.236  0.4360 -0.3474 -0.4566
19947TIP3    H181256   3.088   2.978  11.229 -0.1902 -0.9602  1.1319
19947TIP3    H281257   3.051   3.090  11.323 -0.0459  0.7385 -0.7655
19948TIP3   OH281258   4.865   3.476  16.366  0.4943  0.1130 -0.0202
19948TIP3    H181259   4.923   3.445  16.297  0.2510 -0.0362 -0.1610
19948TIP3    H281260   4.826   3.556  16.330  1.7640  1.0825  0.6737
19949TIP3   OH281261   4.846   4.563  11.748 -0.0662  0.9818  0.1748
19949TIP3    H181262   4.827   4.635  11.808  1.9588  1.2664  0.5442
19949TIP3    H281263   4.900   4.503  11.799 -0.3645 -0.0107 -0.6370
19950TIP3   OH281264   3.923   5.306   1.280 -0.4179  0.4865 -0.2965
19950TIP3    H181265   3.962   5.301   1.193  1.6646  1.5841  0.4902
19950TIP3    H281266   3.918   5.216   1.310 -0.3019  0.1666 -1.2134
19951TIP3   OH281267   0.538   5.256  13.102  0.1242  0.4659  0.1267
19951TIP3    H181268   0.615   5.284  13.054 -0.1013  2.3379  0.7796
19951TIP3    H281269   0.514   5.172  13.063  1.7604  0.4338 -0.8885
19952TIP3   OH281270   3.063   1.826  13.620 -0.0337  0.4563  0.1303
19952TIP3    H181271   3.037   1.744  13.662 -1.0132  0.2111 -0.9138
19952TIP3    H281272   3.052   1.810  13.526  1.3054  1.2667 -0.1950
19953TIP3   OH281273   2.603   2.480  13.758  0.4264  0.1654  0.0475
19953TIP3    H181274   2.551   2.542  13.810  0.8349  2.1774 -1.7968
19953TIP3    H281275   2.546   2.404  13.747  0.0194  0.0140  2.6514
19954TIP3   OH281276   3.224   1.564   2.952  0.1805  0.1735 -0.0864
19954TIP3    H181277   3.247   1.490   3.007  0.5837 -0.3135 -0.8921
19954TIP3    H281278   3.135   1.544   2.921 -0.2886  0.7390  0.8484
19955TIP3   OH281279   2.199   6.797   0.328  0.3733  0.1942  0.3251
19955TIP3    H181280   2.209   6.856   0.253  0.3407  0.1006  0.2467
19955TIP3    H281281   2.171   6.854   0.400  2.0734  0.5926  0.7240
19956TIP3   OH281282   6.722   1.389  14.026 -0.2423  0.2627 -0.2262
19956TIP3    H181283   6.815   1.410  14.014  0.0653 -0.4324  0.7985
19956TIP3    H281284   6.709   1.387  14.120 -1.2284  0.0194 -0.3521
19957TIP3   OH281285   0.416   4.092   2.241 -0.4719 -0.4617  0.6642
19957TIP3    H181286   0.322   4.105   2.234 -0.9402 -3.7844 -2.4510
19957TIP3    H281287   0.430   4.065   2.332 -2.7663 -1.0250  0.9112
19958TIP3   OH281288   0.537   0.024  12.529 -0.5575 -0.0649 -0.0417
19958TIP3    H181289   0.458   0.063  12.493 -1.4728 -1.5597  0.2676
19958TIP3    H281290   0.562  -0.043  12.465 -0.4638 -0.6788  0.6259
19959TIP3   OH281291   6.431   3.997  12.056 -0.0428  0.2260 -0.3828
19959TIP3    H181292   6.416   3.941  11.980  0.7178  0.0308 -0.3949
19959TIP3    H281293   6.526   3.995  12.069 -0.3124 -1.7476  2.0467
19960TIP3   OH281294   1.845   1.955   4.293 -0.2738  0.2195  0.6129
19960TIP3    H181295   1.818   2.025   4.353  1.3870  1.2143  0.2588
19960TIP3    H281296   1.847   1.996   4.207 -1.5244 -0.9070  0.0095
19961TIP3   OH281297   3.906   1.893   2.346  0.1361  0.0547  0.2977
19961TIP3    H181298   3.855   1.901   2.427  0.5135 -1.2396  0.6970
19961TIP3    H281299   3.856   1.831   2.292 -0.6081  1.6312 -0.8911
19962TIP3   OH281300   3.123   5.800  15.267  0.4049 -0.2575  0.1640
19962TIP3    H181301   3.076   5.732  15.315 -0.1456 -0.1874 -0.2676
19962TIP3    H281302   3.203   5.815  15.319  0.4432 -1.0930  0.3579
19963TIP3   OH281303   2.765   4.091   2.519 -0.3597 -0.0448 -0.0133
19963TIP3    H181304   2.692   4.062   2.573  0.3907 -0.4591  0.8074
19963TIP3    H281305   2.843   4.056   2.563  0.2661 -0.6518 -1.5357
19964TIP3   OH281306   5.502   4.669  12.225 -0.1162 -0.2125 -0.5536
19964TIP3    H181307   5.576   4.651  12.166  0.6103  0.5836  0.1039
19964TIP3    H281308   5.483   4.762  12.213 -0.1849 -0.1229  0.2243
19965TIP3   OH281309   1.974   5.651  13.983 -0.4819 -0.6182 -0.4989
19965TIP3    H181310   1.887   5.690  13.976 -0.3623  0.9404  3.6479
19965TIP3    H281311   1.968   5.593  14.060  2.4531  0.8381  1.0182
19966TIP3   OH281312   2.986   1.917   0.488  0.5290 -0.2971  0.4685
19966TIP3    H181313   2.980   2.013   0.496 -1.0650 -0.4293  1.4374
19966TIP3    H281314   3.013   1.902   0.397 -0.2342  1.0671 -0.0176
19967TIP3   OH281315   0.480   2.488  13.733 -0.3509  0.2701 -0.2331
19967TIP3    H181316   0.448   2.530  13.653  0.1451 -1.0469 -1.1654
19967TIP3    H281317   0.565   2.530  13.750 -0.4756  0.5839 -0.3827
19968TIP3   OH281318   5.428   3.508  16.939 -0.1233 -0.2546  0.0606
19968TIP3    H181319   5.390   3.595  16.937  0.5794  0.0660  0.2194
19968TIP3    H281320   5.449   3.493  17.031 -0.1901 -0.5635  0.0250
19969TIP3   OH281321   1.404   4.594   2.335 -0.3209  0.4822  0.3629
19969TIP3    H181322   1.376   4.502   2.341 -0.1889  0.1741 -2.4531
19969TIP3    H281323   1.339   4.635   2.279  1.1777  1.4036 -0.7575
19970TIP3   OH281324   0.158   3.586  12.418  0.3169 -0.1755 -0.4031
19970TIP3    H181325   0.233   3.631  12.456 -0.5499 -0.8668  2.3205
19970TIP3    H281326   0.192   3.501  12.391  0.7631 -0.0045 -0.3902
19971TIP3   OH281327   4.529   0.884  12.909 -0.1894  0.1212  0.3325
19971TIP3    H181328   4.546   0.811  12.969  3.3114  1.1263  0.8268
19971TIP3    H281329   4.499   0.955  12.966 -1.6601 -0.3133  0.1309
19972TIP3   OH281330   5.451   0.576   4.578 -0.7071  0.1373  0.3626
19972TIP3    H181331   5.442   0.511   4.509 -1.2426 -1.0222  1.4746
19972TIP3    H281332   5.528   0.626   4.554 -0.4605 -0.7094 -0.6911
19973TIP3   OH281333   2.765   0.960   4.760  0.3452 -0.1676  0.3601
19973TIP3    H181334   2.721   1.042   4.785  1.6605  0.7279 -0.1587
19973TIP3    H281335   2.838   0.988   4.705  0.7737 -1.7120  0.1084
19974TIP3   OH281336   5.073   3.892  11.714  0.4634 -0.0494  0.0993
19974TIP3    H181337   5.011   3.950  11.758  0.8684 -0.0848  0.7256
19974TIP3    H281338   5.158   3.934  11.725  0.7418 -0.6749  0.4244
19975TIP3   OH281339   4.781   1.462   5.886  0.4315 -0.2474 -0.0590
19975TIP3    H181340   4.849   1.510   5.933  0.3238  0.4852 -0.6262
19975TIP3    H281341   4.728   1.422   5.955  0.4415  0.5812  0.4516
19976TIP3   OH281342   4.001   4.099   1.465  0.1799  0.5357  0.0468
19976TIP3    H181343   4.090   4.067   1.463  0.1024  0.3119  0.1690
19976TIP3    H281344   3.946   4.021   1.455  0.0101  0.9512 -3.2342
19977TIP3   OH281345   0.469   5.770   4.474  0.9023 -0.1496 -0.2355
19977TIP3    H181346   0.561   5.794   4.487  0.0320  1.8161  3.9670
19977TIP3    H281347   0.458   5.690   4.526  0.2288 -0.4323 -0.7986
19978TIP3   OH281348   6.085   4.509  11.926  0.0445 -0.5291 -0.7979
19978TIP3    H181349   6.009   4.462  11.961  1.4074 -1.4032  1.1333
19978TIP3    H281350   6.048   4.566  11.859 -2.1927 -1.5790 -0.5637
19979TIP3   OH281351   4.071   1.814  12.703 -0.7953  0.0061 -0.0395
19979TIP3    H181352   4.160   1.803  12.670 -0.9708 -0.4961 -0.3496
19979TIP3    H281353   4.062   1.909  12.713 -0.3218  0.0819 -0.2753
19980TIP3   OH281354   4.647   0.609  12.031 -0.0758 -0.0560 -0.2021
19980TIP3    H181355   4.727   0.556  12.027 -2.1989 -3.4597 -1.5115
19980TIP3    H281356   4.622   0.608  12.123 -0.5366 -2.2532 -0.2977
19981TIP3   OH281357   5.653   2.483   0.759 -0.4097 -0.4752  0.1493
19981TIP3    H181358   5.730   2.527   0.795  0.4814 -1.3439 -0.6544
19981TIP3    H281359   5.595   2.473   0.834  0.1925  0.3170  0.7441
19982LIG     O181360   3.373   3.419  16.195  0.2213  0.3228 -0.0291
19982LIG     O281361   3.421   3.855  16.332 -0.0450 -0.0578  0.5346
19982LIG     N181362   3.236   3.805  16.211 -0.0061  0.7475 -0.4454
19982LIG     N281363   3.103   3.506  16.076  0.7205 -0.2526  0.3508
19982LIG     N381364   3.396   3.630  16.270  0.8850 -0.7468 -0.0828
19982LIG     N481365   3.034   3.717  16.101 -0.1286 -0.1630 -0.4199
19982LIG     C181366   3.204   3.572  16.142 -0.9488  0.2177  0.7875
19982LIG     C281367   3.160   3.705  16.157  0.5409 -0.1174 -0.0936
19982LIG     C381368   3.325   3.530  16.198  0.4494  0.5265  0.4074
19982LIG     C481369   3.350   3.770  16.277 -1.5671  0.2684  0.4440
19982LIG     C581370   3.003   3.601  16.051 -0.1956  0.2048  0.8328
19982LIG     C681371   3.182   3.941  16.205 -0.3657  0.5926 -0.9359
19982LIG     C781372   3.103   3.370  16.038 -0.3636  0.1432  0.3501
19982LIG     C881373   3.521   3.598  16.334 -0.0672 -0.0635 -0.2032
19982LIG     H181374   2.912   3.575  15.998  0.0062 -0.2686  0.7102
19982LIG     H281375   3.150   3.973  16.306 -3.2469 -2.5412 -0.6743
19982LIG     H381376   3.080   3.949  16.163 -1.0859 -0.6368  0.4581
19982LIG     H481377   3.248   4.009  16.148  0.4529  0.8385  0.2597
19982LIG     H581378   3.173   3.352  15.954  0.6947 -0.1068  1.2547
19982LIG     H681379   3.001   3.329  16.020 -0.1691  0.5993 -2.0767
19982LIG     H781380   3.144   3.309  16.122 -0.6574  0.3024  0.6137
19982LIG     H881381   3.569   3.498  16.320 -0.7087 -0.4962  0.6511
19982LIG     H981382   3.523   3.608  16.444 -0.2398 -0.0055 -0.2051
19982LIG    H1081383   3.604   3.660  16.294 -1.1085 -0.6523 -3.6565
   6.80825   6.80825  17.18750
